      -----------------------------------------------------------      
     |                   =====================                   |     
     |                           x T B                           |     
     |                   =====================                   |     
     |                         S. Grimme                         |     
     |          Mulliken Center for Theoretical Chemistry        |     
     |                    University of Bonn                     |     
      -----------------------------------------------------------      

   * xtb version 6.5.0 (97a52f5) compiled by 'conda@d2599ee0d4f4' on 2022-05-15

   xtb is free software: you can redistribute it and/or modify it under
   the terms of the GNU Lesser General Public License as published by
   the Free Software Foundation, either version 3 of the License, or
   (at your option) any later version.
   
   xtb is distributed in the hope that it will be useful,
   but WITHOUT ANY WARRANTY; without even the implied warranty of
   MERCHANTABILITY or FITNESS FOR A PARTICULAR PURPOSE.  See the
   GNU Lesser General Public License for more details.
   
   Cite this work as:
   * C. Bannwarth, E. Caldeweyher, S. Ehlert, A. Hansen, P. Pracht,
     J. Seibert, S. Spicher, S. Grimme, WIREs Comput. Mol. Sci., 2020, 11,
     e01493. DOI: 10.1002/wcms.1493
   
   for GFN2-xTB:
   * C. Bannwarth, S. Ehlert and S. Grimme., J. Chem. Theory Comput., 2019,
     15, 1652-1671. DOI: 10.1021/acs.jctc.8b01176
   for GFN1-xTB:
   * S. Grimme, C. Bannwarth, P. Shushkov, J. Chem. Theory Comput., 2017,
     13, 1989-2009. DOI: 10.1021/acs.jctc.7b00118
   for GFN0-xTB:
   * P. Pracht, E. Caldeweyher, S. Ehlert, S. Grimme, ChemRxiv, 2019, preprint.
     DOI: 10.26434/chemrxiv.8326202.v1
   for GFN-FF:
   * S. Spicher and S. Grimme, Angew. Chem. Int. Ed., 2020, 59, 15665-15673.
     DOI: 10.1002/anie.202004239
   
   for ALPB and GBSA implicit solvation:
   * S. Ehlert, M. Stahn, S. Spicher, S. Grimme, J. Chem. Theory Comput.,
     2021, 17, 4250-4261. DOI: 10.1021/acs.jctc.1c00471
   
   for DFT-D4:
   * E. Caldeweyher, C. Bannwarth and S. Grimme, J. Chem. Phys., 2017,
     147, 034112. DOI: 10.1063/1.4993215
   * E. Caldeweyher, S. Ehlert, A. Hansen, H. Neugebauer, S. Spicher,
     C. Bannwarth and S. Grimme, J. Chem. Phys., 2019, 150, 154122.
     DOI: 10.1063/1.5090222
   * E. Caldeweyher, J.-M. Mewes, S. Ehlert and S. Grimme, Phys. Chem. Chem. Phys.
     2020, 22, 8499-8512. DOI: 10.1039/D0CP00502A
   
   for sTDA-xTB:
   * S. Grimme and C. Bannwarth, J. Chem. Phys., 2016, 145, 054103.
     DOI: 10.1063/1.4959605
   
   in the mass-spec context:
   * V. Asgeirsson, C. Bauer and S. Grimme, Chem. Sci., 2017, 8, 4879.
     DOI: 10.1039/c7sc00601b
   * J. Koopman and S. Grimme, ACS Omega 2019, 4, 12, 15120-15133.
     DOI: 10.1021/acsomega.9b02011
   
   for metadynamics refer to:
   * S. Grimme, J. Chem. Theory Comput., 2019, 155, 2847-2862
     DOI: 10.1021/acs.jctc.9b00143
   
   for SPH calculations refer to:
   * S. Spicher and S. Grimme, J. Chem. Theory Comput., 2021, 17, 1701-1714
     DOI: 10.1021/acs.jctc.0c01306
   
   with help from (in alphabetical order)
   P. Atkinson, C. Bannwarth, F. Bohle, G. Brandenburg, E. Caldeweyher
   M. Checinski, S. Dohm, S. Ehlert, S. Ehrlich, I. Gerasimov, C. Hölzer
   A. Katbashev, J. Koopman, C. Lavigne, S. Lehtola, F. März, M. Müller,
   F. Musil, H. Neugebauer, J. Pisarek, C. Plett, P. Pracht, F. Pultar,
   J. Seibert, P. Shushkov, S. Spicher, M. Stahn, M. Steiner, T. Strunk,
   J. Stückrath, T. Rose, and J. Unsleber
   
 * started run on 2023/11/18 at 09:09:40.477     

           -------------------------------------------------
          |                Calculation Setup                |
           -------------------------------------------------

          program call               : /home/liuchw/anaconda3/envs/xtbenv/bin/xtb --gfn 2 --chrg 0 --uhf 0 1_7_Index_0-opt-2-3-346_preQMOPTprefit_xyzformat.xyz --opt --input xtb-opt-2-3-346_constr.txt
          hostname                   : node165.bme.utexas.edu
          coordinate file            : 1_7_Index_0-opt-2-3-346_preQMOPTprefit_xyzformat.xyz
          omp threads                :                    64

   ID    Z sym.   atoms
    1    1 H      1, 21, 23-34
    2    7 N      2, 8
    3    6 C      3-7, 9-20
    4    8 O      22
constraining angle 1 2 3 4 to  346.0270389°, actual value:  -13.9729611°
constraining angle 5 2 3 4 to  123.3173601°, actual value:  123.3173601°
constraining angle 1 2 5 17 to  332.1674166°, actual value:  -27.8325834°
constraining angle 3 2 5 17 to  195.1969849°, actual value: -164.8030151°
constraining angle 2 3 4 12 to  262.2182960°, actual value:  -97.7817040°
constraining angle 2 3 6 7 to  183.5289992°, actual value: -176.4710008°

           -------------------------------------------------
          |                 G F N 2 - x T B                 |
           -------------------------------------------------

        Reference                      10.1021/acs.jctc.8b01176
      * Hamiltonian:
        H0-scaling (s, p, d)           1.850000    2.230000    2.230000
        zeta-weighting                 0.500000
      * Dispersion:
        s8                             2.700000
        a1                             0.520000
        a2                             5.000000
        s9                             5.000000
      * Repulsion:
        kExp                           1.500000    1.000000
        rExp                           1.000000
      * Coulomb:
        alpha                          2.000000
        third order                    shell-resolved
        anisotropic                    true
        a3                             3.000000
        a5                             4.000000
        cn-shift                       1.200000
        cn-exp                         4.000000
        max-rad                        5.000000

q/qsh data taken from xtbrestart
CAMM data taken from xtbrestart

          ...................................................
          :                      SETUP                      :
          :.................................................:
          :  # basis functions                  94          :
          :  # atomic orbitals                  94          :
          :  # shells                           54          :
          :  # electrons                        98          :
          :  max. iterations                   250          :
          :  Hamiltonian                  GFN2-xTB          :
          :  restarted?                       true          :
          :  GBSA solvation                  false          :
          :  PC potential                    false          :
          :  electronic temp.          300.0000000     K    :
          :  accuracy                    1.0000000          :
          :  -> integral cutoff          0.2500000E+02      :
          :  -> integral neglect         0.1000000E-07      :
          :  -> SCF convergence          0.1000000E-05 Eh   :
          :  -> wf. convergence          0.1000000E-03 e    :
          :  Broyden damping             0.4000000          :
          ...................................................

 iter      E             dE          RMSdq      gap      omega  full diag
   1    -54.1561104 -0.541561E+02  0.122E+00    1.49       0.0  T
   2    -54.1498628  0.624764E-02  0.887E-01    1.71       1.0  T
   3    -54.1420499  0.781282E-02  0.830E-01    1.46       1.0  T
   4    -54.1616478 -0.195978E-01  0.134E-01    1.58       1.0  T
   5    -54.1621689 -0.521116E-03  0.399E-02    1.57       1.0  T
   6    -54.1622106 -0.417512E-04  0.186E-02    1.57       1.0  T
   7    -54.1622130 -0.232683E-05  0.607E-03    1.57       2.8  T
   8    -54.1622139 -0.900508E-06  0.211E-03    1.57       8.1  T
   9    -54.1622139 -0.791934E-07  0.980E-04    1.57      17.5  T
  10    -54.1622140 -0.638239E-08  0.514E-04    1.57      33.3  T

   *** convergence criteria satisfied after 10 iterations ***

         #    Occupation            Energy/Eh            Energy/eV
      -------------------------------------------------------------
         1        2.0000           -0.6832777             -18.5929
       ...           ...                  ...                  ...
        43        2.0000           -0.4121674             -11.2156
        44        2.0000           -0.4097384             -11.1496
        45        2.0000           -0.4020311             -10.9398
        46        2.0000           -0.3898968             -10.6096
        47        2.0000           -0.3840404             -10.4503
        48        2.0000           -0.3711667             -10.1000
        49        2.0000           -0.3459326              -9.4133 (HOMO)
        50                         -0.2883437              -7.8462 (LUMO)
        51                         -0.2413134              -6.5665
        52                         -0.2366383              -6.4393
        53                         -0.2189320              -5.9574
        54                         -0.2170266              -5.9056
       ...                                ...                  ...
        94                          0.6511695              17.7192
      -------------------------------------------------------------
                  HL-Gap            0.0575889 Eh            1.5671 eV
             Fermi-level           -0.3171381 Eh           -8.6298 eV

 SCC (total)                   0 d,  0 h,  0 min,  1.439 sec
 SCC setup                      ...        0 min,  0.010 sec (  0.702%)
 Dispersion                     ...        0 min,  0.025 sec (  1.771%)
 classical contributions        ...        0 min,  0.007 sec (  0.467%)
 integral evaluation            ...        0 min,  0.031 sec (  2.185%)
 iterations                     ...        0 min,  1.193 sec ( 82.884%)
 molecular gradient             ...        0 min,  0.158 sec ( 10.958%)
 printout                       ...        0 min,  0.015 sec (  1.024%)

         :::::::::::::::::::::::::::::::::::::::::::::::::::::
         ::                     SUMMARY                     ::
         :::::::::::::::::::::::::::::::::::::::::::::::::::::
         :: total energy             -53.357248966716 Eh    ::
         :: gradient norm              0.126821767535 Eh/a0 ::
         :: HOMO-LUMO gap              1.567072790545 eV    ::
         ::.................................................::
         :: SCC energy               -54.162213950762 Eh    ::
         :: -> isotropic ES            0.043504549589 Eh    ::
         :: -> anisotropic ES          0.006259750601 Eh    ::
         :: -> anisotropic XC          0.030820053222 Eh    ::
         :: -> dispersion             -0.038349770718 Eh    ::
         :: repulsion energy           0.804694087477 Eh    ::
         :: add. restraining           0.000000000000 Eh    ::
         :: total charge              -0.000000000000 e     ::
         :::::::::::::::::::::::::::::::::::::::::::::::::::::

      ----------------------------------------------------------- 
     |                   =====================                   |
     |                        A N C O P T                        |
     |                   =====================                   |
     |               Approximate Normal Coordinate               |
     |                Rational Function Optimizer                |
      ----------------------------------------------------------- 

          ...................................................
          :                      SETUP                      :
          :.................................................:
          :   optimization level            normal          :
          :   max. optcycles                   200          :
          :   ANC micro-cycles                  20          :
          :   degrees of freedom                96          :
          :.................................................:
          :   RF solver                   davidson          :
          :   write xtbopt.log                true          :
          :   linear?                        false          :
          :   energy convergence         0.5000000E-05 Eh   :
          :   grad. convergence          0.1000000E-02 Eh/α :
          :   maximium RF displ.         1.0000000          :
          :   Hlow (freq-cutoff)         0.1000000E-01      :
          :   Hmax (freq-cutoff)         5.0000000          :
          :   S6 in model hess.         20.0000000          :
          ...................................................

generating ANC from model Hessian ...
Using Lindh-Hessian (1995)
 Shifting diagonal of input Hessian by    9.1417841640708680E-003
 Lowest  eigenvalues of input Hessian
    0.000000    0.000000    0.000000    0.000000    0.000000    0.000000
    0.010000    0.010374    0.010575    0.010975    0.012291    0.013540
    0.015604    0.017385    0.018686    0.020815    0.023225    0.024212
 Highest eigenvalues
    2.183453    2.288770    3.400861    6.650398    8.777522   17.206410


........................................................................
.............................. CYCLE    1 ..............................
........................................................................
   1    -54.1622140 -0.541622E+02  0.170E-04    1.57       0.0  T
   2    -54.1622140  0.164476E-09  0.154E-04    1.57     111.3  T
   3    -54.1622140 -0.575199E-09  0.863E-05    1.57     198.6  T
     SCC iter.                  ...        0 min,  0.333 sec
     gradient                   ...        0 min,  0.154 sec
 * total energy  :   -53.3572490 Eh     change       -0.4234884E-08 Eh
   gradient norm :     0.1268232 Eh/α   predicted     0.0000000E+00 (-100.00%)
   displ. norm   :     0.4580248 α      lambda       -0.2813848E-01
   maximum displ.:     0.1709956 α      in ANC's #7, #14, #8, ...

........................................................................
.............................. CYCLE    2 ..............................
........................................................................
   1    -54.2477690 -0.542478E+02  0.280E-01    1.79       0.0  T
   2    -54.2476544  0.114601E-03  0.201E-01    1.74       1.0  T
   3    -54.2475028  0.151514E-03  0.162E-01    1.80       1.0  T
   4    -54.2481528 -0.649940E-03  0.378E-02    1.76       1.0  T
   5    -54.2481929 -0.401069E-04  0.918E-03    1.76       1.9  T
   6    -54.2481953 -0.244185E-05  0.360E-03    1.76       4.8  T
   7    -54.2481954 -0.364345E-07  0.131E-03    1.76      13.1  T
   8    -54.2481954 -0.204830E-07  0.496E-04    1.76      34.5  T
   9    -54.2481954 -0.245537E-08  0.202E-04    1.76      84.7  T
     SCC iter.                  ...        0 min,  0.996 sec
     gradient                   ...        0 min,  0.141 sec
 * total energy  :   -53.3756333 Eh     change       -0.1838433E-01 Eh
   gradient norm :     0.0826184 Eh/α   predicted    -0.1704046E-01 (  -7.31%)
   displ. norm   :     0.4255310 α      lambda       -0.9725119E-02
   maximum displ.:     0.1756747 α      in ANC's #13, #14, #7, ...

........................................................................
.............................. CYCLE    3 ..............................
........................................................................
   1    -54.2927738 -0.542928E+02  0.207E-01    1.87       0.0  T
   2    -54.2925877  0.186121E-03  0.190E-01    1.81       1.0  T
   3    -54.2933439 -0.756250E-03  0.922E-02    1.85       1.0  T
   4    -54.2934023 -0.583029E-04  0.361E-02    1.83       1.0  T
   5    -54.2934239 -0.216922E-04  0.873E-03    1.84       2.0  T
   6    -54.2934268 -0.282066E-05  0.281E-03    1.84       6.1  T
   7    -54.2934268 -0.223370E-07  0.107E-03    1.84      16.1  T
   8    -54.2934268 -0.150319E-07  0.404E-04    1.84      42.5  T
   9    -54.2934268 -0.239083E-08  0.181E-04    1.84      94.9  T
     SCC iter.                  ...        0 min,  1.151 sec
     gradient                   ...        0 min,  0.161 sec
 * total energy  :   -53.3796809 Eh     change       -0.4047576E-02 Eh
   gradient norm :     0.1849520 Eh/α   predicted    -0.5743408E-02 (  41.90%)
   displ. norm   :     0.3029618 α      lambda       -0.5532079E-02
   maximum displ.:     0.1321363 α      in ANC's #13, #6, #9, ...

........................................................................
.............................. CYCLE    4 ..............................
........................................................................
   1    -54.3064420 -0.543064E+02  0.131E-01    1.86       0.0  T
   2    -54.3063689  0.730730E-04  0.127E-01    1.82       1.0  T
   3    -54.3067170 -0.348076E-03  0.560E-02    1.85       1.0  T
   4    -54.3067257 -0.870677E-05  0.243E-02    1.84       1.0  T
   5    -54.3067352 -0.948397E-05  0.507E-03    1.85       3.4  T
   6    -54.3067361 -0.892333E-06  0.170E-03    1.85      10.1  T
   7    -54.3067361 -0.128921E-07  0.653E-04    1.85      26.3  T
   8    -54.3067361 -0.515042E-08  0.209E-04    1.85      82.1  T
     SCC iter.                  ...        0 min,  0.915 sec
     gradient                   ...        0 min,  0.153 sec
 * total energy  :   -53.3799576 Eh     change       -0.2767556E-03 Eh
   gradient norm :     0.2404989 Eh/α   predicted    -0.3019931E-02 ( 991.19%)
   displ. norm   :     0.1687191 α      lambda       -0.4466236E-02
   maximum displ.:     0.0671443 α      in ANC's #9, #1, #6, ...

........................................................................
.............................. CYCLE    5 ..............................
........................................................................
   1    -54.2950516 -0.542951E+02  0.854E-02    1.84       0.0  T
   2    -54.2950604 -0.878362E-05  0.517E-02    1.85       1.0  T
   3    -54.2950239  0.365262E-04  0.426E-02    1.83       1.0  T
   4    -54.2950723 -0.483683E-04  0.119E-02    1.84       1.4  T
   5    -54.2950770 -0.470869E-05  0.262E-03    1.84       6.6  T
   6    -54.2950772 -0.239811E-06  0.817E-04    1.84      21.0  T
   7    -54.2950772 -0.247602E-08  0.325E-04    1.84      52.8  T
     SCC iter.                  ...        0 min,  0.860 sec
     gradient                   ...        0 min,  0.154 sec
 * total energy  :   -53.3820565 Eh     change       -0.2098815E-02 Eh
   gradient norm :     0.0671906 Eh/α   predicted    -0.2296705E-02 (   9.43%)
   displ. norm   :     0.2022617 α      lambda       -0.1308502E-02
   maximum displ.:     0.1109377 α      in ANC's #1, #2, #4, ...

........................................................................
.............................. CYCLE    6 ..............................
........................................................................
   1    -54.2907978 -0.542908E+02  0.848E-02    1.81       0.0  T
   2    -54.2907804  0.174131E-04  0.552E-02    1.82       1.0  T
   3    -54.2907696  0.108111E-04  0.501E-02    1.81       1.0  T
   4    -54.2908269 -0.573433E-04  0.754E-03    1.82       2.3  T
   5    -54.2908291 -0.213201E-05  0.141E-03    1.82      12.2  T
   6    -54.2908291 -0.384053E-07  0.669E-04    1.82      25.7  T
   7    -54.2908291  0.162409E-09  0.308E-04    1.82      55.7  T
     SCC iter.                  ...        0 min,  0.883 sec
     gradient                   ...        0 min,  0.149 sec
 * total energy  :   -53.3827389 Eh     change       -0.6824821E-03 Eh
   gradient norm :     0.0372931 Eh/α   predicted    -0.6810297E-03 (  -0.21%)
   displ. norm   :     0.3070449 α      lambda       -0.7829189E-03
   maximum displ.:     0.1611055 α      in ANC's #1, #3, #9, ...

........................................................................
.............................. CYCLE    7 ..............................
........................................................................
   1    -54.2919657 -0.542920E+02  0.103E-01    1.82       0.0  T
   2    -54.2919676 -0.195269E-05  0.619E-02    1.81       1.0  T
   3    -54.2919002  0.674715E-04  0.439E-02    1.82       1.0  T
   4    -54.2919731 -0.728858E-04  0.772E-03    1.81       2.2  T
   5    -54.2919751 -0.202088E-05  0.149E-03    1.81      11.5  T
   6    -54.2919751 -0.337810E-07  0.812E-04    1.81      21.1  T
   7    -54.2919751 -0.315396E-08  0.315E-04    1.81      54.5  T
     SCC iter.                  ...        0 min,  1.053 sec
     gradient                   ...        0 min,  0.145 sec
 * total energy  :   -53.3833989 Eh     change       -0.6599751E-03 Eh
   gradient norm :     0.0254912 Eh/α   predicted    -0.4283675E-03 ( -35.09%)
   displ. norm   :     0.5351094 α      lambda       -0.1112746E-02
   maximum displ.:     0.3059323 α      in ANC's #1, #3, #2, ...

........................................................................
.............................. CYCLE    8 ..............................
........................................................................
   1    -54.2936631 -0.542937E+02  0.172E-01    1.83       0.0  T
   2    -54.2936741 -0.109500E-04  0.997E-02    1.82       1.0  T
   3    -54.2936350  0.390112E-04  0.360E-02    1.83       1.0  T
   4    -54.2936802 -0.451166E-04  0.714E-03    1.82       2.4  T
   5    -54.2936817 -0.152759E-05  0.257E-03    1.82       6.7  T
   6    -54.2936818 -0.894070E-07  0.137E-03    1.82      12.5  T
   7    -54.2936818 -0.244839E-07  0.423E-04    1.82      40.5  T
   8    -54.2936818 -0.176025E-08  0.153E-04    1.82     111.9  T
     SCC iter.                  ...        0 min,  1.005 sec
     gradient                   ...        0 min,  0.148 sec
 * total energy  :   -53.3842935 Eh     change       -0.8945567E-03 Eh
   gradient norm :     0.0182594 Eh/α   predicted    -0.7156914E-03 ( -19.99%)
   displ. norm   :     0.5861278 α      lambda       -0.1008106E-02
   maximum displ.:     0.3676254 α      in ANC's #1, #3, #2, ...

........................................................................
.............................. CYCLE    9 ..............................
........................................................................
   1    -54.2941543 -0.542942E+02  0.179E-01    1.84       0.0  T
   2    -54.2941713 -0.169761E-04  0.104E-01    1.84       1.0  T
   3    -54.2941210  0.502223E-04  0.437E-02    1.84       1.0  T
   4    -54.2941788 -0.577928E-04  0.943E-03    1.84       1.8  T
   5    -54.2941819 -0.306978E-05  0.327E-03    1.84       5.2  T
   6    -54.2941821 -0.233607E-06  0.149E-03    1.84      11.5  T
   7    -54.2941821 -0.118410E-07  0.597E-04    1.84      28.7  T
   8    -54.2941821 -0.310776E-08  0.207E-04    1.84      82.7  T
     SCC iter.                  ...        0 min,  0.942 sec
     gradient                   ...        0 min,  0.151 sec
 * total energy  :   -53.3852311 Eh     change       -0.9375862E-03 Eh
   gradient norm :     0.0243644 Eh/α   predicted    -0.6772190E-03 ( -27.77%)
   displ. norm   :     0.7239861 α      lambda       -0.1509009E-02
   maximum displ.:     0.4726328 α      in ANC's #1, #3, #2, ...

........................................................................
.............................. CYCLE   10 ..............................
........................................................................
   1    -54.2963843 -0.542964E+02  0.217E-01    1.88       0.0  T
   2    -54.2964153 -0.310067E-04  0.128E-01    1.88       1.0  T
   3    -54.2962862  0.129063E-03  0.699E-02    1.87       1.0  T
   4    -54.2964249 -0.138673E-03  0.194E-02    1.88       1.0  T
   5    -54.2964387 -0.138561E-04  0.380E-03    1.88       4.5  T
   6    -54.2964390 -0.290655E-06  0.184E-03    1.88       9.3  T
   7    -54.2964390 -0.127990E-07  0.855E-04    1.88      20.1  T
   8    -54.2964390 -0.488752E-08  0.239E-04    1.88      71.7  T
     SCC iter.                  ...        0 min,  0.937 sec
     gradient                   ...        0 min,  0.155 sec
 * total energy  :   -53.3867403 Eh     change       -0.1509218E-02 Eh
   gradient norm :     0.0246914 Eh/α   predicted    -0.1149988E-02 ( -23.80%)
   displ. norm   :     0.8896799 α      lambda       -0.2363449E-02
   maximum displ.:     0.6011946 α      in ANC's #1, #3, #2, ...

........................................................................
.............................. CYCLE   11 ..............................
........................................................................
   1    -54.3006488 -0.543006E+02  0.278E-01    1.93       0.0  T
   2    -54.3007020 -0.532904E-04  0.169E-01    1.94       1.0  T
   3    -54.3003359  0.366117E-03  0.116E-01    1.92       1.0  T
   4    -54.3007437 -0.407738E-03  0.274E-02    1.94       1.0  T
   5    -54.3007698 -0.261306E-04  0.491E-03    1.94       3.5  T
   6    -54.3007703 -0.510757E-06  0.229E-03    1.94       7.5  T
   7    -54.3007703 -0.214691E-07  0.117E-03    1.94      14.6  T
   8    -54.3007703 -0.728823E-08  0.309E-04    1.94      55.4  T
   9    -54.3007703 -0.148061E-08  0.141E-04    1.94     121.2  T
     SCC iter.                  ...        0 min,  1.208 sec
     gradient                   ...        0 min,  0.152 sec
 * total energy  :   -53.3888485 Eh     change       -0.2108260E-02 Eh
   gradient norm :     0.0443205 Eh/α   predicted    -0.2117097E-02 (   0.42%)
   displ. norm   :     0.7706381 α      lambda       -0.1987082E-02
   maximum displ.:     0.5250443 α      in ANC's #1, #3, #2, ...

........................................................................
.............................. CYCLE   12 ..............................
........................................................................
   1    -54.3037066 -0.543037E+02  0.251E-01    1.99       0.0  T
   2    -54.3037341 -0.275446E-04  0.153E-01    2.00       1.0  T
   3    -54.3033843  0.349807E-03  0.114E-01    1.97       1.0  T
   4    -54.3037880 -0.403759E-03  0.197E-02    2.00       1.0  T
   5    -54.3038014 -0.133917E-04  0.429E-03    1.99       4.0  T
   6    -54.3038018 -0.387085E-06  0.202E-03    1.99       8.5  T
   7    -54.3038018 -0.137535E-07  0.103E-03    1.99      16.7  T
   8    -54.3038018 -0.730807E-08  0.326E-04    1.99      52.6  T
   9    -54.3038019 -0.199394E-08  0.140E-04    1.99     122.6  T
     SCC iter.                  ...        0 min,  1.130 sec
     gradient                   ...        0 min,  0.154 sec
 * total energy  :   -53.3904334 Eh     change       -0.1584890E-02 Eh
   gradient norm :     0.0624511 Eh/α   predicted    -0.1583590E-02 (  -0.08%)
   displ. norm   :     0.5246294 α      lambda       -0.1806077E-02
   maximum displ.:     0.3436992 α      in ANC's #1, #3, #2, ...

........................................................................
.............................. CYCLE   13 ..............................
........................................................................
   1    -54.3234855 -0.543235E+02  0.201E-01    2.05       0.0  T
   2    -54.3235595 -0.740079E-04  0.141E-01    2.06       1.0  T
   3    -54.3235734 -0.139282E-04  0.937E-02    2.04       1.0  T
   4    -54.3237381 -0.164643E-03  0.290E-02    2.06       1.0  T
   5    -54.3237579 -0.198597E-04  0.450E-03    2.05       3.8  T
   6    -54.3237583 -0.372687E-06  0.215E-03    2.05       8.0  T
   7    -54.3237584 -0.390565E-07  0.106E-03    2.05      16.1  T
   8    -54.3237584 -0.630803E-08  0.373E-04    2.05      45.9  T
   9    -54.3237584 -0.106138E-08  0.130E-04    2.05     132.1  T
     SCC iter.                  ...        0 min,  1.173 sec
     gradient                   ...        0 min,  0.153 sec
 * total energy  :   -53.3910558 Eh     change       -0.6224003E-03 Eh
   gradient norm :     0.1148189 Eh/α   predicted    -0.1151591E-02 (  85.02%)
   displ. norm   :     0.6567883 α      lambda       -0.3686986E-02
   maximum displ.:     0.4001740 α      in ANC's #3, #1, #2, ...

........................................................................
.............................. CYCLE   14 ..............................
........................................................................
   1    -54.3046320 -0.543046E+02  0.238E-01    2.06       0.0  T
   2    -54.3047424 -0.110395E-03  0.162E-01    2.05       1.0  T
   3    -54.3046214  0.120995E-03  0.110E-01    2.08       1.0  T
   4    -54.3048839 -0.262486E-03  0.341E-02    2.05       1.0  T
   5    -54.3049185 -0.346463E-04  0.514E-03    2.06       3.3  T
   6    -54.3049189 -0.404270E-06  0.288E-03    2.06       6.0  T
   7    -54.3049190 -0.589491E-07  0.140E-03    2.06      12.3  T
   8    -54.3049190 -0.222251E-07  0.553E-04    2.06      31.0  T
   9    -54.3049190 -0.175507E-08  0.196E-04    2.06      87.6  T
     SCC iter.                  ...        0 min,  1.166 sec
     gradient                   ...        0 min,  0.153 sec
 * total energy  :   -53.3933511 Eh     change       -0.2295250E-02 Eh
   gradient norm :     0.1175005 Eh/α   predicted    -0.2638727E-02 (  14.96%)
   displ. norm   :     0.2616223 α      lambda       -0.3019345E-02
   maximum displ.:     0.1291804 α      in ANC's #3, #12, #2, ...

........................................................................
.............................. CYCLE   15 ..............................
........................................................................
   1    -54.2980188 -0.542980E+02  0.136E-01    2.02       0.0  T
   2    -54.2980246 -0.578980E-05  0.890E-02    2.01       1.0  T
   3    -54.2979752  0.493406E-04  0.688E-02    2.02       1.0  T
   4    -54.2980853 -0.110025E-03  0.132E-02    2.01       1.3  T
   5    -54.2980903 -0.505920E-05  0.308E-03    2.01       5.6  T
   6    -54.2980905 -0.211967E-06  0.118E-03    2.01      14.5  T
   7    -54.2980905 -0.299195E-08  0.606E-04    2.01      28.3  T
   8    -54.2980905 -0.476729E-08  0.197E-04    2.01      87.0  T
     SCC iter.                  ...        0 min,  0.843 sec
     gradient                   ...        0 min,  0.153 sec
 * total energy  :   -53.3943014 Eh     change       -0.9503486E-03 Eh
   gradient norm :     0.0550024 Eh/α   predicted    -0.1613004E-02 (  69.73%)
   displ. norm   :     0.4574175 α      lambda       -0.3499456E-02
   maximum displ.:     0.3037919 α      in ANC's #3, #1, #7, ...

........................................................................
.............................. CYCLE   16 ..............................
........................................................................
   1    -54.3021744 -0.543022E+02  0.173E-01    2.05       0.0  T
   2    -54.3022044 -0.299715E-04  0.102E-01    2.04       1.0  T
   3    -54.3021279  0.765313E-04  0.578E-02    2.05       1.0  T
   4    -54.3022115 -0.835893E-04  0.151E-02    2.04       1.1  T
   5    -54.3022198 -0.837661E-05  0.352E-03    2.04       4.9  T
   6    -54.3022202 -0.346762E-06  0.138E-03    2.04      12.4  T
   7    -54.3022202 -0.149920E-07  0.736E-04    2.04      23.3  T
   8    -54.3022202 -0.431002E-08  0.231E-04    2.04      74.3  T
     SCC iter.                  ...        0 min,  0.925 sec
     gradient                   ...        0 min,  0.152 sec
 * total energy  :   -53.3969950 Eh     change       -0.2693585E-02 Eh
   gradient norm :     0.0537974 Eh/α   predicted    -0.2115825E-02 ( -21.45%)
   displ. norm   :     0.5282718 α      lambda       -0.4849155E-02
   maximum displ.:     0.2564935 α      in ANC's #3, #9, #7, ...

........................................................................
.............................. CYCLE   17 ..............................
........................................................................
   1    -54.3308061 -0.543308E+02  0.238E-01    2.05       0.0  T
   2    -54.3308765 -0.703851E-04  0.146E-01    2.02       1.0  T
   3    -54.3307938  0.826880E-04  0.112E-01    2.05       1.0  T
   4    -54.3310415 -0.247662E-03  0.324E-02    2.03       1.0  T
   5    -54.3310710 -0.295642E-04  0.762E-03    2.03       2.3  T
   6    -54.3310725 -0.144590E-05  0.281E-03    2.03       6.1  T
   7    -54.3310725 -0.196393E-07  0.114E-03    2.03      15.1  T
   8    -54.3310725 -0.169164E-07  0.351E-04    2.03      48.8  T
   9    -54.3310725 -0.472092E-09  0.158E-04    2.03     108.6  T
     SCC iter.                  ...        0 min,  1.169 sec
     gradient                   ...        0 min,  0.144 sec
 * total energy  :   -53.3991154 Eh     change       -0.2120352E-02 Eh
   gradient norm :     0.1030057 Eh/α   predicted    -0.3101211E-02 (  46.26%)
   displ. norm   :     0.6137583 α      lambda       -0.5128239E-02
   maximum displ.:     0.4091963 α      in ANC's #3, #1, #5, ...

........................................................................
.............................. CYCLE   18 ..............................
........................................................................
   1    -54.3275465 -0.543275E+02  0.249E-01    2.10       0.0  T
   2    -54.3278412 -0.294681E-03  0.153E-01    2.10       1.0  T
   3    -54.3277583  0.828652E-04  0.998E-02    2.08       1.0  T
   4    -54.3278849 -0.126641E-03  0.509E-02    2.10       1.0  T
   5    -54.3279645 -0.795179E-04  0.602E-03    2.09       2.8  T
   6    -54.3279653 -0.835541E-06  0.263E-03    2.09       6.5  T
   7    -54.3279653 -0.455635E-07  0.140E-03    2.09      12.2  T
   8    -54.3279654 -0.255655E-07  0.475E-04    2.09      36.1  T
   9    -54.3279654 -0.505494E-09  0.192E-04    2.09      89.3  T
     SCC iter.                  ...        0 min,  1.163 sec
     gradient                   ...        0 min,  0.153 sec
 * total energy  :   -53.4024661 Eh     change       -0.3350716E-02 Eh
   gradient norm :     0.0776658 Eh/α   predicted    -0.3530027E-02 (   5.35%)
   displ. norm   :     0.6871444 α      lambda       -0.5199832E-02
   maximum displ.:     0.4676712 α      in ANC's #3, #1, #9, ...

........................................................................
.............................. CYCLE   19 ..............................
........................................................................
   1    -54.3099424 -0.543099E+02  0.272E-01    2.11       0.0  T
   2    -54.3101213 -0.178892E-03  0.173E-01    2.10       1.0  T
   3    -54.3099411  0.180261E-03  0.123E-01    2.13       1.0  T
   4    -54.3102497 -0.308596E-03  0.377E-02    2.10       1.0  T
   5    -54.3102942 -0.445519E-04  0.509E-03    2.11       3.4  T
   6    -54.3102947 -0.482470E-06  0.253E-03    2.11       6.8  T
   7    -54.3102947 -0.262755E-07  0.119E-03    2.11      14.5  T
   8    -54.3102948 -0.187965E-07  0.473E-04    2.11      36.3  T
   9    -54.3102948 -0.200070E-08  0.152E-04    2.11     112.7  T
     SCC iter.                  ...        0 min,  1.224 sec
     gradient                   ...        0 min,  0.164 sec
 * total energy  :   -53.4052777 Eh     change       -0.2811609E-02 Eh
   gradient norm :     0.0394974 Eh/α   predicted    -0.3827530E-02 (  36.13%)
   displ. norm   :     0.5112084 α      lambda       -0.3967294E-02
   maximum displ.:     0.2258400 α      in ANC's #4, #3, #2, ...

........................................................................
.............................. CYCLE   20 ..............................
........................................................................
   1    -54.3169759 -0.543170E+02  0.180E-01    2.14       0.0  T
   2    -54.3170475 -0.715562E-04  0.108E-01    2.13       1.0  T
   3    -54.3170222  0.253098E-04  0.452E-02    2.14       1.0  T
   4    -54.3170544 -0.322722E-04  0.159E-02    2.13       1.1  T
   5    -54.3170620 -0.758890E-05  0.445E-03    2.13       3.9  T
   6    -54.3170626 -0.578952E-06  0.198E-03    2.13       8.6  T
   7    -54.3170626 -0.380766E-07  0.803E-04    2.13      21.4  T
   8    -54.3170626 -0.990783E-08  0.261E-04    2.13      65.6  T
     SCC iter.                  ...        0 min,  1.004 sec
     gradient                   ...        0 min,  0.158 sec
 * total energy  :   -53.4074354 Eh     change       -0.2157674E-02 Eh
   gradient norm :     0.0883617 Eh/α   predicted    -0.2502048E-02 (  15.96%)
   displ. norm   :     0.6598434 α      lambda       -0.5379790E-02
   maximum displ.:     0.3736533 α      in ANC's #3, #1, #7, ...
 * RMSD in coord.:     1.3900225 α      energy gain  -0.5018639E-01 Eh

generating ANC from model Hessian ...
Using Lindh-Hessian (1995)
 Shifting diagonal of input Hessian by    8.8473923389247398E-003
 Lowest  eigenvalues of input Hessian
    0.000000    0.000000    0.000000    0.000000    0.000000    0.000000
    0.010000    0.010596    0.010923    0.011492    0.012832    0.013760
    0.016645    0.019177    0.019459    0.024105    0.025906    0.028589
 Highest eigenvalues
    2.291126    2.363360    2.983649    6.644419   10.035098   19.702085


........................................................................
.............................. CYCLE   21 ..............................
........................................................................
   1    -54.3194824 -0.543195E+02  0.270E-01    2.17       0.0  T
   2    -54.3195216 -0.392085E-04  0.160E-01    2.18       1.0  T
   3    -54.3193222  0.199415E-03  0.101E-01    2.17       1.0  T
   4    -54.3195632 -0.241031E-03  0.177E-02    2.18       1.0  T
   5    -54.3195743 -0.110752E-04  0.546E-03    2.17       3.1  T
   6    -54.3195746 -0.360888E-06  0.295E-03    2.18       5.8  T
   7    -54.3195747 -0.790518E-07  0.904E-04    2.17      19.0  T
   8    -54.3195747 -0.688333E-08  0.425E-04    2.17      40.4  T
     SCC iter.                  ...        0 min,  0.930 sec
     gradient                   ...        0 min,  0.148 sec
 * total energy  :   -53.4084025 Eh     change       -0.9671388E-03 Eh
   gradient norm :     0.0624571 Eh/α   predicted     0.0000000E+00 (-100.00%)
   displ. norm   :     0.2814998 α      lambda       -0.4490987E-02
   maximum displ.:     0.2097037 α      in ANC's #2, #3, #5, ...

........................................................................
.............................. CYCLE   22 ..............................
........................................................................
   1    -54.3290488 -0.543290E+02  0.121E-01    2.20       0.0  T
   2    -54.3290662 -0.173513E-04  0.729E-02    2.20       1.0  T
   3    -54.3290214  0.448115E-04  0.458E-02    2.19       1.0  T
   4    -54.3290758 -0.543785E-04  0.122E-02    2.20       1.4  T
   5    -54.3290802 -0.442132E-05  0.265E-03    2.20       6.5  T
   6    -54.3290803 -0.144276E-06  0.139E-03    2.20      12.4  T
   7    -54.3290803 -0.153382E-07  0.499E-04    2.20      34.4  T
   8    -54.3290803 -0.243904E-08  0.176E-04    2.20      97.6  T
     SCC iter.                  ...        0 min,  0.929 sec
     gradient                   ...        0 min,  0.150 sec
 * total energy  :   -53.4111681 Eh     change       -0.2765597E-02 Eh
   gradient norm :     0.0915487 Eh/α   predicted    -0.2423438E-02 ( -12.37%)
   displ. norm   :     0.4227935 α      lambda       -0.3741368E-02
   maximum displ.:     0.3349872 α      in ANC's #2, #3, #5, ...

........................................................................
.............................. CYCLE   23 ..............................
........................................................................
   1    -54.3366335 -0.543366E+02  0.148E-01    2.23       0.0  T
   2    -54.3366530 -0.194671E-04  0.878E-02    2.23       1.0  T
   3    -54.3366058  0.471395E-04  0.441E-02    2.22       1.0  T
   4    -54.3366622 -0.563537E-04  0.100E-02    2.23       1.7  T
   5    -54.3366650 -0.281046E-05  0.314E-03    2.23       5.5  T
   6    -54.3366652 -0.223224E-06  0.156E-03    2.23      11.0  T
   7    -54.3366652 -0.235022E-07  0.500E-04    2.23      34.3  T
   8    -54.3366652 -0.310555E-08  0.181E-04    2.23      94.6  T
     SCC iter.                  ...        0 min,  0.930 sec
     gradient                   ...        0 min,  0.152 sec
 * total energy  :   -53.4110647 Eh     change        0.1034188E-03 Eh
   gradient norm :     0.2224078 Eh/α   predicted    -0.2205079E-02 (*******%)
   displ. norm   :     0.1687886 α      lambda       -0.3726553E-02
   maximum displ.:     0.1351324 α      in ANC's #2, #3, #4, ...

........................................................................
.............................. CYCLE   24 ..............................
........................................................................
   1    -54.3343799 -0.543344E+02  0.686E-02    2.23       0.0  T
   2    -54.3343826 -0.270796E-05  0.405E-02    2.23       1.0  T
   3    -54.3343787  0.386653E-05  0.125E-02    2.23       1.4  T
   4    -54.3343835 -0.477805E-05  0.180E-03    2.23       9.5  T
   5    -54.3343836 -0.796991E-07  0.100E-03    2.23      17.1  T
   6    -54.3343836 -0.581854E-08  0.619E-04    2.23      27.7  T
   7    -54.3343836 -0.831460E-08  0.214E-04    2.23      80.1  T
     SCC iter.                  ...        0 min,  0.913 sec
     gradient                   ...        0 min,  0.163 sec
 * total energy  :   -53.4133637 Eh     change       -0.2299071E-02 Eh
   gradient norm :     0.0248065 Eh/α   predicted    -0.1916404E-02 ( -16.64%)
   displ. norm   :     0.1687206 α      lambda        0.1061549E-02
   maximum displ.:     0.1350730 α      in ANC's #2, #3, #4, ...

........................................................................
.............................. CYCLE   25 ..............................
........................................................................
   1    -54.3312148 -0.543312E+02  0.694E-02    2.23       0.0  T
   2    -54.3312179 -0.317384E-05  0.409E-02    2.23       1.0  T
   3    -54.3312131  0.487304E-05  0.144E-02    2.23       1.2  T
   4    -54.3312191 -0.605196E-05  0.201E-03    2.23       8.5  T
   5    -54.3312192 -0.105849E-06  0.111E-03    2.23      15.5  T
   6    -54.3312192 -0.129120E-07  0.666E-04    2.23      25.8  T
   7    -54.3312193 -0.812797E-08  0.220E-04    2.23      78.1  T
     SCC iter.                  ...        0 min,  0.793 sec
     gradient                   ...        0 min,  0.175 sec
 * total energy  :   -53.4128609 Eh     change        0.5028355E-03 Eh
   gradient norm :     0.1996923 Eh/α   predicted     0.5458868E-03 (   8.56%)
   displ. norm   :     0.2063393 α      lambda       -0.2576886E-02
   maximum displ.:     0.1705039 α      in ANC's #2, #3, #5, ...

........................................................................
.............................. CYCLE   26 ..............................
........................................................................
   1    -54.3329597 -0.543330E+02  0.633E-02    2.24       0.0  T
   2    -54.3329609 -0.125327E-05  0.372E-02    2.24       1.0  T
   3    -54.3329554  0.549107E-05  0.130E-02    2.24       1.3  T
   4    -54.3329615 -0.609128E-05  0.286E-03    2.24       6.0  T
   5    -54.3329617 -0.222039E-06  0.971E-04    2.24      17.7  T
   6    -54.3329617 -0.127533E-07  0.489E-04    2.24      35.1  T
     SCC iter.                  ...        0 min,  0.699 sec
     gradient                   ...        0 min,  0.180 sec
 * total energy  :   -53.4145831 Eh     change       -0.1722146E-02 Eh
   gradient norm :     0.0485944 Eh/α   predicted    -0.1343282E-02 ( -22.00%)
   displ. norm   :     0.3927140 α      lambda       -0.1516267E-02
   maximum displ.:     0.3222905 α      in ANC's #2, #3, #5, ...

........................................................................
.............................. CYCLE   27 ..............................
........................................................................
   1    -54.3339937 -0.543340E+02  0.118E-01    2.24       0.0  T
   2    -54.3339962 -0.246676E-05  0.696E-02    2.25       1.0  T
   3    -54.3339616  0.345814E-04  0.322E-02    2.24       1.0  T
   4    -54.3339994 -0.378546E-04  0.452E-03    2.25       3.8  T
   5    -54.3340000 -0.580419E-06  0.158E-03    2.25      10.8  T
   6    -54.3340000 -0.248195E-07  0.782E-04    2.25      21.9  T
   7    -54.3340001 -0.420449E-08  0.255E-04    2.25      67.4  T
     SCC iter.                  ...        0 min,  0.858 sec
     gradient                   ...        0 min,  0.158 sec
 * total energy  :   -53.4157630 Eh     change       -0.1179974E-02 Eh
   gradient norm :     0.0485034 Eh/α   predicted    -0.8750833E-03 ( -25.84%)
   displ. norm   :     0.4788853 α      lambda       -0.1500230E-02
   maximum displ.:     0.3883408 α      in ANC's #2, #3, #5, ...

........................................................................
.............................. CYCLE   28 ..............................
........................................................................
   1    -54.3345737 -0.543346E+02  0.152E-01    2.25       0.0  T
   2    -54.3345771 -0.335606E-05  0.891E-02    2.25       1.0  T
   3    -54.3345440  0.330994E-04  0.317E-02    2.25       1.0  T
   4    -54.3345802 -0.361814E-04  0.494E-03    2.25       3.5  T
   5    -54.3345808 -0.675285E-06  0.196E-03    2.25       8.8  T
   6    -54.3345809 -0.308770E-07  0.972E-04    2.25      17.6  T
   7    -54.3345809 -0.966398E-08  0.362E-04    2.25      47.3  T
     SCC iter.                  ...        0 min,  0.855 sec
     gradient                   ...        0 min,  0.157 sec
 * total energy  :   -53.4170930 Eh     change       -0.1329951E-02 Eh
   gradient norm :     0.0719885 Eh/α   predicted    -0.9221359E-03 ( -30.66%)
   displ. norm   :     0.6029689 α      lambda       -0.1881282E-02
   maximum displ.:     0.4976630 α      in ANC's #2, #3, #5, ...

........................................................................
.............................. CYCLE   29 ..............................
........................................................................
   1    -54.3358966 -0.543359E+02  0.189E-01    2.26       0.0  T
   2    -54.3359025 -0.586642E-05  0.111E-01    2.26       1.0  T
   3    -54.3358621  0.403907E-04  0.343E-02    2.25       1.0  T
   4    -54.3359062 -0.441708E-04  0.636E-03    2.26       2.7  T
   5    -54.3359074 -0.110728E-05  0.242E-03    2.26       7.1  T
   6    -54.3359074 -0.585342E-07  0.120E-03    2.26      14.3  T
   7    -54.3359074 -0.121073E-07  0.432E-04    2.26      39.7  T
   8    -54.3359074 -0.183607E-08  0.193E-04    2.26      88.7  T
     SCC iter.                  ...        0 min,  1.110 sec
     gradient                   ...        0 min,  0.161 sec
 * total energy  :   -53.4187808 Eh     change       -0.1687789E-02 Eh
   gradient norm :     0.0514142 Eh/α   predicted    -0.1282630E-02 ( -24.01%)
   displ. norm   :     0.7132490 α      lambda       -0.2110542E-02
   maximum displ.:     0.6152923 α      in ANC's #2, #3, #5, ...

........................................................................
.............................. CYCLE   30 ..............................
........................................................................
   1    -54.3385228 -0.543385E+02  0.219E-01    2.27       0.0  T
   2    -54.3385323 -0.949292E-05  0.128E-01    2.27       1.0  T
   3    -54.3385092  0.231323E-04  0.260E-02    2.26       1.0  T
   4    -54.3385352 -0.260607E-04  0.681E-03    2.27       2.5  T
   5    -54.3385365 -0.125970E-05  0.287E-03    2.27       6.0  T
   6    -54.3385366 -0.123250E-06  0.143E-03    2.27      12.0  T
   7    -54.3385366 -0.154949E-07  0.435E-04    2.27      39.4  T
   8    -54.3385366 -0.193798E-08  0.198E-04    2.27      86.6  T
     SCC iter.                  ...        0 min,  0.919 sec
     gradient                   ...        0 min,  0.150 sec
 * total energy  :   -53.4206195 Eh     change       -0.1838694E-02 Eh
   gradient norm :     0.0163089 Eh/α   predicted    -0.1592098E-02 ( -13.41%)
   displ. norm   :     0.7628128 α      lambda       -0.1975741E-02
   maximum displ.:     0.6795414 α      in ANC's #2, #3, #48, ...

........................................................................
.............................. CYCLE   31 ..............................
........................................................................
   1    -54.3412273 -0.543412E+02  0.232E-01    2.27       0.0  T
   2    -54.3412357 -0.836120E-05  0.136E-01    2.27       1.0  T
   3    -54.3411808  0.549064E-04  0.399E-02    2.26       1.0  T
   4    -54.3412408 -0.599984E-04  0.755E-03    2.27       2.3  T
   5    -54.3412424 -0.160730E-05  0.284E-03    2.27       6.0  T
   6    -54.3412425 -0.102311E-06  0.139E-03    2.27      12.3  T
   7    -54.3412425 -0.138660E-07  0.454E-04    2.27      37.7  T
   8    -54.3412425 -0.191537E-08  0.221E-04    2.27      77.6  T
     SCC iter.                  ...        0 min,  0.980 sec
     gradient                   ...        0 min,  0.157 sec
 * total energy  :   -53.4223224 Eh     change       -0.1702940E-02 Eh
   gradient norm :     0.0134150 Eh/α   predicted    -0.1562679E-02 (  -8.24%)
   displ. norm   :     0.7546930 α      lambda       -0.1788666E-02
   maximum displ.:     0.6820148 α      in ANC's #2, #3, #48, ...

........................................................................
.............................. CYCLE   32 ..............................
........................................................................
   1    -54.3454370 -0.543454E+02  0.220E-01    2.27       0.0  T
   2    -54.3454440 -0.707656E-05  0.129E-01    2.27       1.0  T
   3    -54.3454297  0.143008E-04  0.210E-02    2.27       1.0  T
   4    -54.3454475 -0.177831E-04  0.332E-03    2.27       5.2  T
   5    -54.3454476 -0.598756E-07  0.192E-03    2.27       8.9  T
   6    -54.3454476 -0.196528E-07  0.831E-04    2.27      20.6  T
   7    -54.3454476 -0.582768E-08  0.415E-04    2.27      41.4  T
     SCC iter.                  ...        0 min,  0.907 sec
     gradient                   ...        0 min,  0.148 sec
 * total energy  :   -53.4237240 Eh     change       -0.1401583E-02 Eh
   gradient norm :     0.0214619 Eh/α   predicted    -0.1403695E-02 (   0.15%)
   displ. norm   :     0.7609937 α      lambda       -0.1680435E-02
   maximum displ.:     0.6917035 α      in ANC's #2, #3, #48, ...

........................................................................
.............................. CYCLE   33 ..............................
........................................................................
   1    -54.3442720 -0.543443E+02  0.232E-01    2.27       0.0  T
   2    -54.3442826 -0.106448E-04  0.137E-01    2.27       1.0  T
   3    -54.3441765  0.106147E-03  0.552E-02    2.26       1.0  T
   4    -54.3442914 -0.114964E-03  0.945E-03    2.27       1.8  T
   5    -54.3442941 -0.264116E-05  0.304E-03    2.27       5.6  T
   6    -54.3442942 -0.131591E-06  0.154E-03    2.27      11.2  T
   7    -54.3442942 -0.199579E-07  0.444E-04    2.27      38.6  T
   8    -54.3442942 -0.110457E-08  0.199E-04    2.27      86.2  T
     SCC iter.                  ...        0 min,  0.899 sec
     gradient                   ...        0 min,  0.152 sec
 * total energy  :   -53.4248155 Eh     change       -0.1091551E-02 Eh
   gradient norm :     0.0189316 Eh/α   predicted    -0.1326790E-02 (  21.55%)
   displ. norm   :     0.5487395 α      lambda       -0.1066644E-02
   maximum displ.:     0.4827555 α      in ANC's #2, #4, #6, ...

........................................................................
.............................. CYCLE   34 ..............................
........................................................................
   1    -54.3516237 -0.543516E+02  0.160E-01    2.27       0.0  T
   2    -54.3516321 -0.840320E-05  0.951E-02    2.27       1.0  T
   3    -54.3515560  0.761255E-04  0.527E-02    2.27       1.0  T
   4    -54.3516423 -0.862585E-04  0.773E-03    2.27       2.2  T
   5    -54.3516442 -0.193874E-05  0.245E-03    2.27       7.0  T
   6    -54.3516443 -0.135343E-06  0.122E-03    2.27      14.1  T
   7    -54.3516443 -0.112045E-07  0.437E-04    2.27      39.3  T
   8    -54.3516443 -0.227595E-08  0.171E-04    2.27     100.3  T
     SCC iter.                  ...        0 min,  0.855 sec
     gradient                   ...        0 min,  0.159 sec
 * total energy  :   -53.4255102 Eh     change       -0.6946911E-03 Eh
   gradient norm :     0.0139479 Eh/α   predicted    -0.6939261E-03 (  -0.11%)
   displ. norm   :     0.7097900 α      lambda       -0.1277063E-02
   maximum displ.:     0.6478697 α      in ANC's #2, #3, #52, ...

........................................................................
.............................. CYCLE   35 ..............................
........................................................................
   1    -54.3367025 -0.543367E+02  0.221E-01    2.26       0.0  T
   2    -54.3367489 -0.464564E-04  0.135E-01    2.26       1.0  T
   3    -54.3365395  0.209430E-03  0.901E-02    2.28       1.0  T
   4    -54.3367908 -0.251314E-03  0.188E-02    2.26       1.0  T
   5    -54.3368023 -0.115240E-04  0.389E-03    2.27       4.4  T
   6    -54.3368025 -0.179150E-06  0.218E-03    2.27       7.9  T
   7    -54.3368025 -0.403394E-07  0.963E-04    2.27      17.8  T
   8    -54.3368025 -0.107104E-07  0.335E-04    2.27      51.3  T
     SCC iter.                  ...        0 min,  0.897 sec
     gradient                   ...        0 min,  0.147 sec
 * total energy  :   -53.4255213 Eh     change       -0.1110322E-04 Eh
   gradient norm :     0.0315427 Eh/α   predicted    -0.9602172E-03 (8548.10%)
   displ. norm   :     0.1341138 α      lambda       -0.1375656E-02
   maximum displ.:     0.0714205 α      in ANC's #3, #4, #1, ...

........................................................................
.............................. CYCLE   36 ..............................
........................................................................
   1    -54.3521375 -0.543521E+02  0.815E-02    2.30       0.0  T
   2    -54.3521794 -0.419487E-04  0.557E-02    2.29       1.0  T
   3    -54.3521865 -0.710331E-05  0.334E-02    2.29       1.0  T
   4    -54.3521961 -0.960962E-05  0.178E-02    2.29       1.0  T
   5    -54.3522047 -0.862033E-05  0.232E-03    2.29       7.4  T
   6    -54.3522048 -0.926984E-07  0.121E-03    2.29      14.2  T
   7    -54.3522048 -0.137560E-07  0.583E-04    2.29      29.4  T
   8    -54.3522048 -0.439837E-08  0.234E-04    2.29      73.4  T
     SCC iter.                  ...        0 min,  1.046 sec
     gradient                   ...        0 min,  0.151 sec
 * total energy  :   -53.4261134 Eh     change       -0.5920332E-03 Eh
   gradient norm :     0.0193683 Eh/α   predicted    -0.7002058E-03 (  18.27%)
   displ. norm   :     0.2123481 α      lambda       -0.5286816E-03
   maximum displ.:     0.1783753 α      in ANC's #2, #4, #16, ...

........................................................................
.............................. CYCLE   37 ..............................
........................................................................
   1    -54.3504987 -0.543505E+02  0.843E-02    2.26       0.0  T
   2    -54.3505169 -0.182358E-04  0.537E-02    2.27       1.0  T
   3    -54.3505083  0.859345E-05  0.296E-02    2.26       1.0  T
   4    -54.3505228 -0.144399E-04  0.919E-03    2.27       1.9  T
   5    -54.3505250 -0.218263E-05  0.297E-03    2.26       5.8  T
   6    -54.3505253 -0.319742E-06  0.106E-03    2.27      16.2  T
   7    -54.3505253 -0.750416E-08  0.394E-04    2.27      43.5  T
   8    -54.3505253 -0.189988E-08  0.113E-04    2.27     151.1  T
     SCC iter.                  ...        0 min,  1.079 sec
     gradient                   ...        0 min,  0.152 sec
 * total energy  :   -53.4261164 Eh     change       -0.3085325E-05 Eh
   gradient norm :     0.0202129 Eh/α   predicted    -0.2762640E-03 (8854.13%)
   displ. norm   :     0.1223782 α      lambda       -0.4434378E-03
   maximum displ.:     0.1041803 α      in ANC's #2, #16, #20, ...

........................................................................
.............................. CYCLE   38 ..............................
........................................................................
   1    -54.3515908 -0.543516E+02  0.428E-02    2.27       0.0  T
   2    -54.3515925 -0.163291E-05  0.262E-02    2.27       1.0  T
   3    -54.3515871  0.539183E-05  0.149E-02    2.27       1.2  T
   4    -54.3515935 -0.643869E-05  0.327E-03    2.27       5.2  T
   5    -54.3515938 -0.329444E-06  0.107E-03    2.27      16.0  T
   6    -54.3515939 -0.179956E-07  0.508E-04    2.27      33.8  T
   7    -54.3515939 -0.257675E-08  0.181E-04    2.27      94.7  T
     SCC iter.                  ...        0 min,  0.812 sec
     gradient                   ...        0 min,  0.156 sec
 * total energy  :   -53.4263578 Eh     change       -0.2413645E-03 Eh
   gradient norm :     0.0071378 Eh/α   predicted    -0.2250431E-03 (  -6.76%)
   displ. norm   :     0.1671134 α      lambda       -0.1138961E-03
   maximum displ.:     0.1485629 α      in ANC's #2, #1, #53, ...

........................................................................
.............................. CYCLE   39 ..............................
........................................................................
   1    -54.3515117 -0.543515E+02  0.548E-02    2.29       0.0  T
   2    -54.3515158 -0.407592E-05  0.324E-02    2.28       1.0  T
   3    -54.3515111  0.472469E-05  0.170E-02    2.28       1.0  T
   4    -54.3515171 -0.598381E-05  0.381E-03    2.28       4.5  T
   5    -54.3515175 -0.431164E-06  0.140E-03    2.28      12.3  T
   6    -54.3515176 -0.673138E-07  0.467E-04    2.28      36.7  T
   7    -54.3515176 -0.769411E-09  0.198E-04    2.28      86.6  T
     SCC iter.                  ...        0 min,  0.870 sec
     gradient                   ...        0 min,  0.164 sec
 * total energy  :   -53.4263806 Eh     change       -0.2281072E-04 Eh
   gradient norm :     0.0081893 Eh/α   predicted    -0.5855601E-04 ( 156.70%)
   displ. norm   :     0.1307061 α      lambda       -0.9946686E-04
   maximum displ.:     0.1131101 α      in ANC's #2, #1, #4, ...

........................................................................
.............................. CYCLE   40 ..............................
........................................................................
   1    -54.3514028 -0.543514E+02  0.430E-02    2.28       0.0  T
   2    -54.3514039 -0.108816E-05  0.256E-02    2.28       1.0  T
   3    -54.3514001  0.380141E-05  0.118E-02    2.28       1.5  T
   4    -54.3514043 -0.421966E-05  0.251E-03    2.28       6.8  T
   5    -54.3514045 -0.210730E-06  0.811E-04    2.28      21.1  T
   6    -54.3514045 -0.213486E-07  0.323E-04    2.28      53.1  T
     SCC iter.                  ...        0 min,  0.784 sec
     gradient                   ...        0 min,  0.174 sec
 * total energy  :   -53.4264412 Eh     change       -0.6056199E-04 Eh
   gradient norm :     0.0055890 Eh/α   predicted    -0.5058592E-04 ( -16.47%)
   displ. norm   :     0.0805210 α      lambda       -0.6938622E-04
   maximum displ.:     0.0516521 α      in ANC's #3, #1, #2, ...

........................................................................
.............................. CYCLE   41 ..............................
........................................................................
   1    -54.3553772 -0.543554E+02  0.368E-02    2.27       0.0  T
   2    -54.3553800 -0.274977E-05  0.229E-02    2.27       1.0  T
   3    -54.3553777  0.229541E-05  0.152E-02    2.27       1.1  T
   4    -54.3553818 -0.418425E-05  0.403E-03    2.27       4.3  T
   5    -54.3553823 -0.488542E-06  0.127E-03    2.27      13.5  T
   6    -54.3553824 -0.655964E-07  0.303E-04    2.27      56.6  T
   7    -54.3553824 -0.402956E-09  0.133E-04    2.27     128.6  T
     SCC iter.                  ...        0 min,  0.899 sec
     gradient                   ...        0 min,  0.157 sec
 * total energy  :   -53.4264554 Eh     change       -0.1422470E-04 Eh
   gradient norm :     0.0051129 Eh/α   predicted    -0.3493184E-04 ( 145.57%)
   displ. norm   :     0.1025081 α      lambda       -0.5872540E-04
   maximum displ.:     0.0884534 α      in ANC's #2, #1, #3, ...

........................................................................
.............................. CYCLE   42 ..............................
........................................................................
   1    -54.3532492 -0.543532E+02  0.369E-02    2.27       0.0  T
   2    -54.3532502 -0.102035E-05  0.215E-02    2.27       1.0  T
   3    -54.3532476  0.260844E-05  0.115E-02    2.27       1.5  T
   4    -54.3532508 -0.319658E-05  0.183E-03    2.27       9.4  T
   5    -54.3532509 -0.102492E-06  0.754E-04    2.27      22.8  T
   6    -54.3532509 -0.181937E-07  0.278E-04    2.27      61.6  T
     SCC iter.                  ...        0 min,  0.683 sec
     gradient                   ...        0 min,  0.157 sec
 * total energy  :   -53.4264934 Eh     change       -0.3802834E-04 Eh
   gradient norm :     0.0030909 Eh/α   predicted    -0.2967739E-04 ( -21.96%)
   displ. norm   :     0.0885167 α      lambda       -0.4180165E-04
   maximum displ.:     0.0534047 α      in ANC's #2, #1, #3, ...
 * RMSD in coord.:     1.2546818 α      energy gain  -0.1905808E-01 Eh

generating ANC from model Hessian ...
Using Lindh-Hessian (1995)
 Shifting diagonal of input Hessian by    8.8421447333685600E-003
 Lowest  eigenvalues of input Hessian
    0.000000    0.000000    0.000000    0.000000    0.000000    0.000000
    0.010000    0.010404    0.010648    0.011205    0.012671    0.013883
    0.016787    0.018195    0.019196    0.023677    0.025593    0.025974
 Highest eigenvalues
    2.415990    2.899939    3.346228    5.752450   10.285853   17.208851


........................................................................
.............................. CYCLE   43 ..............................
........................................................................
   1    -54.3507369 -0.543507E+02  0.365E-02    2.27       0.0  T
   2    -54.3507390 -0.212122E-05  0.216E-02    2.27       1.0  T
   3    -54.3507369  0.212658E-05  0.995E-03    2.27       1.7  T
   4    -54.3507390 -0.215700E-05  0.357E-03    2.27       4.8  T
   5    -54.3507395 -0.497312E-06  0.832E-04    2.27      20.6  T
   6    -54.3507396 -0.216029E-07  0.255E-04    2.27      67.3  T
     SCC iter.                  ...        0 min,  0.701 sec
     gradient                   ...        0 min,  0.145 sec
 * total energy  :   -53.4265119 Eh     change       -0.1849114E-04 Eh
   gradient norm :     0.0040245 Eh/α   predicted     0.0000000E+00 (-100.00%)
   displ. norm   :     0.0321464 α      lambda       -0.2934959E-04
   maximum displ.:     0.0195473 α      in ANC's #4, #1, #12, ...

........................................................................
.............................. CYCLE   44 ..............................
........................................................................
   1    -54.3517483 -0.543517E+02  0.144E-02    2.27       0.0  T
   2    -54.3517486 -0.250286E-06  0.888E-03    2.27       1.9  T
   3    -54.3517479  0.694639E-06  0.475E-03    2.27       3.6  T
   4    -54.3517486 -0.755977E-06  0.129E-03    2.27      13.3  T
   5    -54.3517487 -0.571313E-07  0.228E-04    2.27      75.4  T
   6    -54.3517487 -0.654005E-09  0.130E-04    2.27     132.2  T
     SCC iter.                  ...        0 min,  0.668 sec
     gradient                   ...        0 min,  0.148 sec
 * total energy  :   -53.4265325 Eh     change       -0.2059909E-04 Eh
   gradient norm :     0.0019058 Eh/α   predicted    -0.1469215E-04 ( -28.68%)
   displ. norm   :     0.0806129 α      lambda       -0.2034284E-04
   maximum displ.:     0.0533583 α      in ANC's #4, #1, #2, ...

........................................................................
.............................. CYCLE   45 ..............................
........................................................................
   1    -54.3528143 -0.543528E+02  0.312E-02    2.27       0.0  T
   2    -54.3528146 -0.333450E-06  0.186E-02    2.27       1.0  T
   3    -54.3528134  0.124871E-05  0.615E-03    2.27       2.8  T
   4    -54.3528147 -0.134144E-05  0.139E-03    2.27      12.3  T
   5    -54.3528148 -0.608344E-07  0.391E-04    2.27      43.9  T
   6    -54.3528148 -0.230572E-08  0.213E-04    2.27      80.5  T
     SCC iter.                  ...        0 min,  0.658 sec
     gradient                   ...        0 min,  0.152 sec
 * total energy  :   -53.4265483 Eh     change       -0.1581281E-04 Eh
   gradient norm :     0.0056407 Eh/α   predicted    -0.1021526E-04 ( -35.40%)
   displ. norm   :     0.0419826 α      lambda       -0.1423289E-04
   maximum displ.:     0.0274952 α      in ANC's #4, #1, #2, ...

........................................................................
.............................. CYCLE   46 ..............................
........................................................................
   1    -54.3526920 -0.543527E+02  0.150E-02    2.27       0.0  T
   2    -54.3526921 -0.267069E-07  0.879E-03    2.27       1.9  T
   3    -54.3526918  0.228660E-06  0.249E-03    2.27       6.9  T
   4    -54.3526921 -0.246583E-06  0.412E-04    2.27      41.6  T
   5    -54.3526921 -0.524054E-08  0.161E-04    2.27     106.2  T
     SCC iter.                  ...        0 min,  0.672 sec
     gradient                   ...        0 min,  0.151 sec
 * total energy  :   -53.4265579 Eh     change       -0.9529762E-05 Eh
   gradient norm :     0.0055366 Eh/α   predicted    -0.7132232E-05 ( -25.16%)
   displ. norm   :     0.0593047 α      lambda       -0.1867008E-04
   maximum displ.:     0.0391419 α      in ANC's #1, #4, #2, ...

........................................................................
.............................. CYCLE   47 ..............................
........................................................................
   1    -54.3520367 -0.543520E+02  0.210E-02    2.27       0.0  T
   2    -54.3520368 -0.129010E-06  0.125E-02    2.27       1.4  T
   3    -54.3520353  0.150922E-05  0.652E-03    2.27       2.6  T
   4    -54.3520369 -0.164478E-05  0.944E-04    2.27      18.2  T
   5    -54.3520369 -0.296152E-07  0.242E-04    2.27      70.9  T
   6    -54.3520369 -0.994746E-09  0.136E-04    2.27     126.5  T
     SCC iter.                  ...        0 min,  0.669 sec
     gradient                   ...        0 min,  0.156 sec
 * total energy  :   -53.4265686 Eh     change       -0.1077192E-04 Eh
   gradient norm :     0.0078470 Eh/α   predicted    -0.9369549E-05 ( -13.02%)
   displ. norm   :     0.0622512 α      lambda       -0.1663970E-04
   maximum displ.:     0.0421750 α      in ANC's #1, #4, #2, ...

........................................................................
.............................. CYCLE   48 ..............................
........................................................................
   1    -54.3514958 -0.543515E+02  0.216E-02    2.27       0.0  T
   2    -54.3514959 -0.807386E-07  0.128E-02    2.27       1.3  T
   3    -54.3514954  0.527744E-06  0.378E-03    2.27       4.5  T
   4    -54.3514960 -0.565110E-06  0.759E-04    2.27      22.6  T
   5    -54.3514960 -0.188442E-07  0.209E-04    2.27      81.9  T
     SCC iter.                  ...        0 min,  0.600 sec
     gradient                   ...        0 min,  0.161 sec
 * total energy  :   -53.4265767 Eh     change       -0.8069960E-05 Eh
   gradient norm :     0.0037623 Eh/α   predicted    -0.8353393E-05 (   3.51%)
   displ. norm   :     0.0279784 α      lambda       -0.4902066E-05
   maximum displ.:     0.0200313 α      in ANC's #1, #4, #2, ...

........................................................................
.............................. CYCLE   49 ..............................
........................................................................
   1    -54.3516906 -0.543517E+02  0.971E-03    2.27       0.0  T
   2    -54.3516906 -0.258761E-07  0.573E-03    2.27       3.0  T
   3    -54.3516906  0.641632E-07  0.140E-03    2.27      12.2  T
   4    -54.3516906 -0.688570E-07  0.377E-04    2.27      45.5  T
   5    -54.3516906 -0.464769E-08  0.109E-04    2.27     156.9  T
     SCC iter.                  ...        0 min,  0.553 sec
     gradient                   ...        0 min,  0.147 sec
 * total energy  :   -53.4265808 Eh     change       -0.4114733E-05 Eh
   gradient norm :     0.0015761 Eh/α   predicted    -0.2453461E-05 ( -40.37%)
   displ. norm   :     0.0618318 α      lambda       -0.5788150E-05
   maximum displ.:     0.0453849 α      in ANC's #1, #4, #2, ...

........................................................................
.............................. CYCLE   50 ..............................
........................................................................
   1    -54.3522591 -0.543523E+02  0.215E-02    2.27       0.0  T
   2    -54.3522592 -0.102024E-06  0.127E-02    2.27       1.3  T
   3    -54.3522582  0.972223E-06  0.521E-03    2.27       3.3  T
   4    -54.3522592 -0.104161E-05  0.811E-04    2.27      21.1  T
   5    -54.3522593 -0.214975E-07  0.212E-04    2.27      80.8  T
   6    -54.3522593 -0.477328E-09  0.107E-04    2.27     159.6  T
     SCC iter.                  ...        0 min,  0.619 sec
     gradient                   ...        0 min,  0.152 sec
 * total energy  :   -53.4265855 Eh     change       -0.4710237E-05 Eh
   gradient norm :     0.0016060 Eh/α   predicted    -0.2902883E-05 ( -38.37%)
   displ. norm   :     0.0243370 α      lambda       -0.1120269E-05
   maximum displ.:     0.0191630 α      in ANC's #1, #4, #2, ...

........................................................................
.............................. CYCLE   51 ..............................
........................................................................
   1    -54.3521177 -0.543521E+02  0.841E-03    2.27       0.0  T
   2    -54.3521177 -0.710012E-08  0.494E-03    2.27       3.5  T
   3    -54.3521177  0.297984E-07  0.978E-04    2.27      17.5  T
   4    -54.3521177 -0.320047E-07  0.206E-04    2.27      83.2  T
     SCC iter.                  ...        0 min,  0.383 sec
     gradient                   ...        0 min,  0.139 sec
 * total energy  :   -53.4265868 Eh     change       -0.1274845E-05 Eh
   gradient norm :     0.0004673 Eh/α   predicted    -0.5680300E-06 ( -55.44%)
   displ. norm   :     0.0126178 α      lambda       -0.6024802E-06
   maximum displ.:     0.0112390 α      in ANC's #1, #2, #6, ...

   *** GEOMETRY OPTIMIZATION CONVERGED AFTER 51 ITERATIONS ***

------------------------------------------------------------------------
 total energy gain   :        -0.0693378 Eh      -43.5102 kcal/mol
 total RMSD          :         2.0587616 a0        1.0894 Å
 total power (kW/mol):        -3.5695391 (step)   -2.9540 (real)
------------------------------------------------------------------------

 ANCopt (total)                0 d,  0 h,  1 min,  1.628 sec
 optimizer setup                ...        0 min,  0.000 sec (  0.000%)
 model hessian                  ...        0 min,  0.046 sec (  0.074%)
 ANC generation                 ...        0 min,  0.006 sec (  0.010%)
 coordinate transformation      ...        0 min,  0.205 sec (  0.333%)
 single point calculation       ...        0 min, 59.745 sec ( 96.944%)
 optimization log               ...        0 min,  0.008 sec (  0.013%)
 hessian update                 ...        0 min,  1.391 sec (  2.257%)
 rational function              ...        0 min,  0.201 sec (  0.326%)

================
 final structure:
================
34
 xtb: 6.5.0 (97a52f5)
H            0.62156567186907       -1.97381081546130        0.38821342770221
N            0.64867875991104       -0.99408455403540        0.65933461165309
C           -0.55420125618494       -0.38648181033898        0.37757217414733
C           -1.45412583979782       -1.15800880293348       -0.51674157380794
C            1.91974803104932       -0.45431428790575        0.42981377250477
C           -0.97614685404200        0.78573991267546        0.92507938986823
C           -2.25524133963655        1.42311015421868        0.71373527256507
N           -1.18251084865812        2.56430697221269        2.30646572962599
C           -0.29951706896100        1.55590611195980        1.98940987071862
C           -2.33348965054999        2.47564879493917        1.54702949080328
C           -2.23034573592076       -2.19967432600801       -0.02284704967921
C           -1.48786474074635       -0.86114042488144       -1.87431487157991
C           -3.03876248043766       -2.92890781995991       -0.87684460995644
C           -2.29795393409615       -1.59254236523460       -2.72466507760834
C           -3.07333101057786       -2.62679940350836       -2.22787407292147
C            2.13628526740567        0.88059433759148        0.10519990767140
C            3.00715705592639       -1.32582942416106        0.47672196533242
C            3.42216891838716        1.33584349793272       -0.11990809244697
C            4.28755307172876       -0.86136694488592        0.25366162620964
C            4.50286563950459        0.47552977633126       -0.03777394005333
H           -1.00508396335840        3.25545426073721        3.01553766351042
O            0.76996302501162        1.37563516236853        2.53905780897712
H           -2.20263101916843       -2.42740989930767        1.03290691994945
H           -0.88149064871009       -0.05286798323264       -2.25673028579618
H           -3.64332613006746       -3.73429668394802       -0.48672794932221
H           -2.32229285996291       -1.35524186302570       -3.77797208711696
H           -3.70444835728907       -3.19677585143916       -2.89337048688061
H            1.30421416057204        1.55721688378890        0.00464249158604
H            2.84141983413482       -2.37019390654563        0.70400242810000
H            3.57805578474526        2.37563403183536       -0.36682649312083
H            5.12035732532529       -1.54763964252949        0.30211340168397
H           -2.99180557675850        1.10189222088486        0.00454055385856
H           -3.12640622823604        3.18755550516758        1.67852280431085
H            5.50433599758644        0.84031618669658       -0.20890374049179

 Bond Distances (Angstroems)
 ---------------------------
H1-N2=1.0169         N2-H1=1.0169         N2-C3=1.3768         N2-C5=1.3999         C3-N2=1.3768         C3-C4=1.4849         
C3-C6=1.3608         C4-C3=1.4849         C4-C11=1.3898        C4-C12=1.3901        C5-N2=1.3999         C5-C16=1.3908        
C5-C17=1.3943        C6-C3=1.3608         C6-C7=1.4446         C6-C9=1.4778         C7-C6=1.4446         C7-C10=1.3447        
C7-H32=1.0718        N8-C9=1.3773         N8-C10=1.3818        N8-H21=1.0060        C9-C6=1.4778         C9-N8=1.3773         
C9-O22=1.2159        C10-C7=1.3447        C10-N8=1.3818        C10-H33=1.0737       C11-C4=1.3898        C11-C13=1.3837       
C11-H23=1.0804       C12-C4=1.3901        C12-C14=1.3836       C12-H24=1.0804       C13-C11=1.3837       C13-C15=1.3848       
C13-H25=1.0800       C14-C12=1.3836       C14-C15=1.3848       C14-H26=1.0800       C15-C13=1.3848       C15-C14=1.3848       
C15-H27=1.0798       C16-C5=1.3908        C16-C18=1.3825       C16-H28=1.0772       C17-C5=1.3943        C17-C19=1.3802       
C17-H29=1.0816       C18-C16=1.3825       C18-C20=1.3838       C18-H30=1.0800       C19-C17=1.3802       C19-C20=1.3851       
C19-H31=1.0802       C20-C18=1.3838       C20-C19=1.3851       C20-H34=1.0795       H21-N8=1.0060        O22-C9=1.2159        
H23-C11=1.0804       H24-C12=1.0804       H25-C13=1.0800       H26-C14=1.0800       H27-C15=1.0798       H28-C16=1.0772       
H29-C17=1.0816       H30-C18=1.0800       H31-C19=1.0802       H32-C7=1.0718        H33-C10=1.0737       H34-C20=1.0795       
 C  H  Rav=1.0787 sigma=0.0029  Rmin=1.0718  Rmax=1.0816    12
 C  C  Rav=1.3968 sigma=0.0361  Rmin=1.3447  Rmax=1.4849    17
 N  H  Rav=1.0114 sigma=0.0055  Rmin=1.0060  Rmax=1.0169     2
 N  C  Rav=1.3839 sigma=0.0094  Rmin=1.3768  Rmax=1.3999     4
 O  C  Rav=1.2159 sigma=0.0000  Rmin=1.2159  Rmax=1.2159     1

 selected bond angles (degree)
 --------------------
C3-N2-H1=110.32                C5-N2-H1=110.61                C5-N2-C3=126.13                C4-C3-N2=115.05                
C6-C3-N2=124.66                C6-C3-C4=120.13                C11-C4-C3=120.92               C12-C4-C3=119.47               
C12-C4-C11=119.58              C16-C5-N2=123.35               C17-C5-N2=117.49               C17-C5-C16=119.10              
C7-C6-C3=126.56                C9-C6-C3=126.64                C9-C6-C7=106.31                C10-C7-C6=107.83               
H32-C7-C6=124.96               H32-C7-C10=127.20              C10-N8-C9=111.13               H21-N8-C9=123.52               
H21-N8-C10=125.34              N8-C9-C6=104.70                O22-C9-C6=130.62               O22-C9-N8=124.64               
N8-C10-C7=110.02               H33-C10-C7=129.63              H33-C10-N8=120.35              

 selected dihedral angles (degree)
 ---------------------------------
C4-C3-N2-H1=346.03            C4-C3-N2-C5=123.35            C6-C3-N2-H1=161.48            C6-C3-N2-C5=298.79            
C11-C4-C3-N2= 80.13           C11-C4-C3-C6=264.47           C12-C4-C3-N2=262.20           C12-C4-C3-C6= 86.54           
C16-C5-N2-H1=149.42           C16-C5-N2-C3= 12.21           C17-C5-N2-H1=332.26           C17-C5-N2-C3=195.04           
C7-C6-C3-N2=183.48            C7-C6-C3-C4=358.71            C9-C6-C3-N2=354.33            C9-C6-C3-C4=169.56            
C10-C7-C6-C3=173.15           C10-C7-C6-C9=  0.79           H32-C7-C6-C3=352.56           H32-C7-C6-C9=180.20           
N8-C9-C6-C3=186.88            N8-C9-C6-C7=359.23            O22-C9-C6-C3=  4.66           O22-C9-C6-C7=177.01           
C6-C9-N8-C10=  0.50           C6-C9-N8-H21=179.27           O22-C9-N8-C10=182.54          O22-C9-N8-H21=  1.31          
N8-C10-C7-C6=359.49           N8-C10-C7-H32=180.10          H33-C10-C7-C6=179.90          H33-C10-C7-H32=  0.51         
C7-C10-N8-C9=  0.00           C7-C10-N8-H21=181.25          H33-C10-N8-C9=179.63          H33-C10-N8-H21=  0.88         
           -------------------------------------------------
          |                Final Singlepoint                |
           -------------------------------------------------

          ...................................................
          :                      SETUP                      :
          :.................................................:
          :  # basis functions                  94          :
          :  # atomic orbitals                  94          :
          :  # shells                           54          :
          :  # electrons                        98          :
          :  max. iterations                   250          :
          :  Hamiltonian                  GFN2-xTB          :
          :  restarted?                      false          :
          :  GBSA solvation                  false          :
          :  PC potential                    false          :
          :  electronic temp.          300.0000000     K    :
          :  accuracy                    1.0000000          :
          :  -> integral cutoff          0.2500000E+02      :
          :  -> integral neglect         0.1000000E-07      :
          :  -> SCF convergence          0.1000000E-05 Eh   :
          :  -> wf. convergence          0.1000000E-03 e    :
          :  Broyden damping             0.4000000          :
          ...................................................

 iter      E             dE          RMSdq      gap      omega  full diag
   1    -54.3521177 -0.543521E+02  0.667E-05    2.27       0.0  T
   2    -54.3521177 -0.265032E-11  0.491E-05    2.27     349.3  T
   3    -54.3521177 -0.297149E-10  0.320E-05    2.27     535.6  T

   *** convergence criteria satisfied after 3 iterations ***

         #    Occupation            Energy/Eh            Energy/eV
      -------------------------------------------------------------
         1        2.0000           -0.6822383             -18.5646
       ...           ...                  ...                  ...
        43        2.0000           -0.4174380             -11.3591
        44        2.0000           -0.4137302             -11.2582
        45        2.0000           -0.4126158             -11.2278
        46        2.0000           -0.3972340             -10.8093
        47        2.0000           -0.3794060             -10.3242
        48        2.0000           -0.3754459             -10.2164
        49        2.0000           -0.3505185              -9.5381 (HOMO)
        50                         -0.2670232              -7.2661 (LUMO)
        51                         -0.2370749              -6.4511
        52                         -0.2355884              -6.4107
        53                         -0.2149048              -5.8479
        54                         -0.2039904              -5.5509
       ...                                ...                  ...
        94                          0.7532528              20.4971
      -------------------------------------------------------------
                  HL-Gap            0.0834953 Eh            2.2720 eV
             Fermi-level           -0.3087708 Eh           -8.4021 eV

 SCC (total)                   0 d,  0 h,  0 min,  0.617 sec
 SCC setup                      ...        0 min,  0.027 sec (  4.456%)
 Dispersion                     ...        0 min,  0.020 sec (  3.256%)
 classical contributions        ...        0 min,  0.029 sec (  4.766%)
 integral evaluation            ...        0 min,  0.035 sec (  5.651%)
 iterations                     ...        0 min,  0.339 sec ( 55.002%)
 molecular gradient             ...        0 min,  0.153 sec ( 24.824%)
 printout                       ...        0 min,  0.012 sec (  2.022%)

         :::::::::::::::::::::::::::::::::::::::::::::::::::::
         ::                     SUMMARY                     ::
         :::::::::::::::::::::::::::::::::::::::::::::::::::::
         :: total energy             -53.426586815173 Eh    ::
         :: gradient norm              0.000465749517 Eh/a0 ::
         :: HOMO-LUMO gap              2.272021511731 eV    ::
         ::.................................................::
         :: SCC energy               -54.352117733457 Eh    ::
         :: -> isotropic ES            0.044440819152 Eh    ::
         :: -> anisotropic ES          0.006737654798 Eh    ::
         :: -> anisotropic XC          0.027764408126 Eh    ::
         :: -> dispersion             -0.038853837027 Eh    ::
         :: repulsion energy           0.925191387080 Eh    ::
         :: add. restraining           0.000026750244 Eh    ::
         :: total charge              -0.000000000000 e     ::
         :::::::::::::::::::::::::::::::::::::::::::::::::::::

           -------------------------------------------------
          |                Property Printout                |
           -------------------------------------------------

    * Orbital Energies and Occupations

         #    Occupation            Energy/Eh            Energy/eV
      -------------------------------------------------------------
         1        2.0000           -0.6822383             -18.5646
       ...           ...                  ...                  ...
        37        2.0000           -0.4559393             -12.4067
        38        2.0000           -0.4541812             -12.3589
        39        2.0000           -0.4384092             -11.9297
        40        2.0000           -0.4338593             -11.8059
        41        2.0000           -0.4276315             -11.6364
        42        2.0000           -0.4202270             -11.4350
        43        2.0000           -0.4174380             -11.3591
        44        2.0000           -0.4137302             -11.2582
        45        2.0000           -0.4126158             -11.2278
        46        2.0000           -0.3972340             -10.8093
        47        2.0000           -0.3794060             -10.3242
        48        2.0000           -0.3754459             -10.2164
        49        2.0000           -0.3505185              -9.5381 (HOMO)
        50                         -0.2670232              -7.2661 (LUMO)
        51                         -0.2370749              -6.4511
        52                         -0.2355884              -6.4107
        53                         -0.2149048              -5.8479
        54                         -0.2039904              -5.5509
        55                         -0.1681902              -4.5767
        56                         -0.1185814              -3.2268
        57                         -0.1071073              -2.9145
        58                         -0.0807240              -2.1966
        59                          0.0297927               0.8107
        60                          0.0408761               1.1123
       ...                                ...                  ...
        94                          0.7532528              20.4971
      -------------------------------------------------------------
                  HL-Gap            0.0834953 Eh            2.2720 eV
             Fermi-level           -0.3087708 Eh           -8.4021 eV

     #   Z          covCN         q      C6AA      α(0)
     1   1 H        0.860     0.169     1.282     1.774
     2   7 N        2.698    -0.135    23.920     7.264
     3   6 C        2.888     0.077    26.288     8.406
     4   6 C        2.982     0.002    27.968     8.675
     5   6 C        2.907     0.080    26.217     8.396
     6   6 C        3.075    -0.052    29.217     8.862
     7   6 C        2.979    -0.075    29.857     8.963
     8   7 N        2.774    -0.153    24.302     7.322
     9   6 C        2.851     0.268    22.493     7.773
    10   6 C        2.973     0.010    27.789     8.647
    11   6 C        2.923    -0.033    28.824     8.804
    12   6 C        2.924    -0.030    28.746     8.792
    13   6 C        2.919    -0.028    28.692     8.784
    14   6 C        2.919    -0.028    28.690     8.784
    15   6 C        2.920    -0.029    28.729     8.790
    16   6 C        2.921    -0.035    28.868     8.811
    17   6 C        2.927    -0.053    29.308     8.878
    18   6 C        2.921    -0.026    28.647     8.777
    19   6 C        2.920    -0.028    28.705     8.786
    20   6 C        2.919    -0.037    28.932     8.821
    21   1 H        0.860     0.170     1.273     1.767
    22   8 O        0.857    -0.438    22.458     6.354
    23   1 H        0.926     0.035     2.511     2.478
    24   1 H        0.926     0.035     2.522     2.483
    25   1 H        0.926     0.036     2.504     2.475
    26   1 H        0.926     0.036     2.502     2.474
    27   1 H        0.926     0.035     2.516     2.481
    28   1 H        0.926     0.038     2.480     2.463
    29   1 H        0.925     0.026     2.642     2.542
    30   1 H        0.926     0.034     2.535     2.490
    31   1 H        0.926     0.032     2.561     2.503
    32   1 H        0.926     0.031     2.572     2.508
    33   1 H        0.926     0.036     2.501     2.473
    34   1 H        0.926     0.031     2.572     2.508

 Mol. C6AA /au·bohr⁶  :      15848.823345
 Mol. C8AA /au·bohr⁸  :     391451.336532
 Mol. α(0) /au        :        202.104964


Wiberg/Mayer (AO) data.
largest (>0.10) Wiberg bond orders for each atom

 ---------------------------------------------------------------------------
     #   Z sym  total        # sym  WBO       # sym  WBO       # sym  WBO
 ---------------------------------------------------------------------------
     1   1 H    0.971 --     2 N    0.934
     2   7 N    3.453 --     3 C    1.167     5 C    1.071     1 H    0.934
     3   6 C    3.970 --     6 C    1.547     2 N    1.167     4 C    0.996
     4   6 C    3.988 --    11 C    1.404    12 C    1.402     3 C    0.996
                            15 C    0.110
     5   6 C    3.962 --    16 C    1.369    17 C    1.360     2 N    1.071
     6   6 C    3.971 --     3 C    1.547     7 C    1.141     9 C    1.029
     7   6 C    3.977 --    10 C    1.702     6 C    1.141    32 H    0.972
     8   7 N    3.502 --     9 C    1.150    10 C    1.135    21 H    0.942
                            22 O    0.147
     9   6 C    3.947 --    22 O    1.653     8 N    1.150     6 C    1.029
    10   6 C    3.951 --     7 C    1.702     8 N    1.135    33 H    0.969
    11   6 C    3.988 --    13 C    1.444     4 C    1.404    23 H    0.970
                            14 C    0.112
    12   6 C    3.988 --    14 C    1.443     4 C    1.402    24 H    0.970
                            13 C    0.112
    13   6 C    3.991 --    11 C    1.444    15 C    1.439    25 H    0.970
                            12 C    0.112
    14   6 C    3.991 --    12 C    1.443    15 C    1.439    26 H    0.970
                            11 C    0.112
    15   6 C    3.991 --    13 C    1.439    14 C    1.439    27 H    0.971
                             4 C    0.110
    16   6 C    3.990 --    18 C    1.448     5 C    1.369    28 H    0.965
                            19 C    0.105
    17   6 C    3.984 --    19 C    1.461     5 C    1.360    29 H    0.968
                            18 C    0.106
    18   6 C    3.992 --    16 C    1.448    20 C    1.437    30 H    0.971
                            17 C    0.106
    19   6 C    3.991 --    17 C    1.461    20 C    1.425    31 H    0.971
                            16 C    0.105
    20   6 C    3.980 --    18 C    1.437    19 C    1.425    34 H    0.972
    21   1 H    0.970 --     8 N    0.942
    22   8 O    2.009 --     9 C    1.653     8 N    0.147
    23   1 H    0.999 --    11 C    0.970
    24   1 H    0.999 --    12 C    0.970
    25   1 H    0.998 --    13 C    0.970
    26   1 H    0.997 --    14 C    0.970
    27   1 H    0.998 --    15 C    0.971
    28   1 H    0.999 --    16 C    0.965
    29   1 H    0.999 --    17 C    0.968
    30   1 H    0.998 --    18 C    0.971
    31   1 H    0.998 --    19 C    0.971
    32   1 H    0.999 --     7 C    0.972
    33   1 H    0.998 --    10 C    0.969
    34   1 H    0.999 --    20 C    0.972
 ---------------------------------------------------------------------------

Topologies differ in total number of bonds
Writing topology from bond orders to xtbtopo.mol

molecular dipole:
                 x           y           z       tot (Debye)
 q only:       -0.800      -0.536      -0.953
   full:       -1.051      -0.458      -0.996       3.860
molecular quadrupole (traceless):
                xx          xy          yy          xz          yz          zz
 q only:        0.426      -2.884       6.915      -5.362       0.746      -7.341
  q+dip:       -2.113      -2.517      11.801      -6.637       2.681      -9.687
   full:       -2.106      -3.581      10.459      -7.360       2.461      -8.352

           -------------------------------------------------
          |                Geometry Summary                 |
           -------------------------------------------------

      molecular mass/u    :      262.3064921
   center of mass at/Å    :       -0.0182353      -0.0990544       0.2297762
  moments of inertia/u·Å² :        0.1092833E+04   0.1833468E+04   0.2582733E+04
rotational constants/cm⁻¹ :        0.1542563E-01   0.9194398E-02   0.6527051E-02

 * 33 selected distances

     #   Z          #   Z                                           value/Å
     1   1 H        2   7 N                                       1.0169098
     2   7 N        3   6 C                                       1.3767686
     2   7 N        5   6 C                                       1.3998747 (max)
     3   6 C        6   6 C                                       1.3608477
     8   7 N        9   6 C                                       1.3773435
     7   6 C       10   6 C                                       1.3447453
     8   7 N       10   6 C                                       1.3817946
     4   6 C       11   6 C                                       1.3897901
     4   6 C       12   6 C                                       1.3900629
    11   6 C       13   6 C                                       1.3837020
    12   6 C       14   6 C                                       1.3835784
    13   6 C       15   6 C                                       1.3848269
    14   6 C       15   6 C                                       1.3848101
     5   6 C       16   6 C                                       1.3907710
     5   6 C       17   6 C                                       1.3943449
    16   6 C       18   6 C                                       1.3825421
    17   6 C       19   6 C                                       1.3801796
    18   6 C       20   6 C                                       1.3837599
    19   6 C       20   6 C                                       1.3851308
     8   7 N       21   1 H                                       1.0059563 (min)
     9   6 C       22   8 O                                       1.2158941
    11   6 C       23   1 H                                       1.0803926
    12   6 C       24   1 H                                       1.0803868
    13   6 C       25   1 H                                       1.0799721
    14   6 C       26   1 H                                       1.0799814
    15   6 C       27   1 H                                       1.0798463
    16   6 C       28   1 H                                       1.0771594
    17   6 C       29   1 H                                       1.0815834
    18   6 C       30   1 H                                       1.0800157
    19   6 C       31   1 H                                       1.0802226
     7   6 C       32   1 H                                       1.0717580
    10   6 C       33   1 H                                       1.0736939
    20   6 C       34   1 H                                       1.0794895

 * 5 distinct bonds (by element types)

   Z      Z             #   av. dist./Å        max./Å        min./Å
   1 H    6 C          12     1.0787085     1.0815834     1.0717580
   6 C    6 C          14     1.3813637     1.3943449     1.3447453
   1 H    7 N           2     1.0114331     1.0169098     1.0059563
   6 C    7 N           4     1.3839453     1.3998747     1.3767686
   6 C    8 O           1     1.2158941     1.2158941     1.2158941


optimized geometry written to: xtbopt.xyz


           -------------------------------------------------
          | TOTAL ENERGY              -53.426586815173 Eh   |
          | GRADIENT NORM               0.000465749517 Eh/α |
          | HOMO-LUMO GAP               2.272021511731 eV   |
           -------------------------------------------------
########################################################################
[WARNING] Runtime exception occurred
-1- restart_readRestart: Number of electron missmatch in restart file.
########################################################################

------------------------------------------------------------------------
 * finished run on 2023/11/18 at 09:10:44.315     
------------------------------------------------------------------------
 total:
 * wall-time:     0 d,  0 h,  1 min,  3.837 sec
 *  cpu-time:     0 d,  0 h, 55 min, 20.532 sec
 * ratio c/w:    52.016 speedup
 SCF:
 * wall-time:     0 d,  0 h,  0 min,  1.439 sec
 *  cpu-time:     0 d,  0 h,  1 min, 14.803 sec
 * ratio c/w:    51.978 speedup
 ANC optimizer:
 * wall-time:     0 d,  0 h,  1 min,  2.253 sec
 *  cpu-time:     0 d,  0 h, 53 min, 58.309 sec
 * ratio c/w:    52.018 speedup

