Generated by Psi4
        SP                           RHF                         MINIX
Number of atoms                            I               30
Charge                                     I                0
Multiplicity                               I                1
Number of electrons                        I              104
Number of alpha electrons                  I               52
Number of beta electrons                   I               52
Number of basis functions                  I               86
Number of independent functions            I               86
Atomic numbers                             I   N=          30
           7           6           6           7           8           1
           1           6           6           6           6           6
           6           6           6           6           1           1
           1           1           1           1           1           1
           1           1           1           1           1           1
Nuclear charges                            R   N=          30
  7.00000000e+00  6.00000000e+00  6.00000000e+00  7.00000000e+00  8.00000000e+00
  1.00000000e+00  1.00000000e+00  6.00000000e+00  6.00000000e+00  6.00000000e+00
  6.00000000e+00  6.00000000e+00  6.00000000e+00  6.00000000e+00  6.00000000e+00
  6.00000000e+00  1.00000000e+00  1.00000000e+00  1.00000000e+00  1.00000000e+00
  1.00000000e+00  1.00000000e+00  1.00000000e+00  1.00000000e+00  1.00000000e+00
  1.00000000e+00  1.00000000e+00  1.00000000e+00  1.00000000e+00  1.00000000e+00
Current cartesian coordinates              R   N=          90
 -5.64791693e-01 -1.02165787e+00  1.06022368e+00  1.77884665e+00 -1.23660011e-01
  1.62981713e-01  4.06371451e+00 -4.28472835e-01  1.98089825e+00  6.31683497e+00
  9.20791619e-01  1.02450785e+00  2.10142290e+00  9.25704907e-01 -1.89719771e+00
  4.48228884e+00 -2.45595999e+00  2.06272339e+00  3.58013359e+00  2.65245626e-01
  3.86986848e+00 -2.87309215e+00 -6.90766821e-01 -3.68031328e-01 -7.47740986e+00
 -1.51897309e-02 -3.12589764e+00 -7.49385048e+00 -3.60631667e-01 -5.12406404e-01
 -5.14170837e+00 -1.16101106e-01 -4.35289681e+00 -5.23487187e+00 -6.70735724e-01
  8.43472091e-01 -2.88272976e+00 -4.29606670e-01 -2.99928599e+00 -8.13479651e-01
 -2.16456423e+00  3.57091381e+00  6.09195756e+00  3.68432710e+00  1.14715108e+00
  8.68503975e+00  6.81471912e-02  2.19897264e+00 -9.26376797e+00 -3.70836188e-01
  5.25431184e-01 -5.04533234e+00  3.77226006e-02 -6.39965918e+00 -5.40627003e+00
 -8.43456692e-01  2.88040788e+00 -1.15816570e+00 -5.37510032e-01 -4.10401988e+00
  9.36028796e-01 -3.07749092e+00  4.17203569e+00 -2.25590760e+00 -3.64762129e+00
  3.56165415e+00 -1.29233625e+00 -6.86042505e-01  4.93510710e+00  6.24804893e+00
  4.31473974e+00  3.11870235e+00  4.25438787e+00  4.36292776e+00  4.79321866e-01
  9.15539258e+00 -1.79474482e+00  1.42210623e+00  8.45846158e+00 -1.75816452e-01
  4.24611295e+00 -9.12770769e+00  3.02851176e-01 -4.11535824e+00  7.56575496e+00
  4.41772981e+00 -2.69357627e-02  1.01153735e+01  1.44897007e+00  1.83047605e+00
Integer atomic weights                     I   N=          30
          14          12          12          14          16           1
           1          12          12          12          12          12
          12          12          12          12           1           1
           1           1           1           1           1           1
           1           1           1           1           1           1
Real atomic weights                        R   N=          30
  1.40030740e+01  1.20000000e+01  1.20000000e+01  1.40030740e+01  1.59949146e+01
  1.00782503e+00  1.00782503e+00  1.20000000e+01  1.20000000e+01  1.20000000e+01
  1.20000000e+01  1.20000000e+01  1.20000000e+01  1.20000000e+01  1.20000000e+01
  1.20000000e+01  1.00782503e+00  1.00782503e+00  1.00782503e+00  1.00782503e+00
  1.00782503e+00  1.00782503e+00  1.00782503e+00  1.00782503e+00  1.00782503e+00
  1.00782503e+00  1.00782503e+00  1.00782503e+00  1.00782503e+00  1.00782503e+00
Number of primitive shells                 I              174
Number of contracted shells                I               58
Pure/Cartesian d shells                    I                0
Pure/Cartesian f shells                    I                0
Highest angular momentum                   I                1
Largest degree of contraction              I                3
Shell types                                I   N=          58
           0           0           1           0           0           1
           0           0           1           0           0           1
           0           0           1           0           0           0
           0           1           0           0           1           0
           0           1           0           0           1           0
           0           1           0           0           1           0
           0           1           0           0           1           0
           0           1           0           0           0           0
           0           0           0           0           0           0
           0           0           0           0
Number of primitives per shell             I   N=          58
           3           3           3           3           3           3
           3           3           3           3           3           3
           3           3           3           3           3           3
           3           3           3           3           3           3
           3           3           3           3           3           3
           3           3           3           3           3           3
           3           3           3           3           3           3
           3           3           3           3           3           3
           3           3           3           3           3           3
           3           3           3           3
Shell to atom map                          I   N=          58
           1           1           1           2           2           2
           3           3           3           4           4           4
           5           5           5           6           7           8
           8           8           9           9           9          10
          10          10          11          11          11          12
          12          12          13          13          13          14
          14          14          15          15          15          16
          16          16          17          18          19          20
          21          22          23          24          25          26
          27          28          29          30
Primitive exponents                        R   N=         174
  2.18364490e+02  3.25988900e+01  6.91739000e+00  8.91942600e+00  7.06141000e-01
  2.25054000e-01  6.55627200e+00  1.34907900e+00  3.12209000e-01  1.53172260e+02
  2.30730300e+01  4.92329000e+00  6.61661200e+00  5.25856000e-01  1.69958000e-01
  4.91292000e+00  9.97616000e-01  2.32685000e-01  1.53172260e+02  2.30730300e+01
  4.92329000e+00  6.61661200e+00  5.25856000e-01  1.69958000e-01  4.91292000e+00
  9.97616000e-01  2.32685000e-01  2.18364490e+02  3.25988900e+01  6.91739000e+00
  8.91942600e+00  7.06141000e-01  2.25054000e-01  6.55627200e+00  1.34907900e+00
  3.12209000e-01  2.81866580e+02  4.24160000e+01  9.09562000e+00  1.17893260e+01
  9.12894000e-01  2.86661000e-01  8.27414000e+00  1.71546300e+00  3.83013000e-01
  7.03406300e+00  1.06475600e+00  2.36559000e-01  7.03406300e+00  1.06475600e+00
  2.36559000e-01  1.53172260e+02  2.30730300e+01  4.92329000e+00  6.61661200e+00
  5.25856000e-01  1.69958000e-01  4.91292000e+00  9.97616000e-01  2.32685000e-01
  1.53172260e+02  2.30730300e+01  4.92329000e+00  6.61661200e+00  5.25856000e-01
  1.69958000e-01  4.91292000e+00  9.97616000e-01  2.32685000e-01  1.53172260e+02
  2.30730300e+01  4.92329000e+00  6.61661200e+00  5.25856000e-01  1.69958000e-01
  4.91292000e+00  9.97616000e-01  2.32685000e-01  1.53172260e+02  2.30730300e+01
  4.92329000e+00  6.61661200e+00  5.25856000e-01  1.69958000e-01  4.91292000e+00
  9.97616000e-01  2.32685000e-01  1.53172260e+02  2.30730300e+01  4.92329000e+00
  6.61661200e+00  5.25856000e-01  1.69958000e-01  4.91292000e+00  9.97616000e-01
  2.32685000e-01  1.53172260e+02  2.30730300e+01  4.92329000e+00  6.61661200e+00
  5.25856000e-01  1.69958000e-01  4.91292000e+00  9.97616000e-01  2.32685000e-01
  1.53172260e+02  2.30730300e+01  4.92329000e+00  6.61661200e+00  5.25856000e-01
  1.69958000e-01  4.91292000e+00  9.97616000e-01  2.32685000e-01  1.53172260e+02
  2.30730300e+01  4.92329000e+00  6.61661200e+00  5.25856000e-01  1.69958000e-01
  4.91292000e+00  9.97616000e-01  2.32685000e-01  1.53172260e+02  2.30730300e+01
  4.92329000e+00  6.61661200e+00  5.25856000e-01  1.69958000e-01  4.91292000e+00
  9.97616000e-01  2.32685000e-01  7.03406300e+00  1.06475600e+00  2.36559000e-01
  7.03406300e+00  1.06475600e+00  2.36559000e-01  7.03406300e+00  1.06475600e+00
  2.36559000e-01  7.03406300e+00  1.06475600e+00  2.36559000e-01  7.03406300e+00
  1.06475600e+00  2.36559000e-01  7.03406300e+00  1.06475600e+00  2.36559000e-01
  7.03406300e+00  1.06475600e+00  2.36559000e-01  7.03406300e+00  1.06475600e+00
  2.36559000e-01  7.03406300e+00  1.06475600e+00  2.36559000e-01  7.03406300e+00
  1.06475600e+00  2.36559000e-01  7.03406300e+00  1.06475600e+00  2.36559000e-01
  7.03406300e+00  1.06475600e+00  2.36559000e-01  7.03406300e+00  1.06475600e+00
  2.36559000e-01  7.03406300e+00  1.06475600e+00  2.36559000e-01
Contraction coefficients                   R   N=         174
  6.78700100e-02  3.90202057e-01  6.70083099e-01 -8.08899713e-02  5.67201799e-01
  5.11091818e-01  1.15918975e-01  4.69957900e-01  6.18447868e-01  7.07400095e-02
  3.95380053e-01  6.63311089e-01 -8.13799884e-02  5.74852918e-01  5.02412928e-01
  1.09930928e-01  4.62712695e-01  6.27513586e-01  7.07400095e-02  3.95380053e-01
  6.63311089e-01 -8.13799884e-02  5.74852918e-01  5.02412928e-01  1.09930928e-01
  4.62712695e-01  6.27513586e-01  6.78700100e-02  3.90202057e-01  6.70083099e-01
 -8.08899713e-02  5.67201799e-01  5.11091818e-01  1.15918975e-01  4.69957900e-01
  6.18447868e-01  6.90600291e-02  3.93159166e-01  6.65669281e-01 -8.08199297e-02
  5.82089494e-01  4.97159568e-01  1.24271003e-01  4.76594010e-01  6.13044013e-01
  7.04520124e-02  4.07826072e-01  6.47752114e-01  7.04520124e-02  4.07826072e-01
  6.47752114e-01  7.07400095e-02  3.95380053e-01  6.63311089e-01 -8.13799884e-02
  5.74852918e-01  5.02412928e-01  1.09930928e-01  4.62712695e-01  6.27513586e-01
  7.07400095e-02  3.95380053e-01  6.63311089e-01 -8.13799884e-02  5.74852918e-01
  5.02412928e-01  1.09930928e-01  4.62712695e-01  6.27513586e-01  7.07400095e-02
  3.95380053e-01  6.63311089e-01 -8.13799884e-02  5.74852918e-01  5.02412928e-01
  1.09930928e-01  4.62712695e-01  6.27513586e-01  7.07400095e-02  3.95380053e-01
  6.63311089e-01 -8.13799884e-02  5.74852918e-01  5.02412928e-01  1.09930928e-01
  4.62712695e-01  6.27513586e-01  7.07400095e-02  3.95380053e-01  6.63311089e-01
 -8.13799884e-02  5.74852918e-01  5.02412928e-01  1.09930928e-01  4.62712695e-01
  6.27513586e-01  7.07400095e-02  3.95380053e-01  6.63311089e-01 -8.13799884e-02
  5.74852918e-01  5.02412928e-01  1.09930928e-01  4.62712695e-01  6.27513586e-01
  7.07400095e-02  3.95380053e-01  6.63311089e-01 -8.13799884e-02  5.74852918e-01
  5.02412928e-01  1.09930928e-01  4.62712695e-01  6.27513586e-01  7.07400095e-02
  3.95380053e-01  6.63311089e-01 -8.13799884e-02  5.74852918e-01  5.02412928e-01
  1.09930928e-01  4.62712695e-01  6.27513586e-01  7.07400095e-02  3.95380053e-01
  6.63311089e-01 -8.13799884e-02  5.74852918e-01  5.02412928e-01  1.09930928e-01
  4.62712695e-01  6.27513586e-01  7.04520124e-02  4.07826072e-01  6.47752114e-01
  7.04520124e-02  4.07826072e-01  6.47752114e-01  7.04520124e-02  4.07826072e-01
  6.47752114e-01  7.04520124e-02  4.07826072e-01  6.47752114e-01  7.04520124e-02
  4.07826072e-01  6.47752114e-01  7.04520124e-02  4.07826072e-01  6.47752114e-01
  7.04520124e-02  4.07826072e-01  6.47752114e-01  7.04520124e-02  4.07826072e-01
  6.47752114e-01  7.04520124e-02  4.07826072e-01  6.47752114e-01  7.04520124e-02
  4.07826072e-01  6.47752114e-01  7.04520124e-02  4.07826072e-01  6.47752114e-01
  7.04520124e-02  4.07826072e-01  6.47752114e-01  7.04520124e-02  4.07826072e-01
  6.47752114e-01  7.04520124e-02  4.07826072e-01  6.47752114e-01
Coordinates of each shell                  R   N=         174
 -5.64791693e-01 -1.02165787e+00  1.06022368e+00 -5.64791693e-01 -1.02165787e+00
  1.06022368e+00 -5.64791693e-01 -1.02165787e+00  1.06022368e+00  1.77884665e+00
 -1.23660011e-01  1.62981713e-01  1.77884665e+00 -1.23660011e-01  1.62981713e-01
  1.77884665e+00 -1.23660011e-01  1.62981713e-01  4.06371451e+00 -4.28472835e-01
  1.98089825e+00  4.06371451e+00 -4.28472835e-01  1.98089825e+00  4.06371451e+00
 -4.28472835e-01  1.98089825e+00  6.31683497e+00  9.20791619e-01  1.02450785e+00
  6.31683497e+00  9.20791619e-01  1.02450785e+00  6.31683497e+00  9.20791619e-01
  1.02450785e+00  2.10142290e+00  9.25704907e-01 -1.89719771e+00  2.10142290e+00
  9.25704907e-01 -1.89719771e+00  2.10142290e+00  9.25704907e-01 -1.89719771e+00
  4.48228884e+00 -2.45595999e+00  2.06272339e+00  3.58013359e+00  2.65245626e-01
  3.86986848e+00 -2.87309215e+00 -6.90766821e-01 -3.68031328e-01 -2.87309215e+00
 -6.90766821e-01 -3.68031328e-01 -2.87309215e+00 -6.90766821e-01 -3.68031328e-01
 -7.47740986e+00 -1.51897309e-02 -3.12589764e+00 -7.47740986e+00 -1.51897309e-02
 -3.12589764e+00 -7.47740986e+00 -1.51897309e-02 -3.12589764e+00 -7.49385048e+00
 -3.60631667e-01 -5.12406404e-01 -7.49385048e+00 -3.60631667e-01 -5.12406404e-01
 -7.49385048e+00 -3.60631667e-01 -5.12406404e-01 -5.14170837e+00 -1.16101106e-01
 -4.35289681e+00 -5.14170837e+00 -1.16101106e-01 -4.35289681e+00 -5.14170837e+00
 -1.16101106e-01 -4.35289681e+00 -5.23487187e+00 -6.70735724e-01  8.43472091e-01
 -5.23487187e+00 -6.70735724e-01  8.43472091e-01 -5.23487187e+00 -6.70735724e-01
  8.43472091e-01 -2.88272976e+00 -4.29606670e-01 -2.99928599e+00 -2.88272976e+00
 -4.29606670e-01 -2.99928599e+00 -2.88272976e+00 -4.29606670e-01 -2.99928599e+00
 -8.13479651e-01 -2.16456423e+00  3.57091381e+00 -8.13479651e-01 -2.16456423e+00
  3.57091381e+00 -8.13479651e-01 -2.16456423e+00  3.57091381e+00  6.09195756e+00
  3.68432710e+00  1.14715108e+00  6.09195756e+00  3.68432710e+00  1.14715108e+00
  6.09195756e+00  3.68432710e+00  1.14715108e+00  8.68503975e+00  6.81471912e-02
  2.19897264e+00  8.68503975e+00  6.81471912e-02  2.19897264e+00  8.68503975e+00
  6.81471912e-02  2.19897264e+00 -9.26376797e+00 -3.70836188e-01  5.25431184e-01
 -5.04533234e+00  3.77226006e-02 -6.39965918e+00 -5.40627003e+00 -8.43456692e-01
  2.88040788e+00 -1.15816570e+00 -5.37510032e-01 -4.10401988e+00  9.36028796e-01
 -3.07749092e+00  4.17203569e+00 -2.25590760e+00 -3.64762129e+00  3.56165415e+00
 -1.29233625e+00 -6.86042505e-01  4.93510710e+00  6.24804893e+00  4.31473974e+00
  3.11870235e+00  4.25438787e+00  4.36292776e+00  4.79321866e-01  9.15539258e+00
 -1.79474482e+00  1.42210623e+00  8.45846158e+00 -1.75816452e-01  4.24611295e+00
 -9.12770769e+00  3.02851176e-01 -4.11535824e+00  7.56575496e+00  4.41772981e+00
 -2.69357627e-02  1.01153735e+01  1.44897007e+00  1.83047605e+00
Total Energy                               R     -6.054300505147431e+02
Alpha Orbital Energies                     R   N=          86
 -2.02977662e+01 -1.54520296e+01 -1.53758231e+01 -1.13171923e+01 -1.12342466e+01
 -1.12179021e+01 -1.12090007e+01 -1.11800301e+01 -1.11755472e+01 -1.11722713e+01
 -1.11702742e+01 -1.11683427e+01 -1.11678763e+01 -1.11639307e+01 -1.37113343e+00
 -1.24294365e+00 -1.21201259e+00 -1.14556622e+00 -1.02710592e+00 -1.01295888e+00
 -9.86520499e-01 -9.50311084e-01 -9.48858786e-01 -8.51453270e-01 -8.21051319e-01
 -8.04350462e-01 -7.44322311e-01 -6.95202713e-01 -6.84269134e-01 -6.67740860e-01
 -6.53158554e-01 -6.34412844e-01 -6.32393235e-01 -6.16061951e-01 -6.07802507e-01
 -5.89965200e-01 -5.75617780e-01 -5.60012557e-01 -5.53015846e-01 -5.50734057e-01
 -5.35281134e-01 -5.34153845e-01 -5.08601389e-01 -5.03287891e-01 -4.98222873e-01
 -4.89466895e-01 -4.80878688e-01 -4.03210713e-01 -3.88186636e-01 -3.41963565e-01
 -3.32903301e-01 -3.07128001e-01  1.78687879e-01  1.89199711e-01  2.44988872e-01
  4.27737255e-01  4.45755902e-01  5.07017784e-01  5.17452295e-01  5.45834278e-01
  5.81529924e-01  5.97042092e-01  6.18399033e-01  6.48678871e-01  6.56089336e-01
  6.62947133e-01  6.67638124e-01  6.81993201e-01  6.85632085e-01  6.94718983e-01
  7.06134477e-01  7.10310760e-01  7.22485612e-01  7.33668224e-01  7.43587895e-01
  7.59839147e-01  7.65464358e-01  7.93731766e-01  8.10286243e-01  8.51117607e-01
  8.66969697e-01  8.81012748e-01  9.18547364e-01  9.51213683e-01  1.04976677e+00
  1.11968162e+00
Alpha MO coefficients                      R   N=        7396
  2.36787589e-05  3.04592749e-04  6.42902523e-04 -4.17823244e-04  1.14238118e-03
 -8.02215499e-04  1.48050964e-02  1.98650659e-03  6.55042749e-03 -1.28698001e-02
  8.51512293e-06  2.33763995e-04 -8.03969826e-04 -5.43213553e-04  6.60238858e-04
 -6.93632637e-06  1.76456386e-04 -1.25770158e-04 -1.07895859e-04 -8.83307685e-06
 -9.90383982e-01 -4.91367205e-02  1.62130134e-03  4.94109889e-03 -9.61936425e-03
 -1.48183011e-04 -1.21605637e-04  4.63976920e-06  3.62721924e-05  7.88565438e-05
 -6.71948945e-05  1.59697983e-04  7.47849944e-07 -1.36543610e-05 -9.82361152e-06
  8.81343618e-06 -1.07373129e-07 -2.46066415e-07 -6.28433070e-07  2.99503077e-06
 -1.47194764e-06 -3.51099172e-06 -3.40330701e-06  1.26647464e-04  3.96301370e-05
 -6.75257487e-05  3.96555510e-05  1.36126667e-06 -1.99637596e-05 -1.66238702e-05
 -2.08932795e-06 -1.26687567e-05  2.05758232e-06 -3.12055035e-04  4.41314763e-05
  2.15738439e-04  3.75382096e-04 -2.18793507e-05 -1.34517314e-04  3.42321939e-04
  1.04803664e-04  2.19908344e-05 -6.05778325e-07 -9.36241630e-05  1.15271288e-04
 -1.24051691e-04 -1.46449588e-04 -1.94082006e-06  2.24985652e-05 -2.87388921e-05
 -2.33172107e-06  1.40151454e-05  1.49210705e-06 -3.10800659e-06  1.54116529e-05
  1.07077679e-03  1.05347254e-05  1.42196252e-04 -3.83557232e-07  7.54833420e-05
  3.60945443e-04  1.94336592e-06 -8.58763976e-06 -8.56767098e-07 -6.48690665e-05
  5.40692394e-06  9.89018454e-01  5.85734912e-02  2.72398892e-04  7.38552116e-04
 -2.42811411e-04  5.79337358e-04 -1.04980621e-02  8.74639130e-03  3.25691868e-03
 -3.20053855e-03  1.08420674e-06 -2.06293789e-04 -2.65373883e-04 -2.38018405e-04
  4.86518206e-04 -2.88505342e-04  3.19271724e-05  1.44022675e-04 -4.15073998e-05
  1.49488610e-04 -5.37720384e-06 -1.96061117e-04 -9.97353131e-04 -1.58005657e-04
 -6.31149555e-05  9.82456254e-05  5.75896101e-05  5.48109548e-04 -9.29499661e-03
 -8.04786188e-03  1.07792522e-03 -4.88716927e-03  4.55496888e-06  7.26313953e-05
 -5.80468607e-05  8.13174655e-06 -3.62917504e-05  1.01385223e-05  1.66536598e-04
 -1.03717580e-04  1.02253473e-05  1.53782702e-04  1.07972042e-05  1.45147110e-04
  7.77993656e-05 -8.70685560e-06 -1.79528557e-04 -8.56904046e-06 -3.50588465e-04
  2.37870044e-04 -2.00995160e-04  7.98827571e-04 -7.96225552e-06 -3.47402279e-04
  8.14488794e-04  4.08393057e-05 -1.87297090e-04  5.70913829e-04 -9.32423705e-03
 -9.02001240e-04 -3.45919092e-03  7.74084523e-03  1.61092530e-06  1.66032224e-05
  1.61307319e-05  1.73049170e-05  1.46396504e-05  1.27369251e-06 -5.28071307e-05
  2.53738354e-05 -2.87822741e-05  7.56509522e-06 -1.01458759e-04 -1.03436731e-04
 -4.30712232e-05 -1.23685402e-04  1.12340146e-04  8.14842639e-05 -1.49033566e-04
 -7.46956312e-06 -2.10165814e-05  9.18660602e-07  9.16705821e-07 -5.48485913e-05
 -2.31928130e-06  8.19515036e-06 -3.15420654e-04 -4.23659834e-05  1.46572548e-04
  1.06255071e-05  5.65764191e-05 -1.06904879e-05  7.53051298e-05  8.90778261e-06
 -2.82729241e-04  2.17975677e-04 -5.60156700e-04  9.33714176e-03  7.13840178e-03
  4.19249547e-03 -2.72323273e-03 -9.89165478e-01 -5.67564449e-02  2.56708532e-04
 -1.55169158e-03 -6.13736268e-03 -3.23246527e-05  1.27355675e-04  1.55266458e-04
  1.38637476e-05  3.99847717e-05 -2.37226336e-04 -1.08319960e-04 -1.90515986e-06
  5.13187713e-05  3.66653682e-05 -6.02766339e-06  2.54677931e-05 -1.44099540e-08
 -5.25171141e-07  8.95649636e-08  5.96270860e-08  1.27384516e-07 -1.00642558e-07
  7.62445037e-07  1.45381862e-06  1.24600563e-07 -2.65330723e-07 -1.01625797e-07
  1.84392147e-06  5.93141383e-07 -1.31543640e-06  1.72033998e-06  1.28596027e-07
 -2.56849915e-06  3.13054615e-07 -5.80961611e-07 -2.58071541e-06 -1.21076838e-07
 -2.52525091e-07  1.38739271e-06  4.17195933e-06  4.45411651e-06 -9.07221709e-06
 -2.43499336e-05  1.52793888e-04  1.54302080e-04 -8.68623806e-05 -5.67081466e-04
  9.65205923e-03  6.22136648e-04 -8.61956317e-03 -2.65918924e-04 -5.70726707e-04
  9.71774447e-03 -7.35492730e-03  2.75719673e-03 -3.54501783e-03  4.31770184e-07
  4.45206789e-07  4.64975808e-06  7.34816875e-06  2.73212202e-04  8.65456224e-05
 -1.47401159e-05 -9.42315006e-05 -1.60352062e-04 -5.68064108e-05 -1.12455505e-04
  2.49313739e-07 -1.25679515e-04 -3.69220887e-04 -9.67615491e-04  8.85686373e-03
  5.83484537e-03  2.33042081e-03 -2.46679792e-03 -9.89226419e-01 -5.42426495e-02
  9.35566915e-05 -2.42547218e-04 -3.92675101e-05  9.68690990e-03  9.72209745e-03
 -5.97619150e-03  1.04228241e-03 -5.08088058e-03 -4.45695631e-05 -2.81968859e-05
 -9.00713727e-05 -4.35589551e-05 -1.39061516e-04 -6.58974513e-04  1.03942899e-02
 -7.35460945e-04 -1.84987475e-03  3.60435457e-03  5.82367523e-04  4.32018306e-04
  2.52915335e-03  8.39996391e-04  1.16025416e-03  1.95937244e-04  1.30616036e-04
  1.58306050e-06 -2.25713242e-05 -6.09490076e-07  8.40260926e-11  4.80872882e-06
  1.85691546e-05 -1.05915269e-06  1.98559629e-05  8.23161359e-06 -7.85397244e-06
  1.11266630e-04  2.31745670e-04  8.69719753e-05 -5.03597991e-05  1.08375932e-04
  1.50341306e-04  2.31763441e-04  1.02462312e-04 -6.93332654e-05 -1.08177482e-04
  4.58962862e-04 -1.55792394e-05  4.62249621e-04  4.96283273e-05  3.50075715e-04
  1.77433451e-03  8.98698195e-04  3.99110000e-04  4.26787784e-04 -7.08390552e-04
  2.11210654e-04 -1.49380112e-04 -8.63498811e-05 -3.35035040e-04 -9.00244493e-06
  2.29828611e-04  1.47937741e-04 -2.63576515e-04 -7.98633935e-05  7.95656463e-05
  1.05688202e-05  9.71013502e-06 -3.54676816e-06  5.02794320e-04  2.69689602e-05
  9.61882652e-05  1.50693718e-07  1.17304734e-05  8.33236772e-04 -3.62311950e-05
  3.05477120e-05  7.74328450e-06  5.79363113e-05  7.74483928e-05 -9.53711342e-04
  7.97274547e-03 -5.44191764e-03  7.56202128e-04 -3.48807689e-03 -2.74239446e-03
  7.98295356e-04 -1.02510457e-03 -1.55205205e-06 -1.41058072e-04  1.12134385e-03
  2.70579179e-04 -1.26710302e-04 -2.60838750e-05 -1.03723326e-04 -3.15378082e-06
  6.76131617e-06 -1.59499416e-05  1.43571110e-07 -5.32325895e-06 -2.52810899e-06
 -7.53882369e-05 -3.10105555e-05  7.30069329e-05 -7.84548857e-05 -4.01536556e-05
 -2.34903661e-05 -9.88477189e-01 -6.04453670e-02  2.48721080e-03 -1.31802183e-04
  1.41012505e-03  7.36853487e-04  1.56735771e-04  2.09775750e-04 -2.89165587e-05
  1.28394668e-04  1.72863978e-03  4.11434667e-04  1.55900082e-04 -5.88755617e-05
  3.96477330e-04  1.69100160e-03  4.43708420e-04  4.37662440e-04 -2.25867196e-05
 -1.55872973e-05  1.20459175e-02  1.29750413e-02  8.20337719e-03 -8.25450117e-05
 -4.05752793e-03  1.11504138e-02  1.29592890e-02  2.10427864e-04 -9.56617150e-04
  9.11399180e-03  1.21395143e-02  1.44823268e-03 -3.52132274e-04  3.60122901e-04
 -9.29420876e-04  6.58795069e-06 -5.71635342e-07 -8.03435247e-07 -2.86215774e-07
 -2.54219662e-06  1.31972622e-05  5.33334368e-06 -5.24823563e-06  5.18349872e-07
  7.93233102e-07  6.04069539e-05  6.64631222e-05  2.53506595e-04  2.98013387e-04
  3.46240576e-05  1.75797297e-04 -1.14276386e-04  1.05306560e-06 -2.22825085e-06
 -6.45912613e-07  4.78355862e-07  9.01933949e-05 -4.86779168e-07  8.79353782e-07
  1.06010560e-03 -8.77308191e-03  6.19638234e-04  3.04856722e-03 -6.38921262e-03
  1.91813666e-03 -5.65310614e-04  8.52271175e-04  3.88079087e-04 -5.77950009e-04
 -9.27974501e-03 -7.59685879e-04  5.77508342e-04  2.61997018e-04 -2.14311235e-05
  1.05041798e-05 -8.96592142e-05  5.75234574e-05  5.20978572e-05 -9.88266448e-06
  2.38478219e-05 -2.25268292e-04 -3.63174064e-05  5.73282994e-05 -1.09636622e-04
  3.39363449e-04 -3.51171877e-04  1.23322720e-02  1.15223665e-04 -6.95995276e-04
  3.01343677e-04 -9.48339824e-04 -2.06861586e-05  2.32704933e-05 -4.06490086e-06
 -1.14363368e-06  3.20882871e-06 -5.44512993e-04 -3.07508379e-04 -1.75285520e-04
  5.78989409e-06 -5.50229433e-05 -1.10252438e-04 -1.58853326e-05 -1.17284135e-05
  9.04963430e-06 -2.12594310e-05 -1.59584064e-03 -2.34210621e-04 -7.77476271e-04
  1.21529253e-04 -2.04445282e-04 -7.05030908e-04 -4.54362119e-04  1.75620351e-05
 -1.59649638e-05 -3.07694220e-04  9.88225986e-01  6.21149500e-02  1.03186193e-04
 -2.13540462e-04  3.84413529e-04  1.40861143e-05 -1.70131918e-06 -1.30226914e-05
  1.45648456e-06  1.29424414e-05 -5.78345770e-05 -1.24423704e-05  1.53121980e-05
  5.67659655e-06 -2.52735051e-06 -6.69955875e-06 -1.03445218e-05 -5.92526847e-04
 -2.77308086e-06 -1.26963554e-02 -1.26088326e-02 -1.27151755e-02  2.71036934e-06
 -5.66681638e-06 -2.21693823e-06  8.75481526e-06 -8.28090834e-06  7.20234738e-06
 -5.05503236e-06  6.11614769e-05 -3.40920794e-04 -1.32326563e-04 -1.28698411e-04
  3.11136256e-04  1.13853753e-02 -9.58199677e-03 -6.62322877e-03  6.78727466e-04
 -4.94490004e-03  9.88199338e-01  6.15086324e-02 -5.82107177e-04 -6.57996118e-04
  1.66568614e-04  9.94265911e-04 -8.06765768e-03  5.49386948e-03  3.47522472e-03
 -1.80272383e-03  3.51785693e-05 -2.49289738e-04  3.34486657e-04  1.85120318e-05
  2.13583791e-04 -1.25016284e-02 -1.24720163e-02  1.24171365e-03  4.39481622e-05
 -2.37208257e-04 -6.63074919e-05  6.99354053e-05 -3.63247109e-06  3.83251539e-06
  8.92508969e-08 -3.80533513e-07 -6.16718937e-07 -1.45160972e-05 -5.64305819e-07
 -1.67145497e-06 -2.32800394e-06 -5.35476969e-07 -1.13841508e-04 -5.48133653e-05
 -2.22846588e-05  1.11753779e-05 -2.22233846e-05 -2.01281087e-04 -1.10386632e-04
 -6.49724750e-05  2.10203592e-05  4.16415894e-05 -3.07473283e-04 -6.68635406e-06
 -1.02425913e-04 -6.09300452e-06 -6.63094946e-05  9.34846809e-03  4.54844065e-04
 -4.90456021e-04 -4.39760980e-04  3.02790654e-04 -5.81174757e-03 -1.20696452e-03
  6.48688815e-04  1.09506894e-03 -3.97246023e-04 -7.72358932e-03 -1.27293341e-03
  1.30723948e-03  2.74720249e-04  8.79985248e-05 -1.63442680e-06 -1.10739254e-06
 -2.05742020e-05 -3.82545389e-05 -8.33908549e-04 -3.36708724e-04 -2.03384299e-05
  1.20351820e-04 -1.27156886e-04  1.36752367e-04 -2.75064369e-04 -1.27901452e-06
 -3.09083093e-04 -2.63323622e-04  4.63288525e-06 -1.90854291e-05 -2.52406443e-05
 -2.53861828e-07  1.07291508e-05  3.59037027e-04 -3.36604740e-04 -2.30305039e-04
 -2.31900789e-05 -1.92294605e-04  7.83350652e-03 -3.27777589e-04 -1.32813225e-03
 -1.65756756e-04 -2.17298140e-04  1.01940853e-03 -8.42820396e-03 -6.01469676e-03
  2.53360482e-03 -2.50179264e-03  2.66242532e-06  6.61793765e-07 -8.45423148e-06
  4.83627257e-06  5.87589830e-06 -4.49701745e-04 -4.78348758e-05  2.31292882e-05
 -2.36818571e-06 -1.00470439e-05 -1.12178009e-06 -2.81566485e-07  1.20097370e-06
  5.17145558e-07  1.43855066e-07 -6.92782319e-08 -7.46188878e-08 -3.00630574e-06
 -7.45960313e-08 -1.90315814e-08 -8.66786821e-08  7.57552403e-08 -1.95202085e-05
 -2.94825427e-06 -7.14530091e-07  4.57958912e-07 -8.93540695e-07 -2.49454179e-05
 -4.38381078e-06 -2.34897205e-06  6.75007401e-07  1.35543237e-06 -3.27712206e-05
 -1.11011661e-06 -3.97952687e-06 -3.65717995e-07 -3.22817005e-06  1.34948276e-04
 -5.30035673e-06 -3.00982469e-05 -1.87753598e-05  6.21339936e-06 -2.57363252e-02
 -2.50843728e-03 -9.00833205e-04  1.09954553e-03 -3.55700196e-04  9.87946640e-01
  6.24198514e-02  1.72766437e-04  6.72203494e-05  2.37222623e-04 -6.49747683e-08
  1.22164625e-07 -6.27299977e-07 -2.82053350e-06 -1.74172153e-06 -1.36114881e-05
  1.59295787e-06  1.39224436e-06 -7.01893713e-05 -1.26300342e-02 -1.27318074e-02
 -5.86019583e-08  3.64093250e-04 -1.30321445e-02  1.03771557e-05  3.28194670e-05
  1.14731552e-04  2.38608272e-06 -6.80680953e-05 -1.11146717e-06 -3.09149966e-05
  5.55573329e-06  2.49300725e-05 -2.65481680e-05 -1.61099906e-05  7.06512455e-06
 -3.03469022e-06  4.33520023e-07 -4.30116551e-06  1.68751029e-07 -8.76999083e-07
  1.11668828e-06  5.10985337e-07  2.70937503e-07  3.28247662e-07 -7.64313243e-06
 -2.24166023e-06 -8.24188667e-07 -5.52675725e-06  1.56480557e-06 -1.13524493e-07
  1.12661212e-04  1.04589014e-03 -6.69950569e-04  4.70344427e-05  1.77793129e-05
 -1.10219535e-01 -1.90477816e-02  2.19421596e-05  1.20231811e-03 -9.18429173e-03
  9.75613217e-01  6.35253746e-02  2.97098778e-03  1.21052471e-04 -1.59957416e-03
 -1.38790037e-02  1.48681453e-04 -4.17384143e-04  2.87473413e-05  2.81051383e-04
 -1.12081234e-01 -1.91377343e-02  7.75667954e-03 -1.11491702e-03  4.87774862e-03
 -3.63659445e-03 -1.52450329e-04  2.38204703e-04  1.94303900e-05 -2.92748903e-04
  3.63303620e-04  4.81397285e-06  1.04165698e-04 -3.36339647e-05  2.77981616e-05
 -3.97750893e-06 -2.54418177e-07  3.43945486e-10  2.03885711e-07  1.28151097e-08
 -2.07318538e-07 -9.98036254e-08 -4.86373024e-08 -6.85337778e-08  7.47411105e-08
 -1.14641733e-02  6.18700097e-05  9.02090401e-04 -8.74824948e-05 -5.42350735e-05
  2.79886815e-05  1.76278600e-06  3.07661320e-08 -2.63259523e-07 -2.63475763e-08
  4.78237707e-08  9.31058878e-04  2.10670685e-08  7.81889707e-09 -1.07938575e-05
 -2.99162559e-05  1.63426748e-05  1.29957384e-05 -1.22055762e-04 -7.33159066e-05
 -2.38511512e-06 -3.56405578e-05  2.56663351e-07 -4.81764860e-05 -7.92340403e-05
  1.74333429e-05 -1.59952990e-05  4.89144453e-06 -8.39607644e-06 -1.82819402e-07
  4.47463368e-07 -7.17445426e-07 -1.37406001e-06 -1.55637555e-07 -4.53781216e-06
 -3.26359514e-06 -3.24738980e-05 -2.18217985e-05 -2.16969204e-05  1.84697271e-06