Generated by Psi4
        SP                        DF-MP2                      6-311G**
Number of atoms                            I                7
Charge                                     I                0
Multiplicity                               I                1
Number of electrons                        I               18
Number of alpha electrons                  I                9
Number of beta electrons                   I                9
Number of basis functions                  I               66
Number of independent functions            I               66
Atomic numbers                             I   N=           7
           7           6           1           1           1           1
           1
Nuclear charges                            R   N=           7
  7.00000000e+00  6.00000000e+00  1.00000000e+00  1.00000000e+00  1.00000000e+00
  1.00000000e+00  1.00000000e+00
Current cartesian coordinates              R   N=          21
 -1.36467759e+00 -8.35841431e-03 -9.18185542e-02  1.39413063e+00 -1.70277714e-03
 -2.00064697e-02  2.24298402e+00  1.69083459e-01  1.87605803e+00  2.09636693e+00
  1.56613072e+00 -1.17178614e+00  2.09657617e+00 -1.74992683e+00 -8.73271500e-01
 -2.03725970e+00  1.60378940e+00  7.03992413e-01 -2.03703354e+00 -1.45266735e+00
  9.78979951e-01
Integer atomic weights                     I   N=           7
          14          12           1           1           1           1
           1
Real atomic weights                        R   N=           7
  1.40030740e+01  1.20000000e+01  1.00782503e+00  1.00782503e+00  1.00782503e+00
  1.00782503e+00  1.00782503e+00
Number of primitive shells                 I               64
Number of contracted shells                I               36
Pure/Cartesian d shells                    I                0
Pure/Cartesian f shells                    I                0
Highest angular momentum                   I                2
Largest degree of contraction              I                6
Shell types                                I   N=          36
           0           0           1           0           1           0
           1          -2           0           0           1           0
           1           0           1          -2           0           0
           0           1           0           0           0           1
           0           0           0           1           0           0
           0           1           0           0           0           1
Number of primitives per shell             I   N=          36
           6           3           3           1           1           1
           1           1           6           3           3           1
           1           1           1           1           3           1
           1           1           3           1           1           1
           3           1           1           1           3           1
           1           1           3           1           1           1
Shell to atom map                          I   N=          36
           1           1           1           1           1           1
           1           1           2           2           2           2
           2           2           2           2           3           3
           3           3           4           4           4           4
           5           5           5           5           6           6
           6           6           7           7           7           7
Primitive exponents                        R   N=          64
  6.29348000e+03  9.49044000e+02  2.18776000e+02  6.36916000e+01  1.88282000e+01
  2.72023000e+00  3.06331000e+01  7.02614000e+00  2.11205000e+00  3.06331000e+01
  7.02614000e+00  2.11205000e+00  6.84009000e-01  6.84009000e-01  2.00878000e-01
  2.00878000e-01  9.13000000e-01  4.56324000e+03  6.82024000e+02  1.54973000e+02
  4.44553000e+01  1.30290000e+01  1.82773000e+00  2.09642000e+01  4.80331000e+00
  1.45933000e+00  2.09642000e+01  4.80331000e+00  1.45933000e+00  4.83456000e-01
  4.83456000e-01  1.45585000e-01  1.45585000e-01  6.26000000e-01  3.38650000e+01
  5.09479000e+00  1.15879000e+00  3.25840000e-01  1.02741000e-01  7.50000000e-01
  3.38650000e+01  5.09479000e+00  1.15879000e+00  3.25840000e-01  1.02741000e-01
  7.50000000e-01  3.38650000e+01  5.09479000e+00  1.15879000e+00  3.25840000e-01
  1.02741000e-01  7.50000000e-01  3.38650000e+01  5.09479000e+00  1.15879000e+00
  3.25840000e-01  1.02741000e-01  7.50000000e-01  3.38650000e+01  5.09479000e+00
  1.15879000e+00  3.25840000e-01  1.02741000e-01  7.50000000e-01
Contraction coefficients                   R   N=          64
  1.96978815e-03  1.49612859e-02  7.35005308e-02  2.48936766e-01  6.02459433e-01
  2.56201759e-01  1.11906080e-01  9.21666655e-01 -2.56919183e-03  3.83119186e-02
  2.37403116e-01  8.17592398e-01  1.00000000e+00  1.00000000e+00  1.00000000e+00
  1.00000000e+00  1.00000000e+00  1.96665025e-03  1.52306019e-02  7.61269097e-02
  2.60801033e-01  6.16462078e-01  2.21006028e-01  1.14660081e-01  9.19999648e-01
 -3.03068213e-03  4.02486927e-02  2.37593957e-01  8.15853851e-01  1.00000000e+00
  1.00000000e+00  1.00000000e+00  1.00000000e+00  1.00000000e+00  2.54938145e-02
  1.90373109e-01  8.52161486e-01  1.00000000e+00  1.00000000e+00  1.00000000e+00
  2.54938145e-02  1.90373109e-01  8.52161486e-01  1.00000000e+00  1.00000000e+00
  1.00000000e+00  2.54938145e-02  1.90373109e-01  8.52161486e-01  1.00000000e+00
  1.00000000e+00  1.00000000e+00  2.54938145e-02  1.90373109e-01  8.52161486e-01
  1.00000000e+00  1.00000000e+00  1.00000000e+00  2.54938145e-02  1.90373109e-01
  8.52161486e-01  1.00000000e+00  1.00000000e+00  1.00000000e+00
Coordinates of each shell                  R   N=         108
 -1.36467759e+00 -8.35841431e-03 -9.18185542e-02 -1.36467759e+00 -8.35841431e-03
 -9.18185542e-02 -1.36467759e+00 -8.35841431e-03 -9.18185542e-02 -1.36467759e+00
 -8.35841431e-03 -9.18185542e-02 -1.36467759e+00 -8.35841431e-03 -9.18185542e-02
 -1.36467759e+00 -8.35841431e-03 -9.18185542e-02 -1.36467759e+00 -8.35841431e-03
 -9.18185542e-02 -1.36467759e+00 -8.35841431e-03 -9.18185542e-02  1.39413063e+00
 -1.70277714e-03 -2.00064697e-02  1.39413063e+00 -1.70277714e-03 -2.00064697e-02
  1.39413063e+00 -1.70277714e-03 -2.00064697e-02  1.39413063e+00 -1.70277714e-03
 -2.00064697e-02  1.39413063e+00 -1.70277714e-03 -2.00064697e-02  1.39413063e+00
 -1.70277714e-03 -2.00064697e-02  1.39413063e+00 -1.70277714e-03 -2.00064697e-02
  1.39413063e+00 -1.70277714e-03 -2.00064697e-02  2.24298402e+00  1.69083459e-01
  1.87605803e+00  2.24298402e+00  1.69083459e-01  1.87605803e+00  2.24298402e+00
  1.69083459e-01  1.87605803e+00  2.24298402e+00  1.69083459e-01  1.87605803e+00
  2.09636693e+00  1.56613072e+00 -1.17178614e+00  2.09636693e+00  1.56613072e+00
 -1.17178614e+00  2.09636693e+00  1.56613072e+00 -1.17178614e+00  2.09636693e+00
  1.56613072e+00 -1.17178614e+00  2.09657617e+00 -1.74992683e+00 -8.73271500e-01
  2.09657617e+00 -1.74992683e+00 -8.73271500e-01  2.09657617e+00 -1.74992683e+00
 -8.73271500e-01  2.09657617e+00 -1.74992683e+00 -8.73271500e-01 -2.03725970e+00
  1.60378940e+00  7.03992413e-01 -2.03725970e+00  1.60378940e+00  7.03992413e-01
 -2.03725970e+00  1.60378940e+00  7.03992413e-01 -2.03725970e+00  1.60378940e+00
  7.03992413e-01 -2.03703354e+00 -1.45266735e+00  9.78979951e-01 -2.03703354e+00
 -1.45266735e+00  9.78979951e-01 -2.03703354e+00 -1.45266735e+00  9.78979951e-01
 -2.03703354e+00 -1.45266735e+00  9.78979951e-01
Total Energy                               R     -9.558737546958803e+01
Alpha Orbital Energies                     R   N=          66
 -1.55308503e+01 -1.12410912e+01 -1.16623778e+00 -8.91233180e-01 -6.57664645e-01
 -6.00175467e-01 -5.51974965e-01 -5.12733098e-01 -3.88505176e-01  1.56655851e-01
  1.92804123e-01  2.09605048e-01  2.31648650e-01  2.57662513e-01  3.76701505e-01
  4.63747909e-01  4.84638224e-01  5.47794169e-01  5.59777475e-01  7.04997169e-01
  7.57433974e-01  8.06118393e-01  8.07366069e-01  8.52686054e-01  9.33033863e-01
  9.53389475e-01  9.71638410e-01  1.26597002e+00  1.29415755e+00  1.29539815e+00
  1.58556108e+00  1.63888773e+00  1.72674039e+00  1.74532869e+00  1.76122089e+00
  1.82930715e+00  1.89299178e+00  1.92470605e+00  1.98526177e+00  2.03426731e+00
  2.14389776e+00  2.25930071e+00  2.32775362e+00  2.44295825e+00  2.47529239e+00
  2.63367128e+00  2.66086510e+00  2.71990375e+00  2.77721834e+00  2.79039851e+00
  2.86383203e+00  2.86819155e+00  2.94537837e+00  3.08732631e+00  3.09163033e+00
  3.19974422e+00  3.31975077e+00  3.50362682e+00  3.83090569e+00  4.14987285e+00
  4.20842790e+00  4.49602503e+00  5.21289644e+00  5.33118894e+00  2.50409192e+01
  3.70020901e+01
Alpha MO coefficients                      R   N=        4356
  5.57656798e-01  4.68258110e-01  6.27247607e-04  1.61770972e-04  1.79752211e-03
  4.99915754e-03 -2.46591846e-04 -6.48572389e-05 -7.20645354e-04 -1.24009727e-03
 -2.62492256e-04  3.37687168e-06  3.77328007e-05  1.49307257e-04  6.25752820e-05
  1.97510530e-05 -4.09065812e-05  5.62406900e-06  8.17683509e-06 -3.41968690e-05
 -4.22792811e-05 -2.08709329e-06 -2.31607738e-05  1.35985872e-04 -3.53489029e-04
  7.03192623e-06  7.83954019e-05  6.83999177e-04 -2.78632695e-04 -5.32374230e-06
 -5.89149915e-05 -6.43050747e-05 -5.30203272e-05  4.06112960e-06  1.56180258e-04
 -4.74888178e-06  3.69116471e-06 -5.60428783e-05 -1.16959059e-05  3.19871776e-05
 -1.21186371e-06 -1.34888923e-05  1.96094090e-05 -6.24415169e-05 -1.74222636e-05
 -7.96870156e-06 -1.65145242e-05  2.05345337e-05  1.96105745e-05 -6.24406872e-05
 -1.74290943e-05 -7.96990624e-06  1.99160704e-05  1.72548264e-05  2.54419969e-04
  2.73405357e-04  5.44413575e-05  8.89799842e-05 -9.74544235e-05  1.26830744e-05
  2.54420170e-04  2.73403225e-04  5.44423462e-05  8.89643070e-05  9.81655595e-05
 -4.91581702e-06 -8.79072757e-05 -1.40365153e-04  9.73843732e-05  9.75625799e-07
  1.07702360e-05  2.80433024e-04  4.98945572e-04 -1.83517187e-06 -2.08130537e-05
  2.17262526e-04  1.20617469e-04 -1.97797894e-06 -2.21571320e-05 -8.85764286e-05
  4.49695936e-05  3.86086860e-06  1.95945907e-04  4.07550413e-06  5.63427734e-01
  4.66560603e-01 -5.20104984e-04  3.74259509e-06  4.19503110e-05  4.13195939e-03
  4.75115099e-04 -4.89203164e-06 -5.45835245e-05 -1.21957017e-03 -6.78698253e-05
  4.20661965e-06  4.68690870e-05  6.93678169e-05 -1.84874768e-05 -5.44510297e-06
 -1.80301938e-04 -1.68925322e-06  3.41342142e-04  1.26358087e-04  2.21488782e-04
 -3.69273427e-05 -3.13311058e-07 -3.39832084e-06  3.40538513e-04  1.02669925e-04
  2.54475721e-04 -2.52575113e-05  1.09304132e-05 -8.69066059e-06  3.40543190e-04
  1.02643298e-04  2.54484906e-04 -2.52487434e-05 -1.23180867e-05 -6.59804980e-06
  7.37909186e-07  6.60378332e-05 -1.38234556e-05  2.32959860e-05 -4.91503467e-05
 -1.90442801e-05  7.37120834e-07  6.60462848e-05 -1.38251393e-05  2.32900863e-05
  4.49657452e-05 -2.75132401e-05  9.89799241e-02  1.63737246e-01 -1.80114372e-02
 -2.33469720e-03 -2.59372145e-02 -4.35967031e-01 -3.59826786e-02 -3.85932119e-03
 -4.28696397e-02 -3.22101978e-01 -2.56243846e-02 -1.42288415e-03 -1.57953523e-02
  5.11370115e-03  1.59380461e-03  5.66083251e-04 -2.61764397e-03  1.43061228e-04
  5.08152303e-02  8.35246916e-02  3.85968482e-02 -4.57827202e-05 -5.40945651e-04
 -2.12551265e-01  7.91727525e-02 -2.21394436e-04 -2.52563686e-03 -5.72622954e-02
 -8.20589407e-04 -4.93561559e-04 -5.48748965e-03  1.13333840e-02  1.31353456e-03
  8.20826233e-05 -1.87252137e-02  1.15603220e-04 -2.55404781e-02 -3.85776238e-02
  2.68396594e-03  5.00381205e-03  7.70560466e-04  8.55416600e-03 -2.63340138e-02
 -4.23674761e-02  1.18499499e-03  4.23391520e-03  7.50170368e-03 -5.38134730e-03
 -2.63347769e-02 -4.23679658e-02  1.18521485e-03  4.23493879e-03 -8.34163792e-03
 -3.95515107e-03 -7.81734579e-02 -7.92485543e-02 -6.19550039e-04 -8.74546530e-03
  1.78392582e-02  6.89889599e-03 -7.81736573e-02 -7.92487655e-02 -6.19483586e-04
 -8.74297287e-03 -1.63226624e-02  9.97244497e-03  4.09486841e-02  6.80721646e-02
  6.63416134e-02 -2.50263903e-03 -2.78675717e-02 -1.83287951e-01  1.09729943e-01
 -4.06813597e-03 -4.53017785e-02 -1.61847809e-01  4.91282249e-02 -1.60874607e-03
 -1.79182480e-02 -4.79662556e-03  6.72856673e-03  4.81502225e-04  1.36112709e-02
  6.07340625e-04 -8.85931593e-02 -1.46926579e-01  3.95929820e-02 -5.50311193e-04
 -6.14368992e-03  3.79286186e-01  5.17204049e-02 -8.14634197e-04 -9.09173388e-03
  2.52232368e-01  2.50277251e-02  4.57167241e-04  5.05879246e-03  3.27131804e-03
  1.58202052e-03 -2.04238676e-04 -7.92271500e-03  1.41414526e-04  8.06891753e-02
  1.08674456e-01  5.55453841e-03 -5.46931254e-03 -1.50086344e-03 -1.66638068e-02
  8.43685047e-02  1.17582394e-01  9.34976690e-03 -4.40281150e-03 -1.47333685e-02
  1.03593561e-02  8.43694023e-02  1.17583418e-01  9.34978962e-03 -4.40487759e-03
  1.63460972e-02  7.56167866e-03 -6.26637383e-02 -7.86478053e-02 -1.18387573e-02
 -1.40060710e-03  1.24974235e-02  3.61566106e-03 -6.26634354e-02 -7.86473343e-02
 -1.18387722e-02 -1.39874095e-03 -1.16515391e-02  5.78825195e-03 -1.98559362e-07
 -3.31870274e-07  1.44431024e-05 -1.75774710e-01  1.58121922e-02  1.01829615e-06
  2.27905370e-05 -2.77993746e-01  2.50074890e-02  1.16299449e-06  1.40905401e-05
 -1.67285138e-01  1.50476527e-02  3.97563803e-03 -1.81322447e-04 -2.53073940e-02
  2.29534553e-03  2.03518553e-03  1.75109926e-07  2.98220429e-07  4.70849975e-06
 -9.72358396e-02  8.74405336e-03 -5.13002351e-07  7.52882246e-06 -1.60425535e-01
  1.44267558e-02 -2.74897922e-06  5.69976209e-06 -1.02473603e-01  9.21707603e-03
 -1.95380361e-03 -6.45146464e-04  1.24194097e-02 -1.12866010e-03  7.15691239e-03
 -8.71018292e-06 -1.22316171e-05 -4.22849352e-06  7.46545388e-07 -4.07463635e-03
  3.67709724e-04 -6.25693769e-02 -8.37445092e-02 -2.22434576e-02  2.15373605e-03
  2.97280247e-03 -5.43115820e-03  6.25754483e-02  8.37541577e-02  2.22464459e-02
 -2.15482948e-03  3.89543456e-03  4.81254637e-03 -1.19495482e-01 -1.79930357e-01
 -4.91352745e-02 -1.16760031e-02  1.13127246e-02  1.12998582e-02  1.19493371e-01
  1.79928018e-01  4.91346017e-02  1.16745709e-02  9.11541848e-03 -1.31379234e-02
  1.61942525e-02  2.75170389e-02 -9.98784576e-02  9.48232665e-03  1.05559403e-01
 -8.42051916e-02 -1.61593076e-01  1.49502685e-02  1.66433405e-01 -9.42568466e-02
 -1.00029907e-01  1.19733046e-02  1.33247551e-01  1.11283774e-02  5.06875783e-05
  4.74800819e-04 -1.40275089e-02  2.96476081e-06 -2.75800044e-03 -4.23514333e-03
  1.01205421e-01  1.13115594e-02  1.25628584e-01  4.08105347e-03  1.73409476e-01
  1.81565576e-02  2.01646891e-01  2.48705153e-02  7.91725362e-02  9.72420761e-03
  1.08024799e-01  2.58988835e-02  3.47200312e-03  2.95965167e-03 -1.22632721e-02
  3.11757850e-04  1.34972135e-01  2.09112740e-01  8.51106649e-02 -4.17346699e-03
 -1.31018851e-03 -1.45441342e-02 -1.76767936e-02 -3.01319084e-02 -1.37058027e-02
  5.66382835e-03  4.35199693e-03  4.54928629e-03 -1.76707370e-02 -3.01237058e-02
 -1.37024327e-02  5.66434451e-03 -3.46855721e-03  5.25382805e-03  5.70774410e-02
  8.03583339e-02  3.01740015e-02 -2.10044026e-03 -1.03680551e-02  4.02962396e-03
  5.70880419e-02  8.03744914e-02  3.01799905e-02 -2.10123134e-03  1.09212133e-02
  2.11319388e-03  2.04294860e-03  3.43618049e-03  1.51018808e-01  1.86278937e-03
  2.06341639e-02 -1.05384477e-02  2.39847429e-01  3.28787990e-03  3.64312443e-02
  4.04974430e-03  1.81197418e-01  3.60841376e-03  4.00186031e-02 -3.41490174e-03
  1.90991784e-02  9.01228282e-04  1.58434237e-02  1.72118828e-03 -3.87968596e-03
 -6.89601757e-03 -1.24620493e-01  1.09265877e-02  1.21486364e-01  2.32817083e-02
 -2.09128507e-01  1.75078655e-02  1.94673670e-01 -2.51133909e-03 -1.11886994e-01
  1.19497622e-02  1.32857992e-01 -1.25409915e-03  1.02031175e-02  2.96462275e-03
  3.48245023e-02  9.23650924e-04  6.04627948e-02  9.39797093e-02  4.51686226e-02
 -8.99884679e-03 -2.78360476e-04 -3.08247471e-03 -8.79955734e-02 -1.36072208e-01
 -5.44731486e-02 -1.17762616e-03  1.05640083e-02 -1.52674217e-03 -8.79937867e-02
 -1.36070186e-01 -5.44714937e-02 -1.17617807e-03 -1.06670075e-02  3.84654640e-04
 -4.46799251e-02 -7.81393139e-02 -3.42771456e-02  8.12049836e-03  8.61440450e-03
  5.56756293e-03 -4.46728163e-02 -7.81284687e-02 -3.42726307e-02  8.12207926e-03
 -7.48064874e-03  7.01497625e-03 -1.04664004e-06 -1.78314863e-06  4.94456758e-06
 -1.06039324e-01  9.53421011e-03  5.37257224e-06  7.68869863e-06 -1.63058243e-01
  1.46607256e-02  6.36352854e-06  4.07947507e-06 -1.21089071e-01  1.08853665e-02
  2.71623837e-03 -1.40338011e-03 -1.72909175e-02  1.56596415e-03  1.56049613e-02
  4.64716856e-07  7.64564015e-07 -9.79278433e-06  1.65469226e-01 -1.48936339e-02
 -2.08189081e-06 -1.52444252e-05  2.61228675e-01 -2.35134617e-02  3.77389560e-07
 -1.08948800e-05  1.79442496e-01 -1.61526643e-02  4.03481263e-03 -2.30836738e-03
 -2.56651134e-02  2.32577870e-03  2.56782063e-02  4.24713459e-06  7.05162740e-06
  2.32233188e-06 -8.69769073e-07  9.68355065e-03 -8.72399255e-04  1.27141881e-01
  2.08081404e-01  9.54952956e-02 -6.62694543e-03 -5.92922368e-03  1.16522538e-02
 -1.27144517e-01 -2.08086379e-01 -9.54965918e-02  6.62824226e-03 -7.91433180e-03
 -1.04060656e-02 -8.35837885e-02 -1.37871625e-01 -7.01368890e-02 -6.35242961e-03
  7.41947444e-03  7.15218452e-03  8.35828797e-02  1.37870286e-01  7.01367396e-02
  6.35064536e-03  6.02433030e-03 -8.36253797e-03  2.95642280e-02  5.03874333e-02
  7.06394386e-02  2.01573242e-02  2.23993935e-01 -1.53074286e-01  1.03278730e-01
  3.03323361e-02  3.37062858e-01 -2.03400908e-01  1.52752530e-01  3.73976378e-02
  4.15539965e-01  1.06942434e-02  3.15568909e-03  1.72461894e-03  4.90538593e-04
  2.84164884e-04 -5.67045345e-03 -9.53312053e-03 -3.43011804e-02 -6.54285031e-03
 -7.27209128e-02  2.75391724e-02 -5.39184443e-02 -1.00837220e-02 -1.12080330e-01
 -3.03228660e-02 -9.45878825e-03 -6.77451613e-03 -7.53242285e-02 -1.32768213e-02
 -3.31678705e-02 -2.34965321e-03 -2.85146095e-03 -2.98433905e-03 -9.00942123e-02
 -1.77995401e-01 -9.78277859e-02  2.87003069e-03  6.80055311e-04  7.54358838e-03
  3.65349882e-02  8.36381441e-02  3.07596357e-02 -3.97879845e-03 -6.03520571e-03
 -1.45815973e-03  3.65235486e-02  8.36159090e-02  3.07450324e-02 -3.97903600e-03
  5.67655540e-03 -2.51339595e-03  4.19881426e-02  5.41899445e-02  3.20551629e-02
  9.16367026e-03 -7.35970025e-03  1.63892219e-02  4.19893375e-02  5.41939594e-02
  3.20575519e-02  9.16280161e-03  1.01684450e-02  1.48120878e-02  2.68842559e-02
  4.38576712e-02  4.12349336e-02 -3.53995886e-03 -3.93765137e-02 -8.64739062e-02
  3.56901467e-02 -5.03260774e-03 -5.59617135e-02 -6.45090320e-01  3.02444603e-01
 -1.30523805e-02 -1.45319217e-01 -2.08908252e-03  1.97460174e-03 -2.57195764e-04
  7.79694420e-04  1.77746667e-04  2.80911857e-02  4.43418829e-02 -5.55554409e-02
 -1.12690422e-03 -1.24865870e-02 -1.11671632e-02 -6.70000631e-02 -6.36013084e-04
 -7.01883351e-03 -1.60296378e+00 -2.28714110e-01 -6.93226390e-03 -7.68642972e-02
  3.43092386e-03  5.66426312e-03  2.75304984e-04 -2.91434675e-03  5.08814801e-04
  3.61973510e-03  1.55294909e-03  7.86345739e-01 -5.44313894e-03  1.85009343e-04
  2.05603297e-03  1.26543609e-03  3.76382840e-02  5.23575385e-01 -6.58832999e-03
 -2.39347836e-03  2.48285133e-03  1.26611345e-03  3.76354472e-02  5.23603311e-01
 -6.58824037e-03  2.79689142e-03  2.01496519e-03  1.71250254e-02 -6.13505354e-02
  6.68939520e-01 -4.38589976e-03  5.85418304e-03  2.50501741e-04  1.71248753e-02
 -6.13493021e-02  6.68934835e-01 -4.38500862e-03 -5.71598194e-03  1.29118583e-03
  2.89760882e-02  4.73540194e-02  6.09886445e-03 -3.81438808e-03 -4.24034900e-02
 -8.13050986e-02 -2.16290543e-02 -5.40299264e-03 -6.00384848e-02 -8.40291639e-01
  8.69716854e-02 -1.57342467e-02 -1.74961780e-01 -3.29321353e-03 -1.20546705e-03
 -1.87934085e-04  3.63293133e-03 -1.07676337e-04 -3.73976115e-02 -6.06402522e-02
  1.55104168e-02 -1.43416948e-03 -1.59786925e-02  8.32810017e-02 -1.82339284e-02
 -5.25416613e-04 -5.84832879e-03  1.39566620e+00  2.18579204e-01 -1.60775261e-02
 -1.79029861e-01 -2.09183724e-04  4.03520319e-03 -2.78040825e-04 -2.70847986e-03
  3.62387220e-04 -1.16383034e-02  8.00469049e-02 -5.85354437e-01 -8.38274231e-03
 -1.65662012e-04 -1.83343380e-03 -1.29840973e-02  7.09336151e-02 -9.19752100e-01
 -7.19206579e-03 -2.43306007e-03  4.72093298e-03 -1.29829930e-02  7.09327895e-02
 -9.19708427e-01 -7.19199916e-03  3.23552481e-03  4.21018811e-03  2.02451846e-02
 -6.02481655e-02  7.96592413e-01 -7.29470836e-03  4.69033736e-05 -1.46590187e-03
  2.02458520e-02 -6.02483709e-02  7.96607822e-01 -7.29472499e-03 -3.08925804e-04
 -1.43401332e-03 -1.98876558e-07 -3.25666225e-07  6.84879380e-06 -8.85244965e-02
  7.96514636e-03  1.42257888e-07  6.10336464e-06 -8.23993981e-02  7.41317886e-03
  8.92408797e-06  3.27628834e-05 -4.48924191e-01  4.04037232e-02  4.65090237e-04
  1.18212338e-03 -2.95812933e-03  2.70378276e-04 -1.31445602e-02 -2.99523735e-07
 -4.32304554e-07  6.60975843e-06 -9.50750434e-02  8.54491962e-03  4.95953433e-07
  3.56087476e-06 -4.84042271e-02  4.35103322e-03  1.21767913e-05  5.13283094e-05
 -7.46174686e-01  6.70501319e-02  2.12160854e-03 -1.60812114e-03 -1.34869301e-02
  1.22314899e-03  1.78977090e-02  1.30972130e-06 -1.10648886e-05  2.00995166e-04
  7.59136526e-07  2.89913523e-03 -2.57963148e-04  1.13916459e-02 -9.35458446e-02
  1.17477116e+00  8.00153806e-03  1.54872628e-02 -9.62496648e-03 -1.13930014e-02
  9.35640606e-02 -1.17499884e+00 -8.00482182e-03  1.69599297e-02  6.70616555e-03
  2.10103941e-02 -7.62724351e-02  1.16453259e+00 -4.52493908e-03  7.57541797e-03
  3.13625425e-03 -2.10100743e-02  7.62616859e-02 -1.16452671e+00  4.52340339e-03
  6.89454676e-03 -4.43718485e-03  7.68706003e-03  1.26007510e-02 -6.29347232e-03
 -1.46371735e-03 -1.62144168e-02 -1.74690810e-02 -9.10183297e-03 -7.91215891e-04
 -8.74569178e-03 -2.78940956e-01 -1.17658467e-02 -1.79166126e-02 -1.98840486e-01
 -2.21868440e-03  1.07805390e-02 -3.46905685e-04  1.95765258e-05  9.68949796e-04
 -2.70728669e-03 -4.57508329e-03 -3.37709195e-03  1.24639408e-02  1.38621683e-01
  6.70214181e-03 -1.35065154e-02  7.30679402e-03  8.12930444e-02  9.19083434e-02
 -4.76330213e-02  1.03754511e-01  1.15382964e+00 -1.66080080e-02 -2.03532480e-02
 -3.87797252e-03 -1.39125791e-02 -1.83211987e-03 -1.82273812e-02  1.90743749e-01
 -2.20657943e+00 -1.25786313e-02 -2.65651997e-03 -2.94899138e-02  6.60574022e-03
 -8.24729590e-02  1.06513794e+00  3.56915343e-03  1.44196400e-02 -7.25213750e-03
  6.60067288e-03 -8.24410717e-02  1.06474294e+00  3.56906934e-03 -1.54780379e-02
 -4.55784422e-03 -2.08973626e-03  2.28684389e-02  1.39481560e-01  1.36474184e-03
 -1.73028731e-03 -4.99781699e-03 -2.09169454e-03  2.28821763e-02  1.39320081e-01
  1.36540659e-03  8.11195579e-04 -5.22543716e-03  8.58032501e-08  1.59486162e-07
  6.45988772e-06 -9.39265208e-02  8.45176357e-03 -4.15110366e-07  5.96824390e-06
 -8.13532456e-02  7.32116256e-03 -2.38482004e-06  4.19896731e-05 -6.19074717e-01
  5.56989558e-02  1.85039788e-04 -2.78467980e-04 -1.17996160e-03  1.06296154e-04
  3.09667101e-03  1.90581203e-07  2.83961420e-07 -7.05216223e-06  1.01009383e-01
 -9.08680234e-03 -3.02911533e-07 -4.05827201e-06  6.33183473e-02 -5.69793604e-03
 -9.47182020e-06 -7.15920771e-05  9.64017590e-01 -8.67208731e-02 -3.15969030e-03
  7.88506560e-04  2.00971371e-02 -1.82345132e-03 -8.78899580e-03  7.00154265e-07
  1.68894142e-05 -1.30485486e-04 -1.16465810e-06  6.79102610e-03 -6.13192493e-04
 -1.46781658e-02  6.96079959e-02 -1.53803975e+00 -3.83459714e-03 -1.30420976e-02
  1.33856340e-02  1.46781340e-02 -6.96239527e-02  1.53819196e+00  3.83736947e-03
 -1.52243206e-02 -1.08428090e-02  7.79990452e-03 -6.43137086e-02  1.18536544e+00
 -5.68951933e-04  7.01795777e-03  6.21709948e-03 -7.79911789e-03  6.43269890e-02
 -1.18539210e+00  5.68639245e-04  5.79522027e-03 -7.37095143e-03  2.51176092e-02
  4.13133106e-02 -1.35236005e-01  1.95909342e-03  2.18790148e-02 -4.16197442e-02
 -1.55536761e-01  1.24486981e-03  1.39536938e-02 -1.58952610e+00 -1.23174182e+00
  1.71710336e-04  2.94267041e-03  7.49034139e-03 -7.10931784e-04  1.66676514e-03
  5.40402517e-03 -6.28520199e-05 -1.19294415e-02 -1.81778659e-02 -8.43638410e-02
 -3.85160312e-04 -4.21911707e-03 -3.41565610e-02 -4.24481363e-02  1.02741812e-04
  1.16445480e-03  1.17176705e+00 -2.24452656e+00 -2.74156763e-03 -2.89291214e-02
  1.17020657e-02 -5.18214840e-03 -6.74599073e-05 -2.10127074e-02 -4.68991987e-04
  1.02749096e-02  1.33873789e-01  4.43593949e-01  2.85685809e-05  5.55751445e-04
  6.16742483e-03  2.16226472e-02  2.18698783e-01  9.98205194e-02  5.19976497e-04
  7.60031156e-04 -1.17541238e-03  2.16246663e-02  2.18723534e-01  9.98257136e-02
  5.19169349e-04 -9.56668868e-04 -1.02059660e-03 -4.06183147e-03  1.52221283e-01
 -5.80889234e-01  1.14474257e-02 -2.04622987e-02 -4.48141639e-03 -4.06119896e-03
  1.52212999e-01 -5.80863768e-01  1.14432604e-02  1.93349056e-02 -8.06183282e-03
  6.80921117e-07  1.26524442e-06  4.45211018e-06  1.00177684e-02 -8.94535343e-04
 -6.83235447e-06  6.18750974e-06  3.93949135e-02 -3.53657026e-03  2.22213699e-05
  5.91797507e-05 -4.93661360e-01  4.44756335e-02  2.19439443e-03 -2.22406420e-03
 -1.39699423e-02  1.26250165e-03  2.47074028e-02  3.56809059e-07  6.09149600e-07
 -8.55404900e-08  6.40883265e-03 -5.81473497e-04  1.95448666e-06 -7.13507365e-06
  7.16348873e-02 -6.45322939e-03 -5.69285482e-05 -9.11108505e-05  1.80248644e+00
 -1.62400649e-01  4.14200037e-03 -1.94943064e-03 -2.63510637e-02  2.38969261e-03
  2.16438102e-02  8.07271150e-06  1.25697975e-04 -3.28334625e-05 -3.90135389e-06
  1.35923471e-02 -1.22676507e-03 -5.12381674e-02 -1.24467537e+00  1.69969021e-01
  3.53025829e-02  4.86514699e-02 -3.00453107e-02  5.12336065e-02  1.24457544e+00
 -1.69947257e-01 -3.53081618e-02  5.32304872e-02  2.08695117e-02 -3.88964897e-02
  1.02995213e-01 -3.25332491e-01  4.32324374e-02 -8.41675700e-03 -1.37991537e-02
  3.89028719e-02 -1.02987588e-01  3.25359497e-01 -4.32333817e-02 -5.82799801e-03
  1.50793319e-02  7.62997200e-03  1.31974508e-02  1.65713733e-02  4.73603262e-03
  5.26626332e-02 -6.86000234e-02  3.74110101e-02  6.33171971e-03  7.04746381e-02
  1.22531808e-01 -1.83263718e-01  5.67133411e-02  6.30673874e-01  9.30540105e-03
 -2.17922115e-02  1.00066283e-03 -5.08553567e-03 -1.96458911e-03 -2.82180534e-03
 -6.35964633e-03 -1.77508870e-02 -2.09017628e-03 -2.31857208e-02  6.02949362e-02
 -5.29025330e-02 -7.05840129e-03 -7.82014101e-02 -1.08190911e-01 -1.32122070e-01
 -1.70994721e-01 -1.89750091e+00 -1.10631654e-02 -4.15282615e-02 -2.53541799e-03
 -8.77369804e-03 -3.74191642e-03  5.58168308e-02  1.48039645e+00 -6.94938766e-04
 -4.53912642e-02 -5.48524840e-03 -6.08494006e-02 -2.46009525e-02 -6.70755697e-01
  2.94335288e-02  1.41485879e-02  1.20070869e-02 -3.20242826e-02 -2.46126816e-02
 -6.70998100e-01  2.94178982e-02  1.41509866e-02 -1.75436924e-02 -2.93731832e-02
  2.35919673e-02 -2.32843134e-01  7.62179311e-02 -2.43075991e-02  2.16097911e-02
  9.46821382e-03  2.35749453e-02 -2.33010262e-01  7.62627486e-02 -2.43004819e-02
 -1.95823491e-02  1.31733872e-02 -7.99148076e-07 -1.32797329e-06  6.51520304e-06
 -7.65193309e-02  6.87937799e-03  5.32598187e-06  8.40546500e-06 -1.32824001e-01
  1.19418151e-02  1.78524262e-06  1.58281124e-04 -1.54463609e+00  1.38917611e-01
  7.32281307e-04  4.87675812e-04 -4.66910117e-03  4.24013977e-04 -5.39019417e-03
  9.86924736e-07  1.97882439e-06  5.14874958e-06 -3.84855061e-02  3.46657625e-03
 -7.71642665e-06  1.54280880e-05 -9.91447912e-02  8.93165652e-03 -4.71294003e-05
 -4.38059785e-05  9.54203657e-01 -8.57008273e-02  8.47387599e-04 -3.90951786e-03
 -5.37637761e-03  4.84336932e-04  4.34811061e-02 -2.37796460e-06 -1.00160106e-04
 -3.90830389e-05  4.54503471e-06  5.05114611e-04 -4.15133839e-05  3.79969332e-02
 -1.39301358e-01 -1.80684874e-01  5.88780734e-02  8.38317549e-03 -7.48999145e-03
 -3.79930175e-02  1.39440846e-01  1.80707124e-01 -5.88822786e-02  9.58116000e-03
  5.87889983e-03  6.37144752e-02  1.44062976e+00 -6.82000441e-01  2.84396417e-02
 -3.74165703e-02 -4.87414837e-03 -6.37171847e-02 -1.44056851e+00  6.81997130e-01
 -2.84288728e-02 -3.59483674e-02  1.14708371e-02  9.94237234e-03  1.80101676e-02
  7.33379314e-02 -2.92862554e-03 -3.26244147e-02  2.80030049e-02  5.23190067e-02
 -7.63334034e-03 -8.49052495e-02 -1.52404006e+00  8.18163181e-01 -7.83975753e-02
 -8.72394681e-01  1.04393579e-02  1.11756963e-02 -5.80504373e-04 -2.44927370e-02
  1.00099956e-03  2.64164324e-02  5.47451709e-02  1.20919096e-01 -3.30535860e-03
 -3.68082314e-02 -3.77210371e-01  4.40845279e-01 -1.00695107e-02 -1.12188959e-01
  4.14771863e-01 -5.56293547e-01  3.87862660e-02  4.32113955e-01 -3.70830759e-03
  2.24369676e-02  2.78518928e-04  9.44225706e-03  2.02096998e-03  4.18836136e-02
  6.78454475e-02 -2.70881063e-01  6.15191027e-02  9.44122285e-04  1.04357929e-02
 -8.96971296e-03 -3.36532198e-02  8.07357161e-02  1.07014332e-02  1.29472590e-03
 -1.06107135e-02 -8.97061393e-03 -3.37053185e-02  8.06927836e-02  1.07044770e-02
 -3.17033323e-03 -1.02088628e-02  4.22799366e-02  1.34365704e+00 -3.13153543e-01
  5.64346513e-02 -3.88041933e-02 -2.29116347e-02  4.22796999e-02  1.34369844e+00
 -3.13180777e-01  5.64324385e-02  3.41010226e-02 -2.94708730e-02  5.72645098e-02
  1.02388329e-01 -7.82983282e-02 -3.31944728e-03 -3.68047521e-02 -3.09226809e-01
 -3.35417276e-04 -7.59483251e-03 -8.43591473e-02 -1.08342532e+00 -5.57346347e-01
 -4.45852998e-02 -4.94953052e-01 -4.26253703e-02 -1.11086689e-02 -3.34123827e-03
  3.69984588e-02 -9.94304866e-04 -5.60987983e-02 -1.08976137e-01 -1.64154423e-01
 -1.79897592e-03 -1.98652427e-02  3.69184216e-01 -5.32242456e-01 -6.83533356e-03
 -7.55605532e-02  1.92464869e+00  3.95503149e-01  2.95358535e-02  3.27660662e-01
  1.71951573e-02  2.43965418e-02 -1.71179701e-03 -4.86697781e-02  2.18970848e-03
 -9.00012463e-03 -7.87968157e-01 -5.59448313e-02  1.52536387e-02  1.12222856e-03
  1.24643228e-02 -2.95006799e-02 -7.41994414e-01  1.28467017e-01 -2.74975297e-02
  7.10869491e-03 -7.39465479e-04 -2.95019860e-02 -7.41980157e-01  1.28462850e-01