
    -----------------------------------------------------------------------
          Psi4: An Open-Source Ab Initio Electronic Structure Package
                               Psi4 1.3.2 release

                         Git: Rev {HEAD} ecbda83 


    R. M. Parrish, L. A. Burns, D. G. A. Smith, A. C. Simmonett,
    A. E. DePrince III, E. G. Hohenstein, U. Bozkaya, A. Yu. Sokolov,
    R. Di Remigio, R. M. Richard, J. F. Gonthier, A. M. James,
    H. R. McAlexander, A. Kumar, M. Saitow, X. Wang, B. P. Pritchard,
    P. Verma, H. F. Schaefer III, K. Patkowski, R. A. King, E. F. Valeev,
    F. A. Evangelista, J. M. Turney, T. D. Crawford, and C. D. Sherrill,
    J. Chem. Theory Comput. 13(7) pp 3185--3197 (2017).
    (doi: 10.1021/acs.jctc.7b00174)


                         Additional Contributions by
    P. Kraus, H. Kruse, M. H. Lechner, M. C. Schieber, R. A. Shaw,
    A. Alenaizan, R. Galvelis, Z. L. Glick, S. Lehtola, and J. P. Misiewicz

    -----------------------------------------------------------------------


    Psi4 started on: Monday, 21 September 2020 02:47PM

    Process ID: 22515
    Host:       node37.bme.utexas.edu
    PSIDATADIR: /home/bdw2292/miniconda3/envs/p4env/share/psi4
    Memory:     500.0 MiB
    Threads:    1
    
  ==> Input File <==

--------------------------------------------------------------------------
molecule { 
0 1
N           -0.722156283038    -0.004423082368    -0.048588286373
C            0.737742160428    -0.000901070855    -0.010586967857
H            1.186936028755     0.089475113060     0.992767157294
H            1.109349603056     0.828760686746    -0.620082520112
H            1.109460330258    -0.926021396300    -0.462115376391
H           -1.078071407997     0.848688803630     0.372536741546
H           -1.077951726461    -0.768718455164     0.518053879878
}
memory 700MB
set_num_threads(1)
psi4_io.set_default_path("/scratch/bdw2292/Psi4-methylamine")
set freeze_core True
set PROPERTIES_ORIGIN ["COM"]
E, wfn = energy('mp2/6-311G**',properties=['dipole'],return_wfn=True)
fchk(wfn, "methylamine-dma.fchk")
clean()
--------------------------------------------------------------------------

  Memory set to 667.572 MiB by Python driver.
  Threads set to 1 by Python driver.
    SCF Algorithm Type (re)set to DF.

*** tstart() called on node37.bme.utexas.edu
*** at Mon Sep 21 14:47:08 2020

   => Loading Basis Set <=

    Name: 6-311G**
    Role: ORBITAL
    Keyword: BASIS
    atoms 1   entry N          line   132 file /home/bdw2292/miniconda3/envs/p4env/share/psi4/basis/6-311gss.gbs 
    atoms 2   entry C          line   113 file /home/bdw2292/miniconda3/envs/p4env/share/psi4/basis/6-311gss.gbs 
    atoms 3-7 entry H          line    32 file /home/bdw2292/miniconda3/envs/p4env/share/psi4/basis/6-311gss.gbs 


         ---------------------------------------------------------
                                   SCF
               by Justin Turney, Rob Parrish, Andy Simmonett
                          and Daniel G. A. Smith
                              RHF Reference
                        1 Threads,    667 MiB Core
         ---------------------------------------------------------

  ==> Geometry <==

    Molecular point group: c1
    Full point group: C1

    Geometry (in Angstrom), charge = 0, multiplicity = 1:

       Center              X                  Y                   Z               Mass       
    ------------   -----------------  -----------------  -----------------  -----------------
         N           -0.722156283038    -0.004423082368    -0.048588286373    14.003074004430
         C            0.737742160428    -0.000901070855    -0.010586967857    12.000000000000
         H            1.186936028755     0.089475113060     0.992767157294     1.007825032230
         H            1.109349603056     0.828760686746    -0.620082520112     1.007825032230
         H            1.109460330258    -0.926021396300    -0.462115376391     1.007825032230
         H           -1.078071407997     0.848688803630     0.372536741546     1.007825032230
         H           -1.077951726461    -0.768718455164     0.518053879878     1.007825032230

  Running in c1 symmetry.

  Rotational constants: A =      3.43510  B =      0.76241  C =      0.73327 [cm^-1]
  Rotational constants: A = 102981.65846  B =  22856.60793  C =  21982.84030 [MHz]
  Nuclear repulsion =   41.999221843407319

  Charge       = 0
  Multiplicity = 1
  Electrons    = 18
  Nalpha       = 9
  Nbeta        = 9

  ==> Algorithm <==

  SCF Algorithm Type is DF.
  DIIS enabled.
  MOM disabled.
  Fractional occupation disabled.
  Guess Type is SAD.
  Energy threshold   = 1.00e-08
  Density threshold  = 1.00e-08
  Integral threshold = 0.00e+00

  ==> Primary Basis <==

  Basis Set: 6-311G**
    Blend: 6-311G**
    Number of shells: 36
    Number of basis function: 66
    Number of Cartesian functions: 68
    Spherical Harmonics?: true
    Max angular momentum: 2

   => Loading Basis Set <=

    Name: (6-311G** AUX)
    Role: JKFIT
    Keyword: DF_BASIS_SCF
    atoms 1   entry N          line   177 file /home/bdw2292/miniconda3/envs/p4env/share/psi4/basis/cc-pvtz-jkfit.gbs 
    atoms 2   entry C          line   125 file /home/bdw2292/miniconda3/envs/p4env/share/psi4/basis/cc-pvtz-jkfit.gbs 
    atoms 3-7 entry H          line    51 file /home/bdw2292/miniconda3/envs/p4env/share/psi4/basis/cc-pvtz-jkfit.gbs 

  ==> Pre-Iterations <==

   -------------------------------------------------------
    Irrep   Nso     Nmo     Nalpha   Nbeta   Ndocc  Nsocc
   -------------------------------------------------------
     A         66      66       0       0       0       0
   -------------------------------------------------------
    Total      66      66       9       9       9       0
   -------------------------------------------------------

  ==> Integral Setup <==

  DFHelper Memory: AOs need 0.012 GiB; user supplied 0.489 GiB. Using in-core AOs.

  ==> MemDFJK: Density-Fitted J/K Matrices <==

    J tasked:                   Yes
    K tasked:                   Yes
    wK tasked:                   No
    OpenMP threads:               1
    Memory [MiB]:               500
    Algorithm:                 Core
    Schwarz Cutoff:           1E-12
    Mask sparsity (%):       0.0000
    Fitting Condition:        1E-10

   => Auxiliary Basis Set <=

  Basis Set: (6-311G** AUX)
    Blend: CC-PVTZ-JKFIT
    Number of shells: 100
    Number of basis function: 308
    Number of Cartesian functions: 367
    Spherical Harmonics?: true
    Max angular momentum: 4

  Minimum eigenvalue in the overlap matrix is 5.5511588536E-03.
  Using Symmetric Orthogonalization.

  SCF Guess: Superposition of Atomic Densities via on-the-fly atomic UHF.

  ==> Iterations <==

                           Total Energy        Delta E     RMS |[F,P]|

   @DF-RHF iter SAD:   -94.64585570563244   -9.46459e+01   0.00000e+00 
   @DF-RHF iter   1:   -95.15042770994101   -5.04572e-01   6.20468e-03 DIIS
   @DF-RHF iter   2:   -95.22258697155135   -7.21593e-02   3.15759e-03 DIIS
   @DF-RHF iter   3:   -95.24073007775851   -1.81431e-02   5.00409e-04 DIIS
   @DF-RHF iter   4:   -95.24174905818676   -1.01898e-03   1.21889e-04 DIIS
   @DF-RHF iter   5:   -95.24179537808263   -4.63199e-05   3.21829e-05 DIIS
   @DF-RHF iter   6:   -95.24179876963673   -3.39155e-06   6.24910e-06 DIIS
   @DF-RHF iter   7:   -95.24179899005367   -2.20417e-07   1.54682e-06 DIIS
   @DF-RHF iter   8:   -95.24179900796827   -1.79146e-08   3.99169e-07 DIIS
   @DF-RHF iter   9:   -95.24179900948617   -1.51790e-09   9.24431e-08 DIIS
   @DF-RHF iter  10:   -95.24179900956321   -7.70370e-11   2.20976e-08 DIIS
   @DF-RHF iter  11:   -95.24179900956659   -3.38218e-12   3.60141e-09 DIIS
  Energy and wave function converged.


  ==> Post-Iterations <==

    Orbital Energies [Eh]
    ---------------------

    Doubly Occupied:                                                      

       1A    -15.530850     2A    -11.241091     3A     -1.166238  
       4A     -0.891233     5A     -0.657665     6A     -0.600175  
       7A     -0.551975     8A     -0.512733     9A     -0.388505  

    Virtual:                                                              

      10A      0.156656    11A      0.192804    12A      0.209605  
      13A      0.231649    14A      0.257663    15A      0.376702  
      16A      0.463748    17A      0.484638    18A      0.547794  
      19A      0.559777    20A      0.704997    21A      0.757434  
      22A      0.806118    23A      0.807366    24A      0.852686  
      25A      0.933034    26A      0.953389    27A      0.971638  
      28A      1.265970    29A      1.294158    30A      1.295398  
      31A      1.585561    32A      1.638888    33A      1.726740  
      34A      1.745329    35A      1.761221    36A      1.829307  
      37A      1.892992    38A      1.924706    39A      1.985262  
      40A      2.034267    41A      2.143898    42A      2.259301  
      43A      2.327754    44A      2.442958    45A      2.475292  
      46A      2.633671    47A      2.660865    48A      2.719904  
      49A      2.777218    50A      2.790399    51A      2.863832  
      52A      2.868192    53A      2.945378    54A      3.087326  
      55A      3.091630    56A      3.199744    57A      3.319751  
      58A      3.503627    59A      3.830906    60A      4.149873  
      61A      4.208428    62A      4.496025    63A      5.212896  
      64A      5.331189    65A     25.040919    66A     37.002090  

    Final Occupation by Irrep:
              A 
    DOCC [     9 ]

  @DF-RHF Final Energy:   -95.24179900956659

   => Energetics <=

    Nuclear Repulsion Energy =             41.9992218434073195
    One-Electron Energy =                -211.4011102312284720
    Two-Electron Energy =                  74.1600893782545540
    Total Energy =                        -95.2417990095665914

Computation Completed


Properties will be evaluated at  -0.000000,   0.000000,  -0.000000 [a0]

Properties computed using the SCF density matrix

  Nuclear Dipole Moment: [e a0]
     X:     1.1737      Y:     0.0677      Z:     0.7512

  Electronic Dipole Moment: [e a0]
     X:    -1.0247      Y:    -0.0175      Z:    -0.1932

  Dipole Moment: [e a0]
     X:     0.1489      Y:     0.0502      Z:     0.5580     Total:     0.5797

  Dipole Moment: [D]
     X:     0.3786      Y:     0.1276      Z:     1.4182     Total:     1.4734


*** tstop() called on node37.bme.utexas.edu at Mon Sep 21 14:47:10 2020
Module time:
	user time   =       1.24 seconds =       0.02 minutes
	system time =       0.04 seconds =       0.00 minutes
	total time  =          2 seconds =       0.03 minutes
Total time:
	user time   =       1.24 seconds =       0.02 minutes
	system time =       0.04 seconds =       0.00 minutes
	total time  =          2 seconds =       0.03 minutes

*** tstart() called on node37.bme.utexas.edu
*** at Mon Sep 21 14:47:10 2020


  //>>>>>>>>>>>>>>>>>>>>>>>>>>>>>>>>>>>//
  //               DFMP2               //
  //<<<<<<<<<<<<<<<<<<<<<<<<<<<<<<<<<<<//

   => Loading Basis Set <=

    Name: (6-311G** AUX)
    Role: RIFIT
    Keyword: DF_BASIS_MP2
    atoms 1   entry N          line   257 file /home/bdw2292/miniconda3/envs/p4env/share/psi4/basis/cc-pvtz-ri.gbs 
    atoms 2   entry C          line   209 file /home/bdw2292/miniconda3/envs/p4env/share/psi4/basis/cc-pvtz-ri.gbs 
    atoms 3-7 entry H          line    19 file /home/bdw2292/miniconda3/envs/p4env/share/psi4/basis/cc-pvtz-ri.gbs 

	 --------------------------------------------------------
	                          DF-MP2                         
	      2nd-Order Density-Fitted Moller-Plesset Theory     
	              RMP2 Wavefunction,   1 Threads             
	                                                         
	        Rob Parrish, Justin Turney, Andy Simmonett,      
	           Ed Hohenstein, and C. David Sherrill          
	 --------------------------------------------------------

   => Auxiliary Basis Set <=

  Basis Set: (6-311G** AUX)
    Blend: CC-PVTZ-RI
    Number of shells: 96
    Number of basis function: 312
    Number of Cartesian functions: 377
    Spherical Harmonics?: true
    Max angular momentum: 4

	 --------------------------------------------------------
	                 NBF =    66, NAUX =   312
	 --------------------------------------------------------
	   CLASS    FOCC     OCC    AOCC    AVIR     VIR    FVIR
	   PAIRS       2       9       7      57      57       0
	 --------------------------------------------------------

	-----------------------------------------------------------
	 ==================> DF-MP2 Energies <==================== 
	-----------------------------------------------------------
	 Reference Energy          =     -95.2417990095665914 [Eh]
	 Singles Energy            =      -0.0000000000000000 [Eh]
	 Same-Spin Energy          =      -0.0778079804123026 [Eh]
	 Opposite-Spin Energy      =      -0.2677684796091264 [Eh]
	 Correlation Energy        =      -0.3455764600214290 [Eh]
	 Total Energy              =     -95.5873754695880251 [Eh]
	-----------------------------------------------------------
	 ================> DF-SCS-MP2 Energies <================== 
	-----------------------------------------------------------
	 SCS Same-Spin Scale       =       0.3333333333333333 [-]
	 SCS Opposite-Spin Scale   =       1.2000000000000000 [-]
	 SCS Same-Spin Energy      =      -0.0259359934707675 [Eh]
	 SCS Opposite-Spin Energy  =      -0.3213221755309517 [Eh]
	 SCS Correlation Energy    =      -0.3472581690017192 [Eh]
	 SCS Total Energy          =     -95.5890571785683107 [Eh]
	-----------------------------------------------------------


*** tstop() called on node37.bme.utexas.edu at Mon Sep 21 14:47:10 2020
Module time:
	user time   =       0.31 seconds =       0.01 minutes
	system time =       0.00 seconds =       0.00 minutes
	total time  =          0 seconds =       0.00 minutes
Total time:
	user time   =       1.55 seconds =       0.03 minutes
	system time =       0.04 seconds =       0.00 minutes
	total time  =          2 seconds =       0.03 minutes

    Psi4 stopped on: Monday, 21 September 2020 02:47PM
    Psi4 wall time for execution: 0:00:01.79

*** Psi4 exiting successfully. Buy a developer a beer!
