Generated by Psi4
        SP                           RHF                         MINIX
Number of atoms                            I               27
Charge                                     I                0
Multiplicity                               I                1
Number of electrons                        I               96
Number of alpha electrons                  I               48
Number of beta electrons                   I               48
Number of basis functions                  I               79
Number of independent functions            I               79
Atomic numbers                             I   N=          27
           6           7           6           6           6           8
           6           6           6           6           6           1
           1           1           7           1           1           1
           1           1           1           6           1           1
           1           1           1
Nuclear charges                            R   N=          27
  6.00000000e+00  7.00000000e+00  6.00000000e+00  6.00000000e+00  6.00000000e+00
  8.00000000e+00  6.00000000e+00  6.00000000e+00  6.00000000e+00  6.00000000e+00
  6.00000000e+00  1.00000000e+00  1.00000000e+00  1.00000000e+00  7.00000000e+00
  1.00000000e+00  1.00000000e+00  1.00000000e+00  1.00000000e+00  1.00000000e+00
  1.00000000e+00  6.00000000e+00  1.00000000e+00  1.00000000e+00  1.00000000e+00
  1.00000000e+00  1.00000000e+00
Current cartesian coordinates              R   N=          81
 -2.39493283e+00 -3.84300511e-01 -2.78342891e-01 -8.66323712e-02 -7.15191555e-01
  1.14991211e+00  2.25700597e+00  1.82806300e-01  2.52670150e-01  4.54187383e+00
 -1.22006524e-01  2.07058668e+00 -3.35320329e-01 -1.85809792e+00  3.66060225e+00
  2.57958222e+00  1.23217122e+00 -1.80750927e+00 -4.75671255e+00 -3.64269414e-01
  9.33160528e-01 -6.99925054e+00  2.91276579e-01 -3.03620920e+00 -7.01569116e+00
 -5.41653565e-02 -4.22717967e-01 -4.66354905e+00  1.90365204e-01 -4.26320837e+00
 -2.40457044e+00 -1.23140360e-01 -2.90959755e+00  1.41418812e+00 -2.77102461e+00
  4.26172413e+00 -1.77774828e+00 -3.34115498e+00  3.65134259e+00 -8.14176929e-01
 -3.79576195e-01  5.02479553e+00  6.79499429e+00  1.22725793e+00  1.11419629e+00
  4.96044816e+00 -2.14949368e+00  2.15241182e+00  4.05829291e+00  5.71711936e-01
  3.95955692e+00 -4.92811070e+00 -5.36990382e-01  2.97009632e+00 -8.78560864e+00
 -6.43698776e-02  6.15119621e-01 -4.56717301e+00  3.44188911e-01 -6.30997074e+00
 -6.80006375e-01 -2.31043722e-01 -4.01433144e+00  9.16319907e+00  3.74613501e-01
  2.28866108e+00  9.63355190e+00 -1.48827851e+00  1.51179467e+00  8.93662091e+00
  1.30649859e-01  4.33580139e+00 -8.64954836e+00  6.09317486e-01 -4.02566980e+00
  6.57824270e+00  3.10942515e+00  1.46927583e+00  1.05935328e+01  1.75543638e+00
  1.92016448e+00
Integer atomic weights                     I   N=          27
          12          14          12          12          12          16
          12          12          12          12          12           1
           1           1          14           1           1           1
           1           1           1          12           1           1
           1           1           1
Real atomic weights                        R   N=          27
  1.20000000e+01  1.40030740e+01  1.20000000e+01  1.20000000e+01  1.20000000e+01
  1.59949146e+01  1.20000000e+01  1.20000000e+01  1.20000000e+01  1.20000000e+01
  1.20000000e+01  1.00782503e+00  1.00782503e+00  1.00782503e+00  1.40030740e+01
  1.00782503e+00  1.00782503e+00  1.00782503e+00  1.00782503e+00  1.00782503e+00
  1.00782503e+00  1.20000000e+01  1.00782503e+00  1.00782503e+00  1.00782503e+00
  1.00782503e+00  1.00782503e+00
Number of primitive shells                 I              159
Number of contracted shells                I               53
Pure/Cartesian d shells                    I                0
Pure/Cartesian f shells                    I                0
Highest angular momentum                   I                1
Largest degree of contraction              I                3
Shell types                                I   N=          53
           0           0           1           0           0           1
           0           0           1           0           0           1
           0           0           1           0           0           1
           0           0           1           0           0           1
           0           0           1           0           0           1
           0           0           1           0           0           0
           0           0           1           0           0           0
           0           0           0           0           0           1
           0           0           0           0           0
Number of primitives per shell             I   N=          53
           3           3           3           3           3           3
           3           3           3           3           3           3
           3           3           3           3           3           3
           3           3           3           3           3           3
           3           3           3           3           3           3
           3           3           3           3           3           3
           3           3           3           3           3           3
           3           3           3           3           3           3
           3           3           3           3           3
Shell to atom map                          I   N=          53
           1           1           1           2           2           2
           3           3           3           4           4           4
           5           5           5           6           6           6
           7           7           7           8           8           8
           9           9           9          10          10          10
          11          11          11          12          13          14
          15          15          15          16          17          18
          19          20          21          22          22          22
          23          24          25          26          27
Primitive exponents                        R   N=         159
  1.53172260e+02  2.30730300e+01  4.92329000e+00  6.61661200e+00  5.25856000e-01
  1.69958000e-01  4.91292000e+00  9.97616000e-01  2.32685000e-01  2.18364490e+02
  3.25988900e+01  6.91739000e+00  8.91942600e+00  7.06141000e-01  2.25054000e-01
  6.55627200e+00  1.34907900e+00  3.12209000e-01  1.53172260e+02  2.30730300e+01
  4.92329000e+00  6.61661200e+00  5.25856000e-01  1.69958000e-01  4.91292000e+00
  9.97616000e-01  2.32685000e-01  1.53172260e+02  2.30730300e+01  4.92329000e+00
  6.61661200e+00  5.25856000e-01  1.69958000e-01  4.91292000e+00  9.97616000e-01
  2.32685000e-01  1.53172260e+02  2.30730300e+01  4.92329000e+00  6.61661200e+00
  5.25856000e-01  1.69958000e-01  4.91292000e+00  9.97616000e-01  2.32685000e-01
  2.81866580e+02  4.24160000e+01  9.09562000e+00  1.17893260e+01  9.12894000e-01
  2.86661000e-01  8.27414000e+00  1.71546300e+00  3.83013000e-01  1.53172260e+02
  2.30730300e+01  4.92329000e+00  6.61661200e+00  5.25856000e-01  1.69958000e-01
  4.91292000e+00  9.97616000e-01  2.32685000e-01  1.53172260e+02  2.30730300e+01
  4.92329000e+00  6.61661200e+00  5.25856000e-01  1.69958000e-01  4.91292000e+00
  9.97616000e-01  2.32685000e-01  1.53172260e+02  2.30730300e+01  4.92329000e+00
  6.61661200e+00  5.25856000e-01  1.69958000e-01  4.91292000e+00  9.97616000e-01
  2.32685000e-01  1.53172260e+02  2.30730300e+01  4.92329000e+00  6.61661200e+00
  5.25856000e-01  1.69958000e-01  4.91292000e+00  9.97616000e-01  2.32685000e-01
  1.53172260e+02  2.30730300e+01  4.92329000e+00  6.61661200e+00  5.25856000e-01
  1.69958000e-01  4.91292000e+00  9.97616000e-01  2.32685000e-01  7.03406300e+00
  1.06475600e+00  2.36559000e-01  7.03406300e+00  1.06475600e+00  2.36559000e-01
  7.03406300e+00  1.06475600e+00  2.36559000e-01  2.18364490e+02  3.25988900e+01
  6.91739000e+00  8.91942600e+00  7.06141000e-01  2.25054000e-01  6.55627200e+00
  1.34907900e+00  3.12209000e-01  7.03406300e+00  1.06475600e+00  2.36559000e-01
  7.03406300e+00  1.06475600e+00  2.36559000e-01  7.03406300e+00  1.06475600e+00
  2.36559000e-01  7.03406300e+00  1.06475600e+00  2.36559000e-01  7.03406300e+00
  1.06475600e+00  2.36559000e-01  7.03406300e+00  1.06475600e+00  2.36559000e-01
  1.53172260e+02  2.30730300e+01  4.92329000e+00  6.61661200e+00  5.25856000e-01
  1.69958000e-01  4.91292000e+00  9.97616000e-01  2.32685000e-01  7.03406300e+00
  1.06475600e+00  2.36559000e-01  7.03406300e+00  1.06475600e+00  2.36559000e-01
  7.03406300e+00  1.06475600e+00  2.36559000e-01  7.03406300e+00  1.06475600e+00
  2.36559000e-01  7.03406300e+00  1.06475600e+00  2.36559000e-01
Contraction coefficients                   R   N=         159
  7.07400095e-02  3.95380053e-01  6.63311089e-01 -8.13799884e-02  5.74852918e-01
  5.02412928e-01  1.09930928e-01  4.62712695e-01  6.27513586e-01  6.78700100e-02
  3.90202057e-01  6.70083099e-01 -8.08899713e-02  5.67201799e-01  5.11091818e-01
  1.15918975e-01  4.69957900e-01  6.18447868e-01  7.07400095e-02  3.95380053e-01
  6.63311089e-01 -8.13799884e-02  5.74852918e-01  5.02412928e-01  1.09930928e-01
  4.62712695e-01  6.27513586e-01  7.07400095e-02  3.95380053e-01  6.63311089e-01
 -8.13799884e-02  5.74852918e-01  5.02412928e-01  1.09930928e-01  4.62712695e-01
  6.27513586e-01  7.07400095e-02  3.95380053e-01  6.63311089e-01 -8.13799884e-02
  5.74852918e-01  5.02412928e-01  1.09930928e-01  4.62712695e-01  6.27513586e-01
  6.90600291e-02  3.93159166e-01  6.65669281e-01 -8.08199297e-02  5.82089494e-01
  4.97159568e-01  1.24271003e-01  4.76594010e-01  6.13044013e-01  7.07400095e-02
  3.95380053e-01  6.63311089e-01 -8.13799884e-02  5.74852918e-01  5.02412928e-01
  1.09930928e-01  4.62712695e-01  6.27513586e-01  7.07400095e-02  3.95380053e-01
  6.63311089e-01 -8.13799884e-02  5.74852918e-01  5.02412928e-01  1.09930928e-01
  4.62712695e-01  6.27513586e-01  7.07400095e-02  3.95380053e-01  6.63311089e-01
 -8.13799884e-02  5.74852918e-01  5.02412928e-01  1.09930928e-01  4.62712695e-01
  6.27513586e-01  7.07400095e-02  3.95380053e-01  6.63311089e-01 -8.13799884e-02
  5.74852918e-01  5.02412928e-01  1.09930928e-01  4.62712695e-01  6.27513586e-01
  7.07400095e-02  3.95380053e-01  6.63311089e-01 -8.13799884e-02  5.74852918e-01
  5.02412928e-01  1.09930928e-01  4.62712695e-01  6.27513586e-01  7.04520124e-02
  4.07826072e-01  6.47752114e-01  7.04520124e-02  4.07826072e-01  6.47752114e-01
  7.04520124e-02  4.07826072e-01  6.47752114e-01  6.78700100e-02  3.90202057e-01
  6.70083099e-01 -8.08899713e-02  5.67201799e-01  5.11091818e-01  1.15918975e-01
  4.69957900e-01  6.18447868e-01  7.04520124e-02  4.07826072e-01  6.47752114e-01
  7.04520124e-02  4.07826072e-01  6.47752114e-01  7.04520124e-02  4.07826072e-01
  6.47752114e-01  7.04520124e-02  4.07826072e-01  6.47752114e-01  7.04520124e-02
  4.07826072e-01  6.47752114e-01  7.04520124e-02  4.07826072e-01  6.47752114e-01
  7.07400095e-02  3.95380053e-01  6.63311089e-01 -8.13799884e-02  5.74852918e-01
  5.02412928e-01  1.09930928e-01  4.62712695e-01  6.27513586e-01  7.04520124e-02
  4.07826072e-01  6.47752114e-01  7.04520124e-02  4.07826072e-01  6.47752114e-01
  7.04520124e-02  4.07826072e-01  6.47752114e-01  7.04520124e-02  4.07826072e-01
  6.47752114e-01  7.04520124e-02  4.07826072e-01  6.47752114e-01
Coordinates of each shell                  R   N=         159
 -2.39493283e+00 -3.84300511e-01 -2.78342891e-01 -2.39493283e+00 -3.84300511e-01
 -2.78342891e-01 -2.39493283e+00 -3.84300511e-01 -2.78342891e-01 -8.66323712e-02
 -7.15191555e-01  1.14991211e+00 -8.66323712e-02 -7.15191555e-01  1.14991211e+00
 -8.66323712e-02 -7.15191555e-01  1.14991211e+00  2.25700597e+00  1.82806300e-01
  2.52670150e-01  2.25700597e+00  1.82806300e-01  2.52670150e-01  2.25700597e+00
  1.82806300e-01  2.52670150e-01  4.54187383e+00 -1.22006524e-01  2.07058668e+00
  4.54187383e+00 -1.22006524e-01  2.07058668e+00  4.54187383e+00 -1.22006524e-01
  2.07058668e+00 -3.35320329e-01 -1.85809792e+00  3.66060225e+00 -3.35320329e-01
 -1.85809792e+00  3.66060225e+00 -3.35320329e-01 -1.85809792e+00  3.66060225e+00
  2.57958222e+00  1.23217122e+00 -1.80750927e+00  2.57958222e+00  1.23217122e+00
 -1.80750927e+00  2.57958222e+00  1.23217122e+00 -1.80750927e+00 -4.75671255e+00
 -3.64269414e-01  9.33160528e-01 -4.75671255e+00 -3.64269414e-01  9.33160528e-01
 -4.75671255e+00 -3.64269414e-01  9.33160528e-01 -6.99925054e+00  2.91276579e-01
 -3.03620920e+00 -6.99925054e+00  2.91276579e-01 -3.03620920e+00 -6.99925054e+00
  2.91276579e-01 -3.03620920e+00 -7.01569116e+00 -5.41653565e-02 -4.22717967e-01
 -7.01569116e+00 -5.41653565e-02 -4.22717967e-01 -7.01569116e+00 -5.41653565e-02
 -4.22717967e-01 -4.66354905e+00  1.90365204e-01 -4.26320837e+00 -4.66354905e+00
  1.90365204e-01 -4.26320837e+00 -4.66354905e+00  1.90365204e-01 -4.26320837e+00
 -2.40457044e+00 -1.23140360e-01 -2.90959755e+00 -2.40457044e+00 -1.23140360e-01
 -2.90959755e+00 -2.40457044e+00 -1.23140360e-01 -2.90959755e+00  1.41418812e+00
 -2.77102461e+00  4.26172413e+00 -1.77774828e+00 -3.34115498e+00  3.65134259e+00
 -8.14176929e-01 -3.79576195e-01  5.02479553e+00  6.79499429e+00  1.22725793e+00
  1.11419629e+00  6.79499429e+00  1.22725793e+00  1.11419629e+00  6.79499429e+00
  1.22725793e+00  1.11419629e+00  4.96044816e+00 -2.14949368e+00  2.15241182e+00
  4.05829291e+00  5.71711936e-01  3.95955692e+00 -4.92811070e+00 -5.36990382e-01
  2.97009632e+00 -8.78560864e+00 -6.43698776e-02  6.15119621e-01 -4.56717301e+00
  3.44188911e-01 -6.30997074e+00 -6.80006375e-01 -2.31043722e-01 -4.01433144e+00
  9.16319907e+00  3.74613501e-01  2.28866108e+00  9.16319907e+00  3.74613501e-01
  2.28866108e+00  9.16319907e+00  3.74613501e-01  2.28866108e+00  9.63355190e+00
 -1.48827851e+00  1.51179467e+00  8.93662091e+00  1.30649859e-01  4.33580139e+00
 -8.64954836e+00  6.09317486e-01 -4.02566980e+00  6.57824270e+00  3.10942515e+00
  1.46927583e+00  1.05935328e+01  1.75543638e+00  1.92016448e+00
Total Energy                               R     -5.666606572871965e+02
Alpha Orbital Energies                     R   N=          79
 -2.02983723e+01 -1.54514260e+01 -1.53756487e+01 -1.13168202e+01 -1.12338619e+01
 -1.12179456e+01 -1.12115933e+01 -1.11838131e+01 -1.11751701e+01 -1.11718579e+01
 -1.11679390e+01 -1.11674739e+01 -1.11634988e+01 -1.36981706e+00 -1.24243993e+00
 -1.19416641e+00 -1.14502728e+00 -1.02559395e+00 -1.01250287e+00 -9.82045660e-01
 -9.49794349e-01 -8.79524358e-01 -8.29286339e-01 -8.16424408e-01 -7.50243730e-01
 -6.94971090e-01 -6.81602554e-01 -6.74054445e-01 -6.50581132e-01 -6.45265658e-01
 -6.17776848e-01 -6.04961804e-01 -6.03747587e-01 -5.76880620e-01 -5.74179513e-01
 -5.57927287e-01 -5.46248200e-01 -5.35235645e-01 -5.28028328e-01 -5.13563783e-01
 -5.02744959e-01 -4.96081285e-01 -4.81933805e-01 -4.03120123e-01 -3.88803900e-01
 -3.54004456e-01 -3.41499248e-01 -3.06753612e-01  1.79239611e-01  1.89613148e-01
  2.45698593e-01  4.28103563e-01  4.46563791e-01  5.09328162e-01  5.32480831e-01
  5.50474971e-01  5.99197770e-01  6.16119189e-01  6.30519288e-01  6.52300774e-01
  6.57105594e-01  6.66866969e-01  6.79368231e-01  6.83680143e-01  6.92780562e-01
  7.01433720e-01  7.07200516e-01  7.25975460e-01  7.39684841e-01  7.58853114e-01
  7.65311162e-01  7.98208211e-01  8.50665501e-01  8.67243860e-01  8.81387256e-01
  9.18939896e-01  9.50364599e-01  1.05016934e+00  1.12008268e+00
Alpha MO coefficients                      R   N=        6241
  4.64253305e-06  3.62785699e-05  7.88836021e-05 -6.71490674e-05  1.59807340e-04
  2.36702466e-05  3.05766771e-04  6.43845320e-04 -4.19446346e-04  1.14177518e-03
 -8.03360613e-04  1.48107267e-02  1.98986568e-03  6.56101283e-03 -1.28702089e-02
  7.92606697e-06  2.39268520e-04 -8.00262966e-04 -5.40191088e-04  6.59285899e-04
 -2.18951617e-05 -1.34583029e-04  3.42522857e-04  1.05088918e-04  2.19880869e-05
 -9.90387372e-01 -4.91241640e-02  1.62864948e-03  4.95177500e-03 -9.61768197e-03
  1.36015818e-06 -1.99751491e-05 -1.66020722e-05 -2.07802811e-06 -1.26597398e-05
  7.47948720e-07 -1.36553254e-05 -9.82648242e-06  8.81094794e-06 -1.10261138e-07
 -2.46778342e-07 -6.15075973e-07  3.00372757e-06 -1.47704214e-06 -3.50738605e-06
 -3.40592635e-06  1.26705893e-04  3.96658182e-05 -6.75169051e-05  3.96796605e-05
  2.06096266e-06 -3.12141064e-04  4.41638069e-05  2.15665795e-04  3.75507559e-04
  1.08078522e-05  1.42295745e-04 -3.98907533e-07 -9.26671177e-06  2.23737056e-04
 -1.27680918e-04 -5.73194751e-05 -3.52998474e-05 -1.47122727e-04 -1.24316237e-04
  1.54187522e-05  1.49264646e-06 -3.10720394e-06  1.07103263e-03 -2.38006702e-06
  2.82860489e-05 -3.44461378e-05 -1.31868968e-06  1.29467814e-05  1.86725321e-06
 -9.33068986e-06 -8.57121866e-07 -6.22686795e-06  7.16622452e-06 -5.48107244e-04
  9.29493979e-03  8.04771627e-03 -1.07795940e-03  4.88739894e-03 -9.89018006e-01
 -5.85755695e-02 -2.72237047e-04 -7.38040782e-04  2.40497225e-04 -5.79400723e-04
  1.04991298e-02 -8.74584284e-03 -3.25584764e-03  3.20049273e-03 -1.17031150e-06
  2.06422604e-04  2.65343644e-04  2.39774564e-04 -4.86509699e-04 -5.70961054e-04
  9.32537204e-03  9.02138687e-04  3.45970822e-03 -7.74180642e-03  5.27858889e-06
  1.96089528e-04  9.97941580e-04  1.58881061e-04  6.31487162e-05  8.56952942e-06
  3.50526647e-04 -2.37888865e-04  2.01006672e-04 -7.98803832e-04 -4.55496520e-06
 -7.26323574e-05  5.80464446e-05 -8.13115291e-06  3.62917547e-05 -1.01388408e-05
 -1.66528961e-04  1.03723919e-04 -1.02284397e-05 -1.53781383e-04 -1.07967894e-05
 -1.45152984e-04 -7.78017468e-05  8.70868273e-06  1.79525755e-04  7.96473777e-06
  3.47474811e-04 -8.14509171e-04 -4.08517503e-05  1.87341997e-04 -1.12302320e-04
 -8.14837482e-05  1.49028714e-04  3.10286709e-04 -2.15522418e-05 -1.48640124e-04
  4.96743218e-05 -1.50869958e-04 -9.74918604e-05 -5.77058381e-05  4.30564641e-05
  1.01459800e-04  1.03436009e-04  1.23726869e-04 -1.24530213e-06  5.36216428e-05
 -2.56768566e-05  2.74377889e-05 -8.08613879e-06 -1.48126630e-06 -9.36421193e-07
  5.48487976e-05 -1.32920245e-05 -8.77958764e-06 -1.95926074e-06  5.19998811e-05
  3.79475856e-05 -5.83468265e-06  2.62612565e-05 -3.38635049e-04 -3.58165742e-05
  1.54446282e-04  5.91522295e-06  5.26673024e-05 -1.45527209e-05  1.19765538e-04
  4.10580341e-05 -2.39486933e-04  2.19593502e-04 -5.67010295e-04  9.51837797e-03
  7.25961938e-03  4.28467230e-03 -2.70878966e-03 -9.26722197e-06 -2.41131577e-05
  1.55268858e-04  1.57138091e-04 -8.84844826e-05 -4.06204339e-05  1.48101553e-04
  1.97068770e-04  5.18931203e-05  4.61046139e-05  1.17898661e-07 -2.38820214e-06
  5.45267224e-07 -6.20175095e-07 -2.69691051e-06 -1.38816515e-08 -5.61618236e-07
  7.12625110e-08  6.67368672e-08  1.22153868e-07 -1.04470547e-07  8.24288420e-07
  1.51669925e-06  1.14323904e-07 -2.54063748e-07 -1.16993153e-07  2.42536939e-06
  8.62660501e-07 -1.42436878e-06  1.97140339e-06 -1.36645542e-07 -8.51903554e-07
  2.05581945e-06  4.23796504e-06  5.63861129e-06  2.77000372e-04  8.77731915e-05
 -1.48235959e-05 -9.89166159e-01 -5.70023715e-02  4.49324177e-04 -1.47801752e-03
 -7.24627970e-03 -2.40162952e-04 -1.39550681e-04  4.73073117e-06  4.47650561e-07
  4.61405435e-07  9.72070007e-06 -5.78622673e-04  9.85456790e-03 -7.50709485e-03
  2.86321978e-03 -3.54792670e-03 -4.59117191e-05 -1.17961513e-04  2.55776246e-07
  1.27390042e-02 -2.56878584e-04  2.52771050e-03  8.39933191e-04  1.15992995e-03
  1.95964219e-04  1.31108555e-04 -9.67891925e-04  8.86049895e-03  5.83799159e-03
  2.32539355e-03 -2.46724328e-03 -9.89227616e-01 -5.42218067e-02  9.99202228e-05
 -2.07330602e-04 -5.53864946e-05  1.00279277e-02  9.75239787e-03 -5.98092571e-03
  1.07707695e-03 -5.08155813e-03  1.78240613e-03  8.98726029e-04  3.99478177e-04
  4.27166632e-04 -7.08369311e-04 -6.60970005e-04  1.03914223e-02 -7.21973319e-04
 -1.82591524e-03  3.60296103e-03  1.50232490e-04  2.31564573e-04  1.02436836e-04
 -6.92943442e-05 -1.08103507e-04  1.59215965e-06 -2.25693055e-05 -6.15877630e-07
 -1.41021059e-09  4.80376921e-06  1.85866189e-05 -1.02091547e-06  1.98769694e-05
  8.21673296e-06 -7.84478451e-06  1.11252119e-04  2.31791118e-04  8.70063440e-05
 -5.03267268e-05  1.08392676e-04  4.58496943e-04 -1.58079285e-05  4.62102793e-04
  4.94674159e-05  3.50301627e-04  2.74833253e-05  9.62096581e-05  3.87325525e-08
 -5.36089606e-05  2.10656943e-05 -1.37974428e-04  1.22294908e-05 -1.66298390e-04
  5.93055664e-04  4.24326890e-04 -3.52722889e-06  1.05682375e-05  9.70894945e-06
  5.03491472e-04  2.38033826e-04  1.61226121e-04 -2.69128848e-04 -8.96441599e-05
  7.31749656e-05 -4.17162573e-05  2.99876351e-05  7.74045500e-06  1.61867713e-04
  7.31498070e-05  9.88473180e-01  6.04443436e-02 -2.48756665e-03  1.31152001e-04
 -1.40941969e-03  9.53323657e-04 -7.96948339e-03  5.44162712e-03 -7.57108174e-04
  3.49004129e-03  2.73794923e-03 -7.96714922e-04  1.02579652e-03  1.33406824e-06
  1.41986397e-04 -1.27164014e-03 -2.79887724e-04  1.26515157e-04  2.60910555e-05
  1.03683785e-04 -1.24669973e-02 -1.46882117e-03  3.52169782e-04 -3.59988788e-04
  9.29246160e-04  2.51042699e-06  7.55282394e-05  3.09688981e-05 -7.29973758e-05
  7.84760695e-05 -1.20428555e-02 -1.29749105e-02 -8.20318118e-03  8.25930470e-05
  4.05763860e-03 -7.36590039e-04 -1.56734915e-04 -2.09783080e-04  2.89171889e-05
 -1.28384148e-04 -1.72889931e-03 -4.11401994e-04 -1.55864194e-04  5.88702875e-05
 -3.96467185e-04 -1.69005876e-03 -4.43701854e-04 -4.37694786e-04  2.25877171e-05
  1.55558578e-05 -1.11420586e-02 -1.29583314e-02 -2.10325928e-04  9.56677521e-04
 -9.11361613e-03 -3.02975665e-05 -1.71600032e-04  1.18480657e-04  3.10959537e-06
 -6.46281644e-06  1.52439537e-05 -1.57218279e-06  5.80664982e-06  4.19831222e-05
  2.55551134e-05 -2.53347597e-04 -6.04016056e-05 -6.64787030e-05 -2.98099826e-04
 -1.36609382e-05 -5.28350460e-06  5.06713012e-06 -4.93808601e-07 -7.84209619e-07
  6.72393964e-07 -4.21059267e-07 -9.01953349e-05  2.84293956e-06 -7.85753982e-07
  1.26532693e-02  1.34788140e-04 -6.95753617e-04  3.01578936e-04 -9.48948428e-04
  1.06013697e-03 -8.77341802e-03  6.21643538e-04  3.04831571e-03 -6.38836425e-03
  1.87951736e-03 -5.29185784e-04  8.77510279e-04  3.85476007e-04 -5.59297489e-04
 -1.30155366e-02 -9.92588598e-04  5.79207545e-04  2.65489976e-04 -2.21491845e-05
  9.88179482e-01  6.21127341e-02  1.06689521e-04 -2.12519132e-04  3.86560435e-04
  2.37383474e-05 -2.24438524e-04 -3.76292907e-05  5.71653480e-05 -1.10470677e-04
 -1.58592841e-03 -2.37319857e-04 -7.79809098e-04  1.21447626e-04 -2.03224556e-04
 -2.09367005e-05  2.31214240e-05 -4.13683281e-06 -1.12584783e-06  3.12174986e-06
 -5.40014296e-04 -3.07455911e-04 -1.75401658e-04  5.83432314e-06 -5.52118522e-05
 -1.09668669e-04 -1.58489189e-05 -1.18251969e-05  9.02081262e-06 -2.11978664e-05
 -7.02507238e-04 -4.58260954e-04  1.78726418e-05 -1.56209874e-05 -3.10417132e-04
 -1.26943964e-02 -1.26072630e-02 -1.27156628e-02  6.88771087e-06 -6.04190000e-05
  3.48577194e-05  3.71872176e-05 -8.22617552e-07  3.87120485e-04 -3.03705424e-04
 -5.92624410e-04 -6.77833860e-06 -1.03750213e-05 -2.79563477e-06 -4.01602008e-05
 -8.26901416e-06  1.05100891e-05  4.50274405e-06 -2.90287209e-06 -2.64033151e-06
  1.00081024e-05 -8.30930383e-06  6.01965241e-06 -4.23095939e-06  1.44251117e-03
  5.31642505e-05 -2.40482585e-04 -6.53717952e-05  6.58079705e-05  6.59572078e-05
 -3.83229858e-04 -1.34645108e-04 -1.14695164e-04  2.89865585e-04  1.17426764e-02
 -9.57143508e-03 -6.62690567e-03  6.53252004e-04 -4.93417690e-03  9.88174184e-01
  6.14923434e-02 -5.50066155e-04 -7.17928167e-04  1.83272514e-04  1.30811409e-02
  6.89439297e-04 -4.89502885e-04 -4.40340291e-04  3.04853048e-04  3.67587091e-05
 -2.51519824e-04  3.23654033e-04  5.35832597e-06  2.13840479e-04 -1.97309376e-04
 -1.12570168e-04 -6.92523979e-05  2.15116523e-05  4.14923498e-05 -3.87938954e-06
  3.79111867e-06 -2.01075102e-08 -3.76569446e-07 -5.89450784e-07 -1.66199428e-05
 -1.96046951e-06 -2.48497931e-06 -2.27678526e-06 -8.59080559e-07 -1.06737172e-04
 -5.48556003e-05 -2.26195700e-05  1.12423272e-05 -2.24500664e-05 -2.93757742e-04
 -9.27609328e-06 -1.02551371e-04 -5.92724505e-06 -6.92239050e-05 -8.82223937e-04
 -3.84045183e-04 -6.83594184e-05  1.01502765e-03 -8.15989572e-03  5.60698063e-03
  3.38932079e-03 -1.78085154e-03 -1.25260206e-02 -1.24878024e-02 -2.30039728e-05
 -1.68722437e-06 -1.26522954e-06 -3.92906577e-05 -8.15080808e-03 -1.32611375e-03
  1.32399998e-03  2.82989520e-04  1.00709366e-04  1.47635656e-04 -2.71835430e-04
 -1.33337245e-06 -1.29044239e-03 -2.57481837e-04  2.60987773e-05 -2.59028680e-06
 -1.03146689e-05 -1.14952554e-06 -3.74285232e-07  4.83863043e-06 -2.01592518e-05
 -2.65799943e-05  1.46063775e-07  1.07173130e-05  3.83712022e-04 -3.44291038e-04
 -2.35187075e-04 -2.67826029e-05 -1.94632150e-04  8.42335062e-03 -3.36284130e-04
 -1.36279521e-03 -1.85831231e-04 -1.97781942e-04  1.53288200e-04 -4.18705771e-06
 -3.08378684e-05 -1.93567622e-05  6.76308362e-06  3.56476279e-06 -2.98573383e-06
 -1.33701462e-05  4.84600680e-07  5.47866327e-06 -1.90075467e-05 -4.09429101e-06
 -2.42320270e-06  6.94994371e-07  1.38614437e-06  4.19816397e-07  3.90238475e-07
  9.52719066e-08 -7.05003139e-08 -5.62060076e-08 -2.49643112e-06 -1.24546042e-07
 -8.08501176e-08 -7.87816136e-08  4.22105802e-08 -1.37462406e-05 -2.73381967e-06
 -8.03697371e-07  4.81415731e-07 -9.45182894e-07 -2.68692803e-05 -7.80212277e-07
 -4.04700382e-06 -3.80585812e-07 -3.36279413e-06 -3.08402376e-06 -1.41687298e-05
  1.52301536e-06  1.06527808e-03 -8.72413933e-03 -6.12979891e-03  2.26493678e-03
 -2.48873655e-03 -4.57807527e-04 -6.99968899e-05 -7.44713195e-07 -7.96469135e-08
  4.50958056e-08 -3.15127701e-06  9.88295347e-01  6.24003149e-02  2.11997225e-04
 -4.14222113e-05  2.25059675e-04 -1.26713855e-02 -1.27309357e-02 -5.55513818e-08
 -1.36371551e-03 -1.30902701e-02  1.18240648e-04  1.04216096e-03 -6.67293043e-04
  4.69782807e-05  1.65073781e-05  1.03940852e-05  3.27197760e-05  1.14769865e-04
  2.34877597e-06 -6.78964991e-05 -9.86697711e-07 -3.09521086e-05  5.59314289e-06
  2.49112283e-05 -2.64967521e-05 -1.46655730e-05  7.12527294e-06 -3.02732662e-06
  4.10625320e-07 -4.29126200e-06  3.60431649e-04  4.58282574e-06  1.04307421e-04
 -3.37551909e-05  2.79176556e-05  3.28662739e-07 -7.62392315e-06 -2.23962426e-06
 -8.36380796e-07 -5.51789676e-06 -1.11773660e-01 -1.91200428e-02  7.75760473e-03
 -1.11484645e-03  4.87735594e-03 -1.09763960e-01 -1.90202725e-02  2.28553740e-05
  1.20228765e-03 -9.18454227e-03  9.75701143e-01  6.35214889e-02  2.96820795e-03
  1.20648743e-04 -1.59642127e-03 -1.38597482e-02  1.43888342e-04 -4.13518621e-04
  2.85873251e-05  2.78988151e-04 -3.63108879e-03 -1.52811674e-04  2.38511206e-04
  1.93963928e-05 -2.92685625e-04 -5.42732413e-05  2.78877432e-05  1.82758369e-06
  1.79186313e-07 -9.49989830e-07  1.13849142e-06  4.62383284e-07  2.88432827e-07
  1.53994746e-06 -1.29384507e-07  8.98413494e-04 -1.14659831e-02  6.13645272e-05
 -8.76784212e-05  8.88757651e-08 -9.16629928e-08 -3.96054130e-08 -7.16185744e-08
  7.74237148e-08 -2.97910125e-08  4.30394507e-08  9.25210932e-04 -1.56808689e-07
  9.87476741e-10 -2.02491083e-04 -9.59761878e-04  3.55052205e-04 -7.38123544e-05
  4.58500397e-04 -1.07998572e-05 -2.98709830e-05  1.62757966e-05  1.29753320e-05
 -1.21989980e-04 -7.34665050e-05 -2.33963564e-06 -3.57244829e-05  3.20504471e-07
 -4.82922656e-05 -7.39646663e-05  1.78537311e-05 -1.59864614e-05  5.02021743e-06
 -8.41930707e-06 -1.09215251e-05  2.94708274e-05  2.52774323e-05  1.31772614e-05
 -6.87042615e-06 -4.54573720e-06 -3.26602565e-06 -3.24847348e-05 -2.17528119e-05
 -2.17053165e-05  8.82248239e-03  4.76315477e-04  1.84706411e-04  1.79052898e-05
 -3.79259698e-04  2.03849555e-01  2.48210363e-02  8.27401856e-03 -3.94714153e-04
 -4.06371913e-03  1.09529674e-02 -1.60462491e-03 -8.78134515e-05 -1.88873342e-04
  1.35985383e-03 -9.61959321e-01 -6.35945697e-02  1.01115438e-03  2.62126096e-04
 -3.63452764e-03  9.70721186e-02  1.79725179e-02 -7.80101974e-03  1.03449815e-03
 -4.42755694e-03 -9.85728070e-06 -8.75791635e-07 -3.11261637e-06 -2.71276480e-07
  1.11419072e-06 -8.53020296e-07 -7.04775506e-07 -3.14610814e-07  1.82518101e-06
 -2.28146316e-07  2.27917872e-05 -7.36140897e-05  1.12376549e-02 -7.29113094e-04
 -1.01027878e-05 -1.91064080e-07 -8.72690482e-07 -2.99409268e-07  1.93766448e-07
  5.79084382e-08  2.13198261e-07 -2.12554541e-03  2.56410077e-07  4.27029540e-07
  8.61216631e-03 -7.95645945e-03  5.38603690e-03 -4.19349675e-05 -2.90321701e-03
  2.25914399e-05 -1.35253895e-04 -3.32683359e-05 -5.46292595e-05  2.30330572e-04
  1.41359599e-04 -2.02520372e-05  9.32001088e-05 -1.59411790e-05  1.11857062e-04
  1.02363678e-04 -3.81717880e-05  2.41573702e-05 -5.47608917e-06  2.03015397e-05
  1.02448221e-03 -1.93440387e-05  2.79870537e-04 -2.40367953e-04  2.31265465e-04
 -5.88073623e-07  3.42430212e-05  1.36636184e-05 -1.02220512e-05  1.88627965e-05
  6.71277566e-01  4.21098641e-02 -5.88810969e-04  3.19735150e-04 -1.63669552e-03
 -7.11107583e-01 -4.35449744e-02  1.02885395e-05  2.35046988e-04 -1.73263540e-03
 -5.07975748e-03  3.95811915e-04 -5.48620578e-03  1.62847169e-03 -9.95971760e-03
 -1.43191115e-01 -3.09097904e-04 -6.15564439e-03  3.61015154e-04  2.22803384e-03
  2.28130231e-02  3.14889722e-03 -1.42024404e-03  2.65733981e-04 -1.42307860e-03
 -1.56303988e-04 -3.22861784e-04  4.14955669e-05  1.26177440e-07  1.86234616e-07
  2.42388375e-08 -2.02071085e-08  9.10213610e-08  1.98899676e-06 -2.72751828e-06
 -7.85009983e-03  8.96549475e-05  1.88570363e-03 -2.35354392e-04  1.08528747e-05
  9.17476679e-08  1.25216628e-06  4.52284273e-07 -2.82495129e-07 -5.92841761e-08
 -2.57914018e-07  9.06206504e-03  1.18721818e-07 -5.17305963e-07  9.69398503e-03
 -7.46673880e-03  6.03045674e-03 -8.69980286e-06 -3.89745218e-03  3.98475757e-05
 -2.25193264e-04  3.44859210e-05 -7.36273102e-05  3.45351638e-04  1.34860314e-04
 -1.18981646e-05  9.65795959e-05 -7.60707985e-06  1.01262266e-04  1.13418641e-04