18
ModifiedRes-opt-3-5-11-12-116.log	Energy: -567277.1181635
C          1.73609        1.95347       -0.36528
O          2.75049        1.82772        0.26285
N          0.68328        1.11863       -0.28902
H         -0.05856        1.22799       -0.94496
C          0.65516       -0.02358        0.60327
H          1.23537        0.24859        1.47680
C          1.30107       -1.27101       -0.01611
O          0.65482       -2.26578       -0.21038
H         -0.73836       -1.18036        1.74449
H         -1.17105        0.51705        1.59847
C         -0.76032       -0.33380        1.07710
S         -1.91324       -0.77705       -0.28799
C         -3.01212        0.52823       -0.15092
N         -3.74661        1.39511       -0.09137
N          2.60721       -1.15762       -0.29405
H          1.58274        2.77440       -1.06238
H          3.11861       -0.32664       -0.08996
H          3.07420       -1.93636       -0.70173
