18
ModifiedRes-sp-11-5-7-15-011.log	Energy: -567361.2371745
C         -1.08937        2.29293        0.54611
O         -0.58435        2.76965       -0.47249
N         -1.18406        0.94937        0.76407
H         -1.66530        0.65366        1.60925
C         -0.87971       -0.07153       -0.25443
H         -0.90582        0.40925       -1.24100
C         -1.99983       -1.15049       -0.17573
O         -3.12993       -0.82731       -0.53408
H          0.57520       -1.10147        0.99458
H          0.65825       -1.53765       -0.72698
C          0.50086       -0.71511       -0.02465
S          1.84603        0.52974       -0.28182
C          3.17167       -0.48619        0.03897
N          4.07595       -1.22755        0.23089
N         -1.73366       -2.40748        0.27878
H         -1.48272        2.91718        1.36404
H         -0.81893       -2.71993        0.57656
H         -2.51223       -3.05356        0.28745
