18
ModifiedRes-opt-5-11-12-13-281.log	Energy: -567276.1065141
C          1.23131        1.92668       -0.82549
O          1.56785        2.32943        0.25163
N          0.71152        0.70536       -1.05556
H          0.52688        0.43777       -1.99626
C          0.43392       -0.23648        0.01336
H          0.15828        0.34134        0.88479
C          1.69414       -1.05768        0.33448
O          1.82107       -2.18534       -0.05599
H         -0.43933       -1.76540       -1.23958
H         -0.85155       -1.90159        0.44212
C         -0.69389       -1.19453       -0.35710
S         -2.28799       -0.40003       -0.76386
C         -2.66382        0.29676        0.74800
N         -2.92747        0.76806        1.74889
N          2.60917       -0.40581        1.07090
H          1.32413        2.52978       -1.72640
H          2.52665        0.57282        1.24432
H          3.48879       -0.84860        1.21848
