18
ModifiedRes-opt-5-11-12-13-341.log	Energy: -567276.1065216
C          1.23190        1.92683       -0.82492
O          1.56877        2.32907        0.25231
N          0.71194        0.70567       -1.05536
H          0.52638        0.43877       -1.99607
C          0.43388       -0.23640        0.01335
H          0.15831        0.34114        0.88500
C          1.69376       -1.05811        0.33430
O          1.82000       -2.18590       -0.05603
H         -0.43955       -1.76458       -1.24035
H         -0.85193       -1.90150        0.44127
C         -0.69400       -1.19410       -0.35759
S         -2.28803       -0.39917       -0.76415
C         -2.66415        0.29677        0.74802
N         -2.92742        0.76730        1.74938
N          2.60922       -0.40655        1.07045
H          1.32468        2.53027       -1.72560
H          2.52722        0.57216        1.24368
H          3.48867       -0.84974        1.21786
