18
ModifiedRes-opt-3-5-11-12-078.log	Energy: -567277.1181422
C          1.73675        1.95329       -0.36566
O          2.75103        1.82734        0.26262
N          0.68394        1.11845       -0.28970
H         -0.05850        1.22870       -0.94481
C          0.65526       -0.02334        0.60315
H          1.23543        0.24894        1.47667
C          1.30081       -1.27109       -0.01582
O          0.65404       -2.26543       -0.21061
H         -0.73877       -1.17920        1.74480
H         -1.17103        0.51825        1.59766
C         -0.76042       -0.33303        1.07690
S         -1.91296       -0.77659       -0.28835
C         -3.01274        0.52789       -0.15080
N         -3.74751        1.39448       -0.09044
N          2.60721       -1.15843       -0.29287
H          1.58355        2.77438       -1.06262
H          3.11884       -0.32757       -0.08885
H          3.07395       -1.93720       -0.70076
