18
ModifiedRes-opt-3-5-11-12-192.log	Energy: -567273.7881904
C          2.78220       -1.37316        0.26039
O          3.17893       -1.07626       -0.82962
N          1.56766       -1.04117        0.74836
H          1.39223       -1.18041        1.71939
C          0.63761       -0.22450       -0.01365
H          0.80063       -0.46700       -1.05443
C          0.95293        1.25842        0.23737
O          0.40153        1.87301        1.10544
H         -0.90343       -1.64954        0.43362
H         -1.02150       -0.13928        1.35653
C         -0.79005       -0.57635        0.39754
S         -1.96311        0.08738       -0.84326
C         -3.42188       -0.30743       -0.05588
N         -4.40529       -0.57099        0.45077
N          1.90040        1.77043       -0.57071
H          3.37814       -1.95835        0.95784
H          2.47461        1.17039       -1.12207
H          2.24111        2.68236       -0.35889
