18
ModifiedRes-opt-3-5-11-12-059.log	Energy: -567277.1181673
C          1.73667        1.95322       -0.36583
O          2.75105        1.82728        0.26228
N          0.68373        1.11858       -0.28947
H         -0.05844        1.22839       -0.94497
C          0.65521       -0.02331        0.60320
H          1.23529        0.24902        1.47677
C          1.30103       -1.27094       -0.01581
O          0.65428       -2.26518       -0.21121
H         -0.73870       -1.17959        1.74453
H         -1.17114        0.51784        1.59787
C         -0.76043       -0.33324        1.07685
S         -1.91299       -0.77657       -0.28850
C         -3.01290        0.52779       -0.15062
N         -3.74785        1.39421       -0.09017
N          2.60756       -1.15831       -0.29205
H          1.58342        2.77420       -1.06291
H          3.11894       -0.32725       -0.08825
H          3.07431       -1.93677       -0.70050
