18
ModifiedRes-sp-11-5-7-15-352.log	Energy: -567361.7526108
C         -1.08795        2.30748        0.47289
O         -0.58778        2.74699       -0.56528
N         -1.18307        0.97253        0.73668
H         -1.66464        0.70279        1.59029
C         -0.87888       -0.08089       -0.25045
H         -0.90527        0.36865       -1.25141
C         -2.00047       -1.15763       -0.13723
O         -3.16595       -0.76655       -0.15623
H          0.57171       -1.06769        1.03358
H          0.66871       -1.55864       -0.67081
C          0.50317       -0.71520        0.00120
S          1.84657        0.52333       -0.29440
C          3.17318       -0.47885        0.06416
N          4.07385       -1.19054        0.35838
N         -1.70532       -2.48262       -0.01807
H         -1.47688        2.96033        1.27013
H         -0.76656       -2.85413        0.03494
H         -2.49490       -3.11317        0.03333
