18
ModifiedRes-opt-5-11-12-13-041.log	Energy: -567277.2916397
C         -0.82233        2.10853        0.15127
O         -1.58823        2.28111       -0.75567
N         -0.31084        0.91208        0.49831
H          0.26613        0.86306        1.30875
C         -0.57142       -0.29529       -0.26387
H         -0.70684        0.00617       -1.29361
C         -1.86085       -0.97927        0.22052
O         -1.83042       -2.00863        0.83644
H          0.76834       -1.58928        0.85443
H          0.34293       -2.17715       -0.72153
C          0.58610       -1.28421       -0.16438
S          2.15185       -0.69498       -0.90817
C          2.75670        0.25155        0.37680
N          3.16014        0.88155        1.23410
N         -2.99037       -0.33390       -0.11439
H         -0.47419        2.92303        0.78211
H         -2.96677        0.56783       -0.53958
H         -3.85157       -0.67982        0.24590
