18
ModifiedRes-sp-11-5-7-15-219.log	Energy: -567369.8502942
C          1.96562       -1.83926        0.49346
O          2.59385       -1.81904       -0.57047
N          1.00090       -0.92113        0.78988
H          0.61696       -0.90298        1.73036
C          0.62589        0.13969       -0.15769
H          0.75152       -0.28275       -1.16566
C          1.57645        1.34130        0.00430
O          1.34449        2.17609        0.87982
H         -0.96540        1.01240        1.04171
H         -1.07561        1.35752       -0.69708
C         -0.83264        0.59099        0.04175
S         -2.00287       -0.82018       -0.18520
C         -3.47680        0.02751       -0.12572
N         -4.51719        0.59457       -0.08805
N          2.62695        1.38396       -0.85659
H          2.14722       -2.58646        1.28176
H          2.86797        0.54561       -1.37630
H          3.27097        2.15994       -0.77966
