18
ModifiedRes-sp-11-5-7-15-163.log	Energy: -567368.4432498
C          1.98470       -1.85600        0.34272
O          2.70128       -1.75003       -0.65569
N          1.02521       -0.93928        0.65411
H          0.65549       -0.96144        1.60048
C          0.60482        0.17289       -0.22433
H          0.70721       -0.18651       -1.25764
C          1.52546        1.40752       -0.04497
O          1.01600        2.52983       -0.02926
H         -0.95871        0.92412        1.09483
H         -1.15022        1.36477       -0.61491
C         -0.85638        0.56460        0.06881
S         -2.00010       -0.86409       -0.18453
C         -3.48949       -0.06047       -0.01083
N         -4.51823        0.52093        0.08447
N          2.86209        1.19385        0.08492
H          2.09573       -2.67203        1.07392
H          3.26253        0.31217       -0.21992
H          3.45325        2.00617        0.20244
