18
ModifiedRes-opt-3-5-11-12-173.log	Energy: -567276.3265151
C          2.48679       -1.40860        0.50236
O          2.56422       -1.67361       -0.66257
N          1.51197       -0.65431        1.05268
H          1.62096       -0.35898        1.99783
C          0.45109       -0.06105        0.25340
H          0.24740       -0.74910       -0.55429
C          0.92156        1.28754       -0.31153
O          0.62520        2.32154        0.22201
H         -1.02208       -0.79847        1.64410
H         -0.63366        0.91084        1.83769
C         -0.78914        0.11726        1.12105
S         -2.26188        0.64076        0.17653
C         -2.73025       -0.87725       -0.45285
N         -3.05265       -1.88025       -0.88164
N          1.69236        1.19697       -1.40721
H          3.21021       -1.77042        1.23055
H          2.03516        0.31639       -1.72436
H          2.11459        2.02988       -1.75287
