18
ModifiedRes-sp-3-5-11-12-059.log	Energy: -567371.2846930
C          1.71610        1.98134       -0.35883
O          2.77974        1.80817        0.24665
N          0.67037        1.11023       -0.27084
H         -0.07713        1.20927       -0.95263
C          0.64560       -0.04498        0.65180
H          1.21299        0.23841        1.55140
C          1.33842       -1.24884       -0.02321
O          0.68892       -2.26818       -0.25560
H         -0.75300       -1.22797        1.79998
H         -1.21893        0.47475        1.64992
C         -0.78660       -0.37546        1.11956
S         -1.91842       -0.77796       -0.29269
C         -3.02937        0.50719       -0.17184
N         -3.81070        1.39554       -0.10745
N          2.65980       -1.10362       -0.30646
H          1.54806        2.83118       -1.03884
H          3.14436       -0.25597       -0.02163
H          3.14794       -1.87283       -0.74516
