18
ModifiedRes-opt-11-5-7-15-352.log	Energy: -567274.3824312
C          1.06655        2.32553       -0.32171
O          0.63315        2.68637        0.73280
N          1.16604        1.03586       -0.70798
H          1.63226        0.80551       -1.55866
C          0.87976       -0.05719        0.18310
H          0.90649        0.31955        1.19651
C          1.95253       -1.13032       -0.02078
O          2.47867       -1.27431       -1.08791
H         -0.54773       -0.99721       -1.13187
H         -0.60989       -1.59067        0.52384
C         -0.48423       -0.71121       -0.09180
S         -1.84762        0.45490        0.28824
C         -3.14407       -0.57744       -0.12388
N         -4.01878       -1.25353       -0.39134
N          2.20320       -1.91501        1.04452
H          1.41833        3.02263       -1.08005
H          1.88314       -1.68908        1.95780
H          2.90823       -2.61316        0.95543
