18
ModifiedRes-sp-5-11-12-13-161.log	Energy: -567369.7492570
C          1.80453       -1.85366        0.61740
O          2.59687       -1.88027       -0.33111
N          0.85529       -0.88367        0.75493
H          0.36405       -0.81569        1.64194
C          0.63410        0.16218       -0.25868
H          0.85162       -0.28534       -1.23958
C          1.60335        1.34038       -0.02631
O          1.18321        2.38580        0.47206
H         -1.04976        1.10887        0.74079
H         -0.95544        1.41097       -1.00938
C         -0.82516        0.65864       -0.22896
S         -2.00629       -0.72545       -0.54997
C         -3.42627       -0.03316        0.08292
N         -4.41112        0.47544        0.50347
N          2.89182        1.12499       -0.40214
H          1.82374       -2.59398        1.43242
H          3.16779        0.20433       -0.73487
H          3.56283        1.87012       -0.27143
