18
ModifiedRes-sp-3-5-11-12-078.log	Energy: -567368.3119974
C         -2.00053       -1.86035       -0.32942
O         -3.04628       -1.50982        0.22870
N         -0.83835       -1.15531       -0.22317
H         -0.08495       -1.38656       -0.86636
C         -0.66184        0.01539        0.65974
H         -1.29378       -0.12854        1.54983
C         -1.14594        1.28334       -0.08476
O         -0.36314        2.19356       -0.34857
H          0.81208        0.73843        2.05419
H          1.15264       -0.89382        1.43301
C          0.79516        0.10309        1.16718
S          2.01903        0.78087       -0.05314
C          3.00365       -0.59312       -0.26213
N          3.63349       -1.58370       -0.42265
N         -2.46835        1.32004       -0.39818
H         -1.93912       -2.74743       -0.97922
H         -3.07922        0.56553       -0.09469
H         -2.82739        2.13138       -0.88335
