18
ModifiedRes-opt-11-5-7-15-087.log	Energy: -567275.7647348
C          1.91540       -1.80876        0.47445
O          2.53882       -1.84909       -0.54779
N          0.97255       -0.88653        0.75748
H          0.59646       -0.86051        1.67982
C          0.60518        0.16558       -0.17615
H          0.71661       -0.24496       -1.17035
C          1.54426        1.37437       -0.02948
O          1.19102        2.37784        0.52297
H         -0.96669        1.02840        1.03147
H         -1.09272        1.37219       -0.67812
C         -0.83468        0.61394        0.04420
S         -1.95638       -0.82139       -0.17722
C         -3.44847        0.00200       -0.10209
N         -4.45591        0.52718       -0.05339
N          2.76321        1.19595       -0.56672
H          2.05947       -2.53335        1.27299
H          3.05486        0.30587       -0.90813
H          3.44621        1.90565       -0.42081
