18
ModifiedRes-sp-3-5-11-12-154.log	Energy: -567363.3683096
C         -2.94773       -0.95339       -0.26533
O         -3.08353       -0.85331        0.95932
N         -1.77132       -0.68901       -0.90414
H         -1.79296       -0.57030       -1.91246
C         -0.54598       -0.32535       -0.16995
H         -0.56123       -0.86557        0.78822
C         -0.54873        1.19366        0.11404
O          0.07772        1.96358       -0.61244
H          0.91337       -1.81955       -0.77753
H          0.45846       -0.66856       -2.05795
C          0.69147       -0.77333       -0.99626
S          2.25332        0.17783       -0.72025
C          2.73559       -0.57779        0.72348
N          3.02510       -1.09560        1.74894
N         -1.30136        1.58278        1.17663
H         -3.77547       -1.23601       -0.93478
H         -1.88840        0.89712        1.64494
H         -1.33501        2.56540        1.41257
