18
ModifiedRes-sp-5-11-12-13-101.log	Energy: -567370.8373810
C         -0.97555        2.11261        0.30235
O         -1.83448        2.25037       -0.57644
N         -0.37341        0.91542        0.55147
H          0.24482        0.84468        1.35596
C         -0.58312       -0.27762       -0.28932
H         -0.77469        0.07379       -1.31385
C         -1.82087       -1.06207        0.19226
O         -1.67292       -2.14561        0.76025
H          0.86620       -1.51611        0.73868
H          0.45821       -2.07599       -0.88848
C          0.66124       -1.19016       -0.28292
S          2.09509       -0.32646       -1.05509
C          2.91057        0.12865        0.36924
N          3.41841        0.47658        1.38245
N         -3.02261       -0.48126       -0.06577
H         -0.65557        2.93478        0.96082
H         -3.04797        0.43939       -0.49792
H         -3.86364       -0.95889        0.22920
