18
ModifiedRes-opt-3-5-11-12-324.log	Energy: -567275.7647385
C          1.91545       -1.80864        0.47450
O          2.53906       -1.84875       -0.54762
N          0.97239       -0.88655        0.75744
H          0.59612       -0.86065        1.67971
C          0.60513        0.16555       -0.17622
H          0.71661       -0.24503       -1.17041
C          1.54425        1.37428       -0.02948
O          1.19099        2.37777        0.52295
H         -0.96673        1.02841        1.03132
H         -1.09263        1.37221       -0.67829
C         -0.83469        0.61396        0.04406
S         -1.95639       -0.82138       -0.17741
C         -3.44852        0.00195       -0.10200
N         -4.45594        0.52715       -0.05310
N          2.76325        1.19576       -0.56658
H          2.05950       -2.53326        1.27302
H          3.05488        0.30569       -0.90805
H          3.44625        1.90548       -0.42079
