18
ModifiedRes-sp-3-5-11-12-305.log	Energy: -567369.9703255
C          1.98699       -1.81645        0.45105
O          2.68537       -1.74320       -0.56646
N          0.98703       -0.92903        0.72455
H          0.60033       -0.92350        1.66418
C          0.61165        0.15571       -0.19961
H          0.73008       -0.24383       -1.21721
C          1.55579        1.36230       -0.01391
O          1.16383        2.34755        0.61384
H         -0.94914        1.03896        1.01833
H         -1.12026        1.32397       -0.73105
C         -0.85249        0.58630        0.02812
S         -2.01174       -0.84511       -0.11478
C         -3.49280       -0.00812       -0.12302
N         -4.53874        0.54994       -0.13114
N          2.78657        1.24173       -0.57699
H          2.13667       -2.58765        1.22293
H          3.06084        0.35142       -0.98496
H          3.43686        2.01068       -0.48550
