18
ModifiedRes-sp-3-5-11-12-230.log	Energy: -567366.3447038
C          2.55855       -1.54697        0.48474
O          2.96730       -1.41410       -0.67446
N          1.43653       -0.92006        0.94220
H          1.29133       -0.86705        1.94614
C          0.61292       -0.07298        0.06310
H          0.68060       -0.50675       -0.94500
C          1.18132        1.35978        0.02515
O          0.75245        2.20451        0.81244
H         -0.97621       -0.83733        1.34218
H         -1.11278        0.89550        0.97751
C         -0.85528       -0.08411        0.56224
S         -1.98211       -0.44583       -0.84935
C         -3.47323       -0.21929       -0.06493
N         -4.50204       -0.02609        0.49127
N          2.16452        1.57350       -0.88859
H          3.08197       -2.15805        1.23664
H          2.58394        0.77493       -1.35742
H          2.56818        2.49867       -0.95015
