18
ModifiedRes-sp-11-5-7-15-238.log	Energy: -567368.9144159
C         -1.96266        1.88045        0.44323
O         -2.55906        1.86956       -0.63745
N         -1.00460        0.96276        0.76018
H         -0.61737        0.97070        1.69948
C         -0.63443       -0.13196       -0.15189
H         -0.75892        0.25874       -1.17247
C         -1.58641       -1.32633        0.05034
O         -1.57339       -1.91658        1.13093
H          0.95269       -0.97371        1.07594
H          1.06049       -1.37635       -0.65055
C          0.82035       -0.58476        0.06256
S          1.99749        0.81236       -0.21013
C          3.46199       -0.04824       -0.12070
N          4.47178       -0.66101       -0.02267
N         -2.38763       -1.64997       -0.99865
H         -2.16203        2.62618        1.22879
H         -2.50441       -0.99504       -1.76267
H         -3.02065       -2.42950       -0.87768
