18
ModifiedRes-opt-11-5-7-15-219.log	Energy: -567275.7647385
C          1.91558       -1.80863        0.47448
O          2.53898       -1.84876       -0.54778
N          0.97258       -0.88654        0.75755
H          0.59645       -0.86061        1.67988
C          0.60512        0.16551       -0.17611
H          0.71650       -0.24511       -1.17029
C          1.54424        1.37426       -0.02948
O          1.19118        2.37759        0.52336
H         -0.96666        1.02828        1.03161
H         -1.09269        1.37220       -0.67797
C         -0.83470        0.61389        0.04431
S         -1.95644       -0.82139       -0.17722
C         -3.44850        0.00208       -0.10215
N         -4.45600        0.52715       -0.05350
N          2.76302        1.19596       -0.56717
H          2.05980       -2.53321        1.27300
H          3.05464        0.30585       -0.90856
H          3.44611        1.90556       -0.42122
