18
ModifiedRes-opt-3-5-11-12-040.log	Energy: -567277.1181547
C          1.73670        1.95324       -0.36594
O          2.75076        1.82782        0.26275
N          0.68372        1.11855       -0.28956
H         -0.05736        1.22704       -0.94652
C          0.65530       -0.02335        0.60310
H          1.23542        0.24905        1.47662
C          1.30109       -1.27103       -0.01581
O          0.65446       -2.26539       -0.21089
H         -0.73874       -1.17935        1.74467
H         -1.17096        0.51811        1.59770
C         -0.76036       -0.33311        1.07684
S         -1.91302       -0.77653       -0.28840
C         -3.01293        0.52781       -0.15050
N         -3.74813        1.39404       -0.09036
N          2.60757       -1.15837       -0.29243
H          1.58370        2.77369       -1.06371
H          3.11906       -0.32742       -0.08847
H          3.07442       -1.93706       -0.70037
