18
ModifiedRes-sp-3-5-11-12-211.log	Energy: -567367.7297508
C          2.72536       -1.46427        0.33518
O          3.11801       -1.16835       -0.79910
N          1.54226       -1.01167        0.84186
H          1.39107       -1.07799        1.84417
C          0.63324       -0.17122        0.04566
H          0.74702       -0.48946       -1.00120
C          1.04128        1.31038        0.16137
O          0.52004        2.01317        1.02834
H         -0.92615       -1.39482        0.93422
H         -1.06428        0.33885        1.30430
C         -0.81910       -0.38899        0.52367
S         -1.96755       -0.15284       -0.89530
C         -3.44679       -0.26817       -0.06646
N         -4.49104       -0.34540        0.48928
N          1.99474        1.72481       -0.71384
H          3.31125       -2.09062        1.02590
H          2.49919        1.02996       -1.25809
H          2.29261        2.69052       -0.67607
