18
ModifiedRes-opt-11-5-7-15-106.log	Energy: -567275.7647178
C          1.91507       -1.80884        0.47439
O          2.53826       -1.84928       -0.54797
N          0.97243       -0.88641        0.75758
H          0.59699       -0.85996        1.68018
C          0.60510        0.16574       -0.17606
H          0.71651       -0.24498       -1.17017
C          1.54453        1.37433       -0.02954
O          1.19160        2.37817        0.52248
H         -0.96667        1.02872        1.03150
H         -1.09275        1.37233       -0.67811
C         -0.83470        0.61415        0.04429
S         -1.95636       -0.82123       -0.17704
C         -3.44845        0.00219       -0.10208
N         -4.45605        0.52706       -0.05357
N          2.76347        1.19516       -0.56638
H          2.05919       -2.53339        1.27294
H          3.05463        0.30502       -0.90807
H          3.44674        1.90471       -0.42102
