18
ModifiedRes-sp-5-11-12-13-041.log	Energy: -567366.4067055
C         -0.50770        2.10450        0.28390
O         -1.17761        2.36576       -0.72323
N         -0.22106        0.82334        0.65253
H          0.22501        0.67586        1.55314
C         -0.53346       -0.33782       -0.19694
H         -0.47065       -0.00061       -1.24209
C         -1.97265       -0.81884        0.07946
O         -2.15083       -1.88247        0.67697
H          0.40265       -1.80771        1.07156
H          0.13249       -2.32856       -0.61658
C          0.46289       -1.50610        0.02334
S          2.22115       -1.18327       -0.45797
C          2.57867        0.39493        0.07911
N          2.81400        1.48042        0.49910
N         -2.96480       -0.01246       -0.38132
H         -0.11955        2.87783        0.96413
H         -2.71849        0.87524       -0.81337
H         -3.92567       -0.28524       -0.22460
