18
ModifiedRes-sp-5-11-12-13-071.log	Energy: -567370.5654347
C         -0.67589        2.13097        0.12194
O         -1.46197        2.29356       -0.81910
N         -0.24418        0.89614        0.50440
H          0.30960        0.82737        1.35410
C         -0.54926       -0.33157       -0.25173
H         -0.63293       -0.04743       -1.31091
C         -1.90179       -0.91294        0.20870
O         -1.92264       -1.95328        0.86944
H          0.66073       -1.65612        0.96198
H          0.25646       -2.28762       -0.64959
C          0.56419       -1.39821       -0.09469
S          2.18025       -0.87117       -0.81357
C          2.66012        0.31352        0.31367
N          2.97799        1.10476        1.13951
N         -3.00437       -0.21496       -0.17186
H         -0.28993        2.96217        0.73206
H         -2.88736        0.66362       -0.67141
H         -3.91405       -0.55775        0.10640
