18
ModifiedRes-opt-3-5-11-12-249.log	Energy: -567275.7647335
C          1.91547       -1.80868        0.47434
O          2.53882       -1.84888       -0.54794
N          0.97246       -0.88658        0.75742
H          0.59671       -0.86036        1.67990
C          0.60512        0.16560       -0.17616
H          0.71645       -0.24497       -1.17037
C          1.54425        1.37432       -0.02951
O          1.19096        2.37792        0.52272
H         -0.96661        1.02851        1.03155
H         -1.09275        1.37219       -0.67807
C         -0.83468        0.61399        0.04430
S         -1.95636       -0.82139       -0.17702
C         -3.44842        0.00210       -0.10212
N         -4.45601        0.52702       -0.05362
N          2.76333        1.19568       -0.56638
H          2.05969       -2.53326        1.27287
H          3.05488        0.30564       -0.90800
H          3.44630        1.90548       -0.42082
