18
ModifiedRes-opt-11-5-7-15-295.log	Energy: -567275.7647247
C          1.91583       -1.80836        0.47462
O          2.53949       -1.84825       -0.54748
N          0.97232       -0.88668        0.75742
H          0.59622       -0.86069        1.67976
C          0.60501        0.16541       -0.17632
H          0.71643       -0.24525       -1.17046
C          1.54429        1.37402       -0.02940
O          1.19177        2.37678        0.52480
H         -0.96671        1.02864        1.03113
H         -1.09276        1.37198       -0.67858
C         -0.83478        0.61392        0.04398
S         -1.95660       -0.82139       -0.17709
C         -3.44863        0.00218       -0.10220
N         -4.45610        0.52729       -0.05370
N          2.76259        1.19621       -0.56841
H          2.06018       -2.53288        1.27318
H          3.05410        0.30604       -0.90975
H          3.44605        1.90531       -0.42167
