18
ModifiedRes-sp-5-11-12-13-251.log	Energy: -567368.9776450
C         -1.79248       -1.94252       -0.20436
O         -2.19070       -1.88303        0.96438
N         -1.02098       -0.96968       -0.76963
H         -0.81532       -1.03370       -1.76242
C         -0.50001        0.17458       -0.00260
H         -0.31516       -0.17112        1.02503
C         -1.55800        1.29800        0.03395
O         -1.43301        2.27532       -0.70630
H          0.64550        1.04624       -1.64078
H          1.12362        1.57567       -0.02089
C          0.81227        0.71327       -0.61336
S          2.11485       -0.59396       -0.65467
C          3.16131        0.01688        0.54062
N          3.85619        0.44242        1.40151
N         -2.58158        1.11334        0.90865
H         -2.05035       -2.77233       -0.88115
H         -2.65543        0.22932        1.40606
H         -3.29479        1.82707        0.97500
