18
ModifiedRes-opt-11-5-7-15-049.log	Energy: -567275.7647297
C          1.91543       -1.80862        0.47439
O          2.53842       -1.84897       -0.54810
N          0.97250       -0.88646        0.75760
H          0.59733       -0.85983        1.68030
C          0.60511        0.16560       -0.17613
H          0.71649       -0.24513       -1.17024
C          1.54435        1.37423       -0.02951
O          1.19152        2.37759        0.52346
H         -0.96655        1.02873        1.03145
H         -1.09280        1.37207       -0.67825
C         -0.83470        0.61403        0.04427
S         -1.95638       -0.82139       -0.17667
C         -3.44843        0.00215       -0.10228
N         -4.45594        0.52726       -0.05412
N          2.76301        1.19568       -0.56728
H          2.05991       -2.53306        1.27299
H          3.05439        0.30554       -0.90877
H          3.44624        1.90518       -0.42150
