18
ModifiedRes-opt-5-11-12-13-161.log	Energy: -567275.7647241
C          1.91570       -1.80859        0.47422
O          2.53880       -1.84877       -0.54819
N          0.97249       -0.88670        0.75739
H          0.59743       -0.86010        1.68014
C          0.60508        0.16558       -0.17603
H          0.71629       -0.24492       -1.17027
C          1.54423        1.37431       -0.02951
O          1.19097        2.37795        0.52267
H         -0.96659        1.02828        1.03193
H         -1.09290        1.37222       -0.67761
C         -0.83472        0.61393        0.04460
S         -1.95641       -0.82146       -0.17674
C         -3.44848        0.00207       -0.10229
N         -4.45602        0.52708       -0.05405
N          2.76328        1.19567       -0.56640
H          2.06024       -2.53305        1.27280
H          3.05477        0.30576       -0.90837
H          3.44615        1.90562       -0.42118
