18
ModifiedRes-sp-3-5-11-12-249.log	Energy: -567366.4429391
C          2.41091       -1.61824        0.54970
O          2.88212       -1.54533       -0.59104
N          1.33946       -0.87521        0.95016
H          1.11867       -0.84584        1.94123
C          0.60035        0.00829        0.03203
H          0.63154       -0.46442       -0.96007
C          1.29317        1.38708       -0.04920
O          0.80263        2.35552        0.53407
H         -1.02572       -0.26638        1.48340
H         -1.13180        1.22342        0.53725
C         -0.87305        0.16106        0.49174
S         -2.00017       -0.66916       -0.70826
C         -3.49435       -0.14891       -0.08429
N         -4.52606        0.19669        0.38634
N          2.43473        1.42684       -0.78585
H          2.83730       -2.26663        1.33128
H          2.81247        0.56310       -1.16769
H          2.92329        2.30798       -0.87190
