18
ModifiedRes-opt-3-5-11-12-343.log	Energy: -567275.7647134
C          1.91535       -1.80863        0.47480
O          2.53901       -1.84872       -0.54728
N          0.97223       -0.88652        0.75755
H          0.59604       -0.86040        1.67986
C          0.60513        0.16545       -0.17635
H          0.71663       -0.24537       -1.17042
C          1.54446        1.37398       -0.02937
O          1.19214        2.37664        0.52512
H         -0.96672        1.02881        1.03078
H         -1.09252        1.37206       -0.67899
C         -0.83468        0.61404        0.04366
S         -1.95656       -0.82126       -0.17734
C         -3.44857        0.00225       -0.10211
N         -4.45596        0.52750       -0.05336
N          2.76263        1.19631       -0.56879
H          2.05946       -2.53310        1.27344
H          3.05415        0.30604       -0.90987
H          3.44619        1.90526       -0.42177
