9
 energy: -11.391281607859 gnorm: 0.020836264532 xtb: 6.5.0 (97a52f5)
O            1.15082800000000       -0.56230500000000       -0.79664900000000
C            0.45793000000000        0.24521800000000        0.14327300000000
C           -1.01327400000000       -0.10932500000000        0.10821600000000
H            0.60575100000000        1.29705700000000       -0.11910800000000
H            0.87330100000000        0.06245000000000        1.13882500000000
H           -1.42493300000000        0.05053000000000       -0.89382300000000
H           -1.57801600000000        0.49615900000000        0.82258800000000
H           -1.16093800000000       -1.16766800000000        0.34738900000000
H            2.08935100000000       -0.31211500000000       -0.75071100000000
9
 energy: -11.391777782870 gnorm: 0.009214043067 xtb: 6.5.0 (97a52f5)
O            1.14690360993864       -0.56383279599071       -0.79731357625565
C            0.45852343794748        0.24610994354832        0.14402242164501
C           -1.01309932818716       -0.11296381239642        0.10460724779535
H            0.59191816461270        1.30669172903483       -0.10751269240292
H            0.85963849437361        0.07130002254511        1.15121966950475
H           -1.41117843849326        0.05593143253981       -0.89505474722334
H           -1.56900335475112        0.49269876837875        0.81727519202048
H           -1.14641974945988       -1.16579199839598        0.34974980004367
H            2.08271716401899       -0.33014228926371       -0.76699331512735
9
 energy: -11.391857961221 gnorm: 0.003076410711 xtb: 6.5.0 (97a52f5)
O            1.14582219716390       -0.56130679649222       -0.79460429929888
C            0.45939372829618        0.24666001005256        0.14437730162983
C           -1.01580398580753       -0.11507122595922        0.10311409898627
H            0.59141411409479        1.31034629142484       -0.10260154390597
H            0.85887672324932        0.07614400371007        1.15491875732475
H           -1.40836968135726        0.05576103346870       -0.89500075256334
H           -1.56857213546367        0.49059556771038        0.81511921271047
H           -1.14378468244048       -1.16516231554023        0.34898884589846
H            2.08102372226476       -0.33796556837489       -0.77431162078158
9
 energy: -11.391866038376 gnorm: 0.001287800378 xtb: 6.5.0 (97a52f5)
O            1.14477327219741       -0.56002841132275       -0.79312647552555
C            0.45994511735984        0.24691964526088        0.14451491884856
C           -1.01625089073645       -0.11522593413359        0.10305731584673
H            0.59118943779462        1.31111095529288       -0.10184558361186
H            0.85866098020317        0.07686721470667        1.15571691803854
H           -1.40741067505210        0.05542606703238       -0.89558931201315
H           -1.56899118860233        0.49061481521305        0.81522709103628
H           -1.14281394724473       -1.16555182378396        0.34845601965784
H            2.08089789408057       -0.34013152826556       -0.77641089227739
