
    -----------------------------------------------------------------------
          Psi4: An Open-Source Ab Initio Electronic Structure Package
                               Psi4 1.3.2 release

                         Git: Rev {HEAD} ecbda83 


    R. M. Parrish, L. A. Burns, D. G. A. Smith, A. C. Simmonett,
    A. E. DePrince III, E. G. Hohenstein, U. Bozkaya, A. Yu. Sokolov,
    R. Di Remigio, R. M. Richard, J. F. Gonthier, A. M. James,
    H. R. McAlexander, A. Kumar, M. Saitow, X. Wang, B. P. Pritchard,
    P. Verma, H. F. Schaefer III, K. Patkowski, R. A. King, E. F. Valeev,
    F. A. Evangelista, J. M. Turney, T. D. Crawford, and C. D. Sherrill,
    J. Chem. Theory Comput. 13(7) pp 3185--3197 (2017).
    (doi: 10.1021/acs.jctc.7b00174)


                         Additional Contributions by
    P. Kraus, H. Kruse, M. H. Lechner, M. C. Schieber, R. A. Shaw,
    A. Alenaizan, R. Galvelis, Z. L. Glick, S. Lehtola, and J. P. Misiewicz

    -----------------------------------------------------------------------


    Psi4 started on: Wednesday, 28 July 2021 01:52PM

    Process ID: 38662
    Host:       node37.bme.utexas.edu
    PSIDATADIR: /home/bdw2292/miniconda3/envs/poltype2/share/psi4
    Memory:     500.0 MiB
    Threads:    1
    
  ==> Input File <==

--------------------------------------------------------------------------
molecule { 
0 1
CL -1.471689364248 0.195045438238 -0.026316293626
CL 1.476423361285 0.159223038399 0.006006481174
C -0.010672975328 -0.795293213701 0.045352323419
H -0.027427200576 -1.357471844066 0.974725747978
H -0.009748638351 -1.465283608540 -0.810031526940
}
memory 15GB
set_num_threads(4)
psi4_io.set_default_path("/scratch/bdw2292/Psi4-CH2Cl2")
set maxiter 500
set freeze_core True
set PROPERTIES_ORIGIN ["COM"]
set cubeprop_tasks ['esp']
E, wfn = properties('mp2/aug-cc-pVTZ',properties=['dipole'],return_wfn=True)
cubeprop(wfn)
fchk(wfn, "CH2Cl2-esp.fchk")
oeprop(wfn,"GRID_ESP","WIBERG_LOWDIN_INDICES","MULLIKEN_CHARGES")
clean()
--------------------------------------------------------------------------

  Memory set to  13.970 GiB by Python driver.
  Threads set to 4 by Python driver.
    SCF Algorithm Type (re)set to DF.

*** tstart() called on node37.bme.utexas.edu
*** at Wed Jul 28 13:52:44 2021

   => Loading Basis Set <=

    Name: AUG-CC-PVTZ
    Role: ORBITAL
    Keyword: BASIS
    atoms 1-2 entry CL         line   984 file /home/bdw2292/miniconda3/envs/poltype2/share/psi4/basis/aug-cc-pvtz.gbs 
    atoms 3   entry C          line   235 file /home/bdw2292/miniconda3/envs/poltype2/share/psi4/basis/aug-cc-pvtz.gbs 
    atoms 4-5 entry H          line    36 file /home/bdw2292/miniconda3/envs/poltype2/share/psi4/basis/aug-cc-pvtz.gbs 


         ---------------------------------------------------------
                                   SCF
               by Justin Turney, Rob Parrish, Andy Simmonett
                          and Daniel G. A. Smith
                              RHF Reference
                        4 Threads,  14305 MiB Core
         ---------------------------------------------------------

  ==> Geometry <==

    Molecular point group: c1
    Full point group: C1

    Geometry (in Angstrom), charge = 0, multiplicity = 1:

       Center              X                  Y                   Z               Mass       
    ------------   -----------------  -----------------  -----------------  -----------------
         CL          -1.471689364248     0.195045438238    -0.026316293626    34.968852682000
         CL           1.476423361285     0.159223038399     0.006006481174    34.968852682000
         C           -0.010672975328    -0.795293213701     0.045352323419    12.000000000000
         H           -0.027427200576    -1.357471844066     0.974725747978     1.007825032230
         H           -0.009748638351    -1.465283608540    -0.810031526940     1.007825032230

  Running in c1 symmetry.

  Rotational constants: A =      1.09050  B =      0.10974  C =      0.10164 [cm^-1]
  Rotational constants: A =  32692.38239  B =   3289.89699  C =   3047.17277 [MHz]
  Nuclear repulsion =  134.438586680545740

  Charge       = 0
  Multiplicity = 1
  Electrons    = 42
  Nalpha       = 21
  Nbeta        = 21

  ==> Algorithm <==

  SCF Algorithm Type is DF.
  DIIS enabled.
  MOM disabled.
  Fractional occupation disabled.
  Guess Type is SAD.
  Energy threshold   = 1.00e-10
  Density threshold  = 1.00e-10
  Integral threshold = 0.00e+00

  ==> Primary Basis <==

  Basis Set: AUG-CC-PVTZ
    Blend: AUG-CC-PVTZ
    Number of shells: 64
    Number of basis function: 192
    Number of Cartesian functions: 223
    Spherical Harmonics?: true
    Max angular momentum: 3

   => Loading Basis Set <=

    Name: (AUG-CC-PVTZ AUX)
    Role: JKFIT
    Keyword: DF_BASIS_SCF
    atoms 1-2 entry CL         line   816 file /home/bdw2292/miniconda3/envs/poltype2/share/psi4/basis/aug-cc-pvtz-jkfit.gbs 
    atoms 3   entry C          line   162 file /home/bdw2292/miniconda3/envs/poltype2/share/psi4/basis/aug-cc-pvtz-jkfit.gbs 
    atoms 4-5 entry H          line    70 file /home/bdw2292/miniconda3/envs/poltype2/share/psi4/basis/aug-cc-pvtz-jkfit.gbs 

  ==> Pre-Iterations <==

   -------------------------------------------------------
    Irrep   Nso     Nmo     Nalpha   Nbeta   Ndocc  Nsocc
   -------------------------------------------------------
     A        192     192       0       0       0       0
   -------------------------------------------------------
    Total     192     192      21      21      21       0
   -------------------------------------------------------

  ==> Integral Setup <==

  DFHelper Memory: AOs need 0.144 GiB; user supplied 10.477 GiB. Using in-core AOs.

  ==> MemDFJK: Density-Fitted J/K Matrices <==

    J tasked:                   Yes
    K tasked:                   Yes
    wK tasked:                   No
    OpenMP threads:               4
    Memory [MiB]:             10728
    Algorithm:                 Core
    Schwarz Cutoff:           1E-12
    Mask sparsity (%):       0.0000
    Fitting Condition:        1E-10

   => Auxiliary Basis Set <=

  Basis Set: (AUG-CC-PVTZ AUX)
    Blend: AUG-CC-PVTZ-JKFIT
    Number of shells: 142
    Number of basis function: 488
    Number of Cartesian functions: 601
    Spherical Harmonics?: true
    Max angular momentum: 4

  Minimum eigenvalue in the overlap matrix is 6.7548531725E-05.
  Using Symmetric Orthogonalization.

  SCF Guess: Superposition of Atomic Densities via on-the-fly atomic UHF.

  ==> Iterations <==

                           Total Energy        Delta E     RMS |[F,P]|

   @DF-RHF iter SAD:  -957.81016257739634   -9.57810e+02   0.00000e+00 
   @DF-RHF iter   1:  -958.05072611945900   -2.40564e-01   1.05817e-03 DIIS
   @DF-RHF iter   2:  -958.07580316383007   -2.50770e-02   3.25479e-04 DIIS
   @DF-RHF iter   3:  -958.07842033948157   -2.61718e-03   1.35388e-04 DIIS
   @DF-RHF iter   4:  -958.07897028032198   -5.49941e-04   4.49788e-05 DIIS
   @DF-RHF iter   5:  -958.07903505713432   -6.47768e-05   9.80999e-06 DIIS
   @DF-RHF iter   6:  -958.07904058152599   -5.52439e-06   2.87537e-06 DIIS
   @DF-RHF iter   7:  -958.07904102530176   -4.43776e-07   7.86193e-07 DIIS
   @DF-RHF iter   8:  -958.07904105641524   -3.11135e-08   1.51640e-07 DIIS
   @DF-RHF iter   9:  -958.07904105746331   -1.04808e-09   3.18206e-08 DIIS
   @DF-RHF iter  10:  -958.07904105750754   -4.42242e-11   8.12865e-09 DIIS
   @DF-RHF iter  11:  -958.07904105751049   -2.95586e-12   1.97093e-09 DIIS
   @DF-RHF iter  12:  -958.07904105751368   -3.18323e-12   5.05623e-10 DIIS
   @DF-RHF iter  13:  -958.07904105751265    1.02318e-12   1.23288e-10 DIIS
   @DF-RHF iter  14:  -958.07904105751379   -1.13687e-12   2.65153e-11 DIIS
  Energy and wave function converged.


  ==> Post-Iterations <==

    Orbital Energies [Eh]
    ---------------------

    Doubly Occupied:                                                      

       1A   -104.850608     2A   -104.850537     3A    -11.366029  
       4A    -10.575040     5A    -10.574951     6A     -8.041901  
       7A     -8.041810     8A     -8.039927     9A     -8.039839  
      10A     -8.039831    11A     -8.039743    12A     -1.193845  
      13A     -1.097982    14A     -0.895780    15A     -0.675398  
      16A     -0.617710    17A     -0.586728    18A     -0.474750  
      19A     -0.471127    20A     -0.449137    21A     -0.445805  

    Virtual:                                                              

      22A      0.029467    23A      0.042776    24A      0.064328  
      25A      0.066939    26A      0.113299    27A      0.114125  
      28A      0.120898    29A      0.132572    30A      0.132913  
      31A      0.133482    32A      0.145191    33A      0.161384  
      34A      0.188522    35A      0.206267    36A      0.231228  
      37A      0.235122    38A      0.267145    39A      0.270046  
      40A      0.273211    41A      0.322320    42A      0.324301  
      43A      0.327877    44A      0.353901    45A      0.360743  
      46A      0.374074    47A      0.386820    48A      0.412320  
      49A      0.422504    50A      0.434866    51A      0.435115  
      52A      0.455864    53A      0.456715    54A      0.464514  
      55A      0.492020    56A      0.502742    57A      0.516497  
      58A      0.519411    59A      0.554108    60A      0.555070  
      61A      0.694940    62A      0.697993    63A      0.698757  
      64A      0.723403    65A      0.750291    66A      0.767342  
      67A      0.778453    68A      0.823428    69A      0.838470  
      70A      0.841709    71A      0.848972    72A      0.872547  
      73A      0.893756    74A      0.897102    75A      0.898506  
      76A      0.914330    77A      0.937990    78A      0.947833  
      79A      0.954585    80A      0.971188    81A      1.004593  
      82A      1.023731    83A      1.041837    84A      1.043787  
      85A      1.068704    86A      1.086878    87A      1.090026  
      88A      1.099782    89A      1.115480    90A      1.117922  
      91A      1.132281    92A      1.145227    93A      1.201945  
      94A      1.228178    95A      1.254002    96A      1.261325  
      97A      1.299333    98A      1.356911    99A      1.367314  
     100A      1.402907   101A      1.458960   102A      1.496515  
     103A      1.510340   104A      1.543447   105A      1.552741  
     106A      1.567219   107A      1.616669   108A      1.686954  
     109A      1.717598   110A      1.723724   111A      1.727021  
     112A      1.735053   113A      1.754138   114A      1.761881  
     115A      1.824141   116A      1.841206   117A      1.911950  
     118A      1.926429   119A      1.933633   120A      1.938319  
     121A      1.943970   122A      2.026023   123A      2.101743  
     124A      2.140414   125A      2.209363   126A      2.451741  
     127A      2.579756   128A      2.592443   129A      2.597267  
     130A      2.634506   131A      2.648420   132A      2.655275  
     133A      2.666301   134A      2.701445   135A      2.711283  
     136A      2.734255   137A      2.885318   138A      2.935554  
     139A      2.937822   140A      2.974342   141A      3.027279  
     142A      3.043344   143A      3.052861   144A      3.060575  
     145A      3.076022   146A      3.107313   147A      3.109587  
     148A      3.150835   149A      3.168291   150A      3.187313  
     151A      3.188492   152A      3.192317   153A      3.206828  
     154A      3.254937   155A      3.293571   156A      3.308831  
     157A      3.412206   158A      3.444801   159A      3.597738  
     160A      3.599474   161A      3.608402   162A      3.644039  
     163A      3.728921   164A      3.750173   165A      3.910047  
     166A      3.921208   167A      3.979463   168A      4.057321  
     169A      4.093607   170A      4.187962   171A      4.194474  
     172A      4.248923   173A      4.347706   174A      4.386721  
     175A      4.536388   176A      4.693997   177A      4.723763  
     178A      4.795528   179A      4.914330   180A      4.948403  
     181A      4.977321   182A      5.174694   183A      5.263513  
     184A      5.325080   185A      5.352000   186A      5.735745  
     187A      5.787384   188A      5.925383   189A      6.570461  
     190A      7.348516   191A      7.699453   192A     15.604416  

    Final Occupation by Irrep:
              A 
    DOCC [    21 ]

  @DF-RHF Final Energy:  -958.07904105751379

   => Energetics <=

    Nuclear Repulsion Energy =            134.4385866805457397
    One-Electron Energy =               -1590.2982975459456156
    Two-Electron Energy =                 497.7806698078861132
    Total Energy =                       -958.0790410575136775

Computation Completed

*** tstop() called on node37.bme.utexas.edu at Wed Jul 28 13:52:48 2021
Module time:
	user time   =      13.65 seconds =       0.23 minutes
	system time =       0.88 seconds =       0.01 minutes
	total time  =          4 seconds =       0.07 minutes
Total time:
	user time   =      13.65 seconds =       0.23 minutes
	system time =       0.88 seconds =       0.01 minutes
	total time  =          4 seconds =       0.07 minutes
   => Loading Basis Set <=

    Name: (AUG-CC-PVTZ AUX)
    Role: RIFIT
    Keyword: DF_BASIS_MP2
    atoms 1-2 entry CL         line   742 file /home/bdw2292/miniconda3/envs/poltype2/share/psi4/basis/aug-cc-pvtz-ri.gbs 
    atoms 3   entry C          line   148 file /home/bdw2292/miniconda3/envs/poltype2/share/psi4/basis/aug-cc-pvtz-ri.gbs 
    atoms 4-5 entry H          line    30 file /home/bdw2292/miniconda3/envs/poltype2/share/psi4/basis/aug-cc-pvtz-ri.gbs 


*** tstart() called on node37.bme.utexas.edu
*** at Wed Jul 28 13:52:48 2021


  //>>>>>>>>>>>>>>>>>>>>>>>>>>>>>>>>>>>//
  //               DFMP2               //
  //<<<<<<<<<<<<<<<<<<<<<<<<<<<<<<<<<<<//

	 --------------------------------------------------------
	                          DF-MP2                         
	      2nd-Order Density-Fitted Moller-Plesset Theory     
	              RMP2 Wavefunction,   4 Threads             
	                                                         
	        Rob Parrish, Justin Turney, Andy Simmonett,      
	           Ed Hohenstein, and C. David Sherrill          
	 --------------------------------------------------------

   => Auxiliary Basis Set <=

  Basis Set: (AUG-CC-PVTZ AUX)
    Blend: AUG-CC-PVTZ-RI
    Number of shells: 130
    Number of basis function: 492
    Number of Cartesian functions: 628
    Spherical Harmonics?: true
    Max angular momentum: 4

	 --------------------------------------------------------
	                 NBF =   192, NAUX =   492
	 --------------------------------------------------------
	   CLASS    FOCC     OCC    AOCC    AVIR     VIR    FVIR
	   PAIRS      11      21      10     171     171       0
	 --------------------------------------------------------

  DFHelper Memory: AOs need 0.144 GiB; user supplied 10.477 GiB. Using in-core AOs.


         ------------------------------------------------------------
                                     CPHF                           
                                  Rob Parrish                       
         ------------------------------------------------------------

  ==> Geometry <==

    Molecular point group: c1
    Full point group: C1

    Geometry (in Angstrom), charge = 0, multiplicity = 1:

       Center              X                  Y                   Z               Mass       
    ------------   -----------------  -----------------  -----------------  -----------------
         CL          -1.471689364248     0.195045438238    -0.026316293626    34.968852682000
         CL           1.476423361285     0.159223038399     0.006006481174    34.968852682000
         C           -0.010672975328    -0.795293213701     0.045352323419    12.000000000000
         H           -0.027427200576    -1.357471844066     0.974725747978     1.007825032230
         H           -0.009748638351    -1.465283608540    -0.810031526940     1.007825032230

  Nuclear repulsion =  134.438586680545740
  Reference energy  = -958.079041057513791

  ==> Basis Set <==

  Basis Set: AUG-CC-PVTZ
    Blend: AUG-CC-PVTZ
    Number of shells: 64
    Number of basis function: 192
    Number of Cartesian functions: 223
    Spherical Harmonics?: true
    Max angular momentum: 3

  ==> CGRSolver (by Rob Parrish) <==

   Number of roots    =         1
   Preconditioning    =    JACOBI
   Convergence cutoff =     1E-06
   Maximum iterations =       100

  ==> CPHFRHamiltonian (by Rob Parrish) <== 

  ==> MemDFJK: Density-Fitted J/K Matrices <==

    J tasked:                   Yes
    K tasked:                   Yes
    wK tasked:                   No
    OpenMP threads:               4
    Memory [MiB]:             10728
    Algorithm:                 Core
    Schwarz Cutoff:           1E-12
    Mask sparsity (%):       0.0000
    Fitting Condition:        1E-10

   => Auxiliary Basis Set <=

  Basis Set: (AUG-CC-PVTZ AUX)
    Blend: AUG-CC-PVTZ-JKFIT
    Number of shells: 142
    Number of basis function: 488
    Number of Cartesian functions: 601
    Spherical Harmonics?: true
    Max angular momentum: 4

  ==> CPHF Iterations <==

  => Iterations <=

             Iter  Converged  Remaining    Residual
  CGR           1          0          1   1.292E-01
  CGR           2          0          1   2.217E-02
  CGR           3          0          1   8.853E-03
  CGR           4          0          1   1.626E-03
  CGR           5          0          1   4.120E-04
  CGR           6          0          1   9.117E-05
  CGR           7          0          1   1.542E-05
  CGR           8          0          1   6.229E-06
  CGR           9          0          1   1.551E-06
  CGR          10          1          0   2.632E-07

    CGRSolver converged.

	-----------------------------------------------------------
	 ==================> DF-MP2 Energies <==================== 
	-----------------------------------------------------------
	 Reference Energy          =    -958.0790410575137912 [Eh]
	 Singles Energy            =      -0.0000000000000000 [Eh]
	 Same-Spin Energy          =      -0.1372703797123313 [Eh]
	 Opposite-Spin Energy      =      -0.4285430315371917 [Eh]
	 Correlation Energy        =      -0.5658134112495230 [Eh]
	 Total Energy              =    -958.6448544687633557 [Eh]
	-----------------------------------------------------------
	 ================> DF-SCS-MP2 Energies <================== 
	-----------------------------------------------------------
	 SCS Same-Spin Scale       =       0.3333333333333333 [-]
	 SCS Opposite-Spin Scale   =       1.2000000000000000 [-]
	 SCS Same-Spin Energy      =      -0.0457567932374438 [Eh]
	 SCS Opposite-Spin Energy  =      -0.5142516378446300 [Eh]
	 SCS Correlation Energy    =      -0.5600084310820738 [Eh]
	 SCS Total Energy          =    -958.6390494885959015 [Eh]
	-----------------------------------------------------------



Properties will be evaluated at   0.000000,   0.000000,   0.000000 [a0]

Properties computed using the MP2 density matrix

  Nuclear Dipole Moment: [e a0]
     X:    -0.0392      Y:    -2.9706      Z:     0.1730

  Electronic Dipole Moment: [e a0]
     X:     0.0297      Y:     2.3306      Z:    -0.1358

  Dipole Moment: [e a0]
     X:    -0.0095      Y:    -0.6400      Z:     0.0372     Total:     0.6412

  Dipole Moment: [D]
     X:    -0.0241      Y:    -1.6267      Z:     0.0946     Total:     1.6297


*** tstop() called on node37.bme.utexas.edu at Wed Jul 28 13:52:58 2021
Module time:
	user time   =      32.59 seconds =       0.54 minutes
	system time =       1.66 seconds =       0.03 minutes
	total time  =         10 seconds =       0.17 minutes
Total time:
	user time   =      46.68 seconds =       0.78 minutes
	system time =       2.57 seconds =       0.04 minutes
	total time  =         14 seconds =       0.23 minutes
  ==> One Electron Grid Properties (v2.0) <==

  ==> CubicScalarGrid <==

    Filepath     = .
    Total Points =           228114
    XYZ Blocking =               10
    X Points     =               69
    Y Points     =               57
    Z Points     =               58
    X Spacing    =        2.000E-01
    Y Spacing    =        2.000E-01
    Z Spacing    =        2.000E-01
    X Minimum    =       -6.796E+00
    Y Minimum    =       -6.800E+00
    Z Minimum    =       -5.544E+00
    X Maximum    =        6.804E+00
    Y Maximum    =        4.400E+00
    Z Maximum    =        5.856E+00

  Basis Set: AUG-CC-PVTZ
    Blend: AUG-CC-PVTZ
    Number of shells: 64
    Number of basis function: 192
    Number of Cartesian functions: 223
    Spherical Harmonics?: true
    Max angular momentum: 3



Properties will be evaluated at   0.000000,   0.000000,   0.000000 [a0]
OEProp: No title given, name of density matrix used for the following properties is 'DF-MP2 relaxed density'
  Mulliken Charges: (a.u.)
   Center  Symbol    Alpha    Beta     Spin     Total
       1    CL     8.58771  8.58771  0.00000 -0.17543
       2    CL     8.58796  8.58796  0.00000 -0.17591
       3     C     3.14630  3.14630  0.00000 -0.29260
       4     H     0.33908  0.33908  0.00000  0.32185
       5     H     0.33896  0.33896  0.00000  0.32209

   Total alpha = 21.00000, Total beta = 21.00000, Total charge = -0.00000



  Wiberg Bond Indices using Orthogonal Lowdin Orbitals:

  Irrep: 1 Size: 5 x 5

                 1                   2                   3                   4                   5

    1     0.00000000000000     0.32401964019431     2.29922175516081     0.33712235912491     0.33620995564406
    2     0.32401964019431     0.00000000000000     2.29686579349852     0.33690964136897     0.33563699489473
    3     2.29922175516081     2.29686579349852     0.00000000000000     1.02729619302449     1.02682838143746
    4     0.33712235912491     0.33690964136897     1.02729619302449     0.00000000000000     0.31299751012027
    5     0.33620995564406     0.33563699489473     1.02682838143746     0.31299751012027     0.00000000000000



  Atomic Valences: 

 #  #
 Irrep: 1
      1:  3.2965737
      2:  3.2934321
      3:  6.6502121
      4:  2.0143257
      5:  2.0116728


 Electrostatic potential computed on the grid and written to grid_esp.dat

    Psi4 stopped on: Wednesday, 28 July 2021 01:55PM
    Psi4 wall time for execution: 0:03:09.87

*** Psi4 exiting successfully. Buy a developer a beer!
