Generated by Psi4
        SP                        DF-MP2                      6-311G**
Number of atoms                            I                5
Charge                                     I                0
Multiplicity                               I                1
Number of electrons                        I               42
Number of alpha electrons                  I               21
Number of beta electrons                   I               21
Number of basis functions                  I               82
Number of independent functions            I               82
Atomic numbers                             I   N=           5
          17          17           6           1           1
Nuclear charges                            R   N=           5
  1.70000000e+01  1.70000000e+01  6.00000000e+00  1.00000000e+00  1.00000000e+00
Current cartesian coordinates              R   N=          15
 -2.78108984e+00  3.68582460e-01 -4.97305876e-02  2.79003580e+00  3.00887935e-01
  1.13506044e-02 -2.01690003e-02 -1.50288636e+00  8.57034704e-02 -5.18298975e-02
 -2.56525001e+00  1.84196471e+00 -1.84222566e-02 -2.76898472e+00 -1.53073774e+00
Integer atomic weights                     I   N=           5
          34          34          12           1           1
Real atomic weights                        R   N=           5
  3.49688527e+01  3.49688527e+01  1.20000000e+01  1.00782503e+00  1.00782503e+00
Number of primitive shells                 I               77
Number of contracted shells                I               40
Pure/Cartesian d shells                    I                0
Pure/Cartesian f shells                    I                0
Highest angular momentum                   I                2
Largest degree of contraction              I                6
Shell types                                I   N=          40
           0           0           0           0           0           0
           1           1           1           1           1          -2
           0           0           0           0           0           0
           1           1           1           1           1          -2
           0           0           1           0           1           0
           1          -2           0           0           0           1
           0           0           0           1
Number of primitives per shell             I   N=          40
           6           3           1           1           1           1
           5           2           1           1           1           1
           6           3           1           1           1           1
           5           2           1           1           1           1
           6           3           3           1           1           1
           1           1           3           1           1           1
           3           1           1           1
Shell to atom map                          I   N=          40
           1           1           1           1           1           1
           1           1           1           1           1           1
           2           2           2           2           2           2
           2           2           2           2           2           2
           3           3           3           3           3           3
           3           3           4           4           4           4
           5           5           5           5
Primitive exponents                        R   N=          77
  1.05819000e+05  1.58720000e+04  3.61965000e+03  1.03080000e+03  3.39908000e+02
  1.24538000e+02  1.24538000e+02  4.95135000e+01  2.08056000e+01  6.58346000e+00
  2.56468000e+00  5.59763000e-01  1.83273000e-01  5.89776000e+02  1.39849000e+02
  4.51413000e+01  1.68733000e+01  6.74110000e+00  6.74110000e+00  2.77152000e+00
  1.02387000e+00  3.81368000e-01  1.09437000e-01  7.50000000e-01  1.05819000e+05
  1.58720000e+04  3.61965000e+03  1.03080000e+03  3.39908000e+02  1.24538000e+02
  1.24538000e+02  4.95135000e+01  2.08056000e+01  6.58346000e+00  2.56468000e+00
  5.59763000e-01  1.83273000e-01  5.89776000e+02  1.39849000e+02  4.51413000e+01
  1.68733000e+01  6.74110000e+00  6.74110000e+00  2.77152000e+00  1.02387000e+00
  3.81368000e-01  1.09437000e-01  7.50000000e-01  4.56324000e+03  6.82024000e+02
  1.54973000e+02  4.44553000e+01  1.30290000e+01  1.82773000e+00  2.09642000e+01
  4.80331000e+00  1.45933000e+00  2.09642000e+01  4.80331000e+00  1.45933000e+00
  4.83456000e-01  4.83456000e-01  1.45585000e-01  1.45585000e-01  6.26000000e-01
  3.38650000e+01  5.09479000e+00  1.15879000e+00  3.25840000e-01  1.02741000e-01
  7.50000000e-01  3.38650000e+01  5.09479000e+00  1.15879000e+00  3.25840000e-01
  1.02741000e-01  7.50000000e-01
Contraction coefficients                   R   N=          77
  7.38000247e-04  5.71800191e-03  2.94950099e-02  1.17286039e-01  3.62949121e-01
  5.84149195e-01  1.34176973e-01  6.24249876e-01  2.91755942e-01  1.00000000e+00
  1.00000000e+00  1.00000000e+00  1.00000000e+00  2.39099969e-03  1.85039976e-02
  8.13769893e-02  2.21551971e-01  7.72568898e-01 -1.57224381e+00  9.92388882e-01
  1.00000000e+00  1.00000000e+00  1.00000000e+00  1.00000000e+00  7.38000247e-04
  5.71800191e-03  2.94950099e-02  1.17286039e-01  3.62949121e-01  5.84149195e-01
  1.34176973e-01  6.24249876e-01  2.91755942e-01  1.00000000e+00  1.00000000e+00
  1.00000000e+00  1.00000000e+00  2.39099969e-03  1.85039976e-02  8.13769893e-02
  2.21551971e-01  7.72568898e-01 -1.57224381e+00  9.92388882e-01  1.00000000e+00
  1.00000000e+00  1.00000000e+00  1.00000000e+00  1.96665025e-03  1.52306019e-02
  7.61269097e-02  2.60801033e-01  6.16462078e-01  2.21006028e-01  1.14660081e-01
  9.19999648e-01 -3.03068213e-03  4.02486927e-02  2.37593957e-01  8.15853851e-01
  1.00000000e+00  1.00000000e+00  1.00000000e+00  1.00000000e+00  1.00000000e+00
  2.54938145e-02  1.90373109e-01  8.52161486e-01  1.00000000e+00  1.00000000e+00
  1.00000000e+00  2.54938145e-02  1.90373109e-01  8.52161486e-01  1.00000000e+00
  1.00000000e+00  1.00000000e+00
Coordinates of each shell                  R   N=         120
 -2.78108984e+00  3.68582460e-01 -4.97305876e-02 -2.78108984e+00  3.68582460e-01
 -4.97305876e-02 -2.78108984e+00  3.68582460e-01 -4.97305876e-02 -2.78108984e+00
  3.68582460e-01 -4.97305876e-02 -2.78108984e+00  3.68582460e-01 -4.97305876e-02
 -2.78108984e+00  3.68582460e-01 -4.97305876e-02 -2.78108984e+00  3.68582460e-01
 -4.97305876e-02 -2.78108984e+00  3.68582460e-01 -4.97305876e-02 -2.78108984e+00
  3.68582460e-01 -4.97305876e-02 -2.78108984e+00  3.68582460e-01 -4.97305876e-02
 -2.78108984e+00  3.68582460e-01 -4.97305876e-02 -2.78108984e+00  3.68582460e-01
 -4.97305876e-02  2.79003580e+00  3.00887935e-01  1.13506044e-02  2.79003580e+00
  3.00887935e-01  1.13506044e-02  2.79003580e+00  3.00887935e-01  1.13506044e-02
  2.79003580e+00  3.00887935e-01  1.13506044e-02  2.79003580e+00  3.00887935e-01
  1.13506044e-02  2.79003580e+00  3.00887935e-01  1.13506044e-02  2.79003580e+00
  3.00887935e-01  1.13506044e-02  2.79003580e+00  3.00887935e-01  1.13506044e-02
  2.79003580e+00  3.00887935e-01  1.13506044e-02  2.79003580e+00  3.00887935e-01
  1.13506044e-02  2.79003580e+00  3.00887935e-01  1.13506044e-02  2.79003580e+00
  3.00887935e-01  1.13506044e-02 -2.01690003e-02 -1.50288636e+00  8.57034704e-02
 -2.01690003e-02 -1.50288636e+00  8.57034704e-02 -2.01690003e-02 -1.50288636e+00
  8.57034704e-02 -2.01690003e-02 -1.50288636e+00  8.57034704e-02 -2.01690003e-02
 -1.50288636e+00  8.57034704e-02 -2.01690003e-02 -1.50288636e+00  8.57034704e-02
 -2.01690003e-02 -1.50288636e+00  8.57034704e-02 -2.01690003e-02 -1.50288636e+00
  8.57034704e-02 -5.18298975e-02 -2.56525001e+00  1.84196471e+00 -5.18298975e-02
 -2.56525001e+00  1.84196471e+00 -5.18298975e-02 -2.56525001e+00  1.84196471e+00
 -5.18298975e-02 -2.56525001e+00  1.84196471e+00 -1.84222566e-02 -2.76898472e+00
 -1.53073774e+00 -1.84222566e-02 -2.76898472e+00 -1.53073774e+00 -1.84222566e-02
 -2.76898472e+00 -1.53073774e+00 -1.84222566e-02 -2.76898472e+00 -1.53073774e+00
Total Energy                               R     -9.584736915392996e+02
Alpha Orbital Energies                     R   N=          82
  9.04549475e-09  9.05487689e-09  4.09534689e-07  4.89360851e-07  7.04737553e-07
  7.18433103e-07  7.30030946e-07  7.32006686e-07  1.77048983e-06  1.64923140e-05
  1.93683671e-05  2.15884719e-05  4.34168947e-05  4.70348882e-05  6.38680124e-05
  8.76143325e-05  9.55656019e-05  1.12775600e-04  1.15452816e-04  1.16197426e-04
  1.28580536e-04  1.39818248e-04  1.64936695e-04  1.70473627e-04  1.85581010e-04
  1.89948849e-04  1.94560968e-04  2.81716026e-04  3.14261492e-04  3.16208104e-04
  3.34713478e-04  4.62391631e-04  5.51301578e-04  6.53996416e-04  9.45116740e-04
  1.16626109e-03  1.41031000e-03  1.46525184e-03  1.76251759e-03  1.82472647e-03
  2.40394766e-03  2.68048718e-03  2.99309664e-03  3.51349811e-03  4.18195620e-03
  4.41234370e-03  4.62740224e-03  4.72008016e-03  4.76550205e-03  5.22941680e-03
  5.27303467e-03  5.29489467e-03  5.29525971e-03  6.08559726e-03  6.51728743e-03
  6.79762330e-03  7.04761609e-03  7.68519691e-03  9.08734586e-03  1.62540068e-02
  1.83816637e-02  9.75933693e-01  9.77729228e-01  9.83342257e-01  9.84467764e-01
  9.85161445e-01  9.85380332e-01  9.86278138e-01  9.88235335e-01  9.92939185e-01
  9.93821060e-01  1.00000000e+00  1.00000000e+00  1.00000008e+00  1.00000024e+00
  1.00000050e+00  1.00000394e+00  1.00000398e+00  1.00001159e+00  1.00001207e+00
  1.00001210e+00  1.00001218e+00
Alpha MO coefficients                      R   N=        6724
  1.08105402e+00 -1.34339947e+00  1.01290694e+00 -6.82274841e-01  2.82939862e-01
 -1.73117719e-01  7.34544020e-03 -1.58787834e-03  1.88509321e-04  6.98941983e-03
 -1.65732702e-03  1.88131414e-04 -8.72834317e-03  1.48873365e-03 -1.95013297e-04
  1.29748174e-02 -1.23303715e-03  2.21172404e-04 -4.44823148e-02  2.68224455e-02
 -2.00197147e-03  1.27623174e-03 -3.16926130e-05  1.82866588e-04  9.41841841e-04
  3.59885675e-04 -1.09943346e+00  1.36622609e+00 -1.03004629e+00  6.93730504e-01
 -2.87594796e-01  1.76130325e-01  7.25034418e-03  1.38191118e-03 -3.48249628e-05
  6.90739233e-03  1.45949642e-03 -4.18506634e-05 -8.60344411e-03 -1.25936816e-03
  1.10584265e-05  1.27288986e-02  8.92507031e-04  5.60764975e-05 -4.57480739e-02
 -2.61626834e-02  1.03803620e-03 -1.30591780e-03 -9.83336506e-06 -1.72143583e-04
 -8.69230502e-04  4.83451880e-04  7.69584446e-06 -3.63152776e-06 -1.27593211e-02
  6.72312436e-05 -1.37039848e-04  1.00960498e-04  2.47422691e-02  6.41255152e-06
  2.69986608e-04 -1.39114392e-03 -7.99832733e-02  5.05262503e-04 -8.41990088e-04
 -1.08853786e-04 -5.48261238e-04  1.04295854e-04  3.16010749e-04  1.02759483e-02
 -2.40329494e-05  4.24915828e-04 -2.29979289e-04  1.60178386e-03  3.92654099e-05
 -7.64570018e-05 -2.37322156e-05  4.50622673e-04 -2.23380690e-04  1.70400970e-03
  6.87827042e-05  1.15618625e-04  1.09931605e+00 -1.36554908e+00  1.02660977e+00
 -6.87772545e-01  2.81450386e-01 -1.84810369e-01 -4.82467469e-03 -5.34718495e-05
 -4.46413813e-05 -4.20833609e-03 -4.51368381e-05 -3.82749162e-05  6.40432567e-03
  5.25816437e-04  3.81418856e-05 -1.20527869e-02 -3.15216541e-04 -1.16141743e-04
 -3.66360269e-02  2.90078946e-02 -2.06481730e-03  7.82487954e-04 -2.18375701e-04
 -1.30517506e-05 -2.19977116e-03  2.99242671e-03  1.08093325e+00 -1.34270133e+00
  1.00936193e+00 -6.76129068e-01  2.76589637e-01 -1.81751683e-01  4.97760709e-03
 -1.21152788e-04  6.17636996e-05  4.35559811e-03 -9.71798718e-05  5.44034884e-05
 -6.57012170e-03  6.30897165e-04 -1.02785446e-04  1.23040037e-02 -5.54345850e-04
  1.48206651e-04  3.65666163e-02  2.76238977e-02 -1.23364438e-03  7.86563969e-04
  1.38401436e-04 -8.44483337e-05 -2.37647866e-03 -2.90017829e-03 -2.10057963e-03
  2.15321639e-03  3.90130558e-05  1.28768510e-02 -7.48553603e-04 -1.08349586e-02
 -3.11424447e-04 -4.39848979e-02  2.57435800e-03  1.72775782e-01  5.63159804e-05
  5.89152696e-02 -3.26001013e-03  1.60114929e-02 -3.92683822e-04  1.11716431e-03
 -9.36336120e-03  3.36665518e-04  1.59924007e-03 -5.34962130e-02  2.79610847e-02
 -2.36076045e-04 -8.63794385e-03  1.36867871e-02  1.58324268e-03 -5.33776721e-02
  2.79442541e-02  1.05295481e-05 -1.02708478e-02 -1.25834362e-02  1.90577578e-03
  7.07902144e-03 -3.81614868e-02  3.71176214e-02  7.17621070e-02 -3.21696735e-01
 -2.07468896e+00  1.31526300e+00 -9.62100052e-02 -2.06970519e+00  1.31382926e+00
 -9.60590857e-02  1.57384435e+00 -9.88330351e-01  7.25506595e-02 -9.73981468e-01
  5.94978546e-01 -4.41599489e-02  1.92004787e-01 -1.39147790e-01  9.73906945e-03
  3.18877184e-02 -3.57015923e-03  1.90563295e-03 -3.11230921e-02  4.47877138e-02
  1.87938818e-03  7.09416298e-03 -3.81080244e-02  3.70414994e-02  7.18119324e-02
 -3.21381730e-01  2.11124806e+00  1.26682242e+00 -5.02421076e-02  2.10624239e+00
  1.26552089e+00 -5.01995185e-02 -1.60121355e+00 -9.51487329e-01  3.76928028e-02
  9.90173602e-01  5.71930477e-01 -2.26155082e-02 -1.95956335e-01 -1.34728065e-01
  5.52582272e-03  3.20038315e-02  1.68404270e-03  8.67557991e-04 -3.33637012e-02
 -4.32805943e-02  1.54239580e-01 -1.91396663e-01 -2.27857996e-04 -5.59484772e-03
  2.96969916e-04 -3.13423808e-03  8.01176010e-04  5.30261642e-02 -2.82001367e-03
  7.64558467e-01  1.21463181e-03  1.00997776e-01 -3.48780735e-03 -3.54307496e-02
  1.16182004e-03 -1.07232914e-03  4.24605831e-02 -8.78892189e-04  4.02963548e-02
 -2.55059149e-01 -7.14592186e-02 -1.09247832e-03 -5.39663149e-02  3.62916789e-02
  4.04045621e-02 -2.53277620e-01 -7.01026904e-02 -4.63161578e-04 -5.77076953e-02
 -2.96887317e-02 -6.15587422e-03 -1.07048864e-02  8.02063801e-02 -1.04058797e-01
  5.19017050e-02  3.92331256e-02  1.98550867e+00 -1.40593859e+00  9.89043264e-02
  1.98918291e+00 -1.40721993e+00  9.90069054e-02 -1.46336311e+00  1.04355092e+00
 -7.33473727e-02  8.21885170e-01 -5.98699871e-01  4.19803287e-02 -2.66410866e-01
  1.50649407e-01 -1.11321089e-02 -2.17429960e-02  2.91381586e-03 -2.50372864e-03
  1.79786040e-03 -4.38952200e-02  6.12454705e-03  1.06815055e-02 -7.99549196e-02
  1.03750376e-01 -5.19342570e-02 -3.82541148e-02  2.01782945e+00  1.35367132e+00
 -5.41951753e-02  2.02155356e+00  1.35486971e+00 -5.42137942e-02 -1.48722376e+00
 -1.00494631e+00  4.04043956e-02  8.35205017e-01  5.76781710e-01 -2.34949819e-02
 -2.69942618e-01 -1.43769225e-01  5.15749923e-03  2.17409041e-02  2.06635705e-03
  1.47584399e-03 -3.93439097e-03 -4.36303264e-02 -1.00458696e-04  1.67006795e-04
 -1.28004856e-02  3.59752405e-05 -1.21245682e-04 -2.65538602e-04  1.86429474e-01
 -2.13004524e-03  1.94787227e-03 -1.50688500e-03  1.17869807e-01 -1.52007602e-03
  1.37844471e-03 -2.52877374e-04 -5.31790339e-03  1.07929775e-03  2.39376967e-03
  9.23227817e-02 -3.26858451e-05  6.38403075e-04  7.15664101e-05 -4.42164280e-02
  6.85753647e-04 -6.91875326e-04  1.88413775e-05  5.45546257e-04  2.12700424e-04
 -4.44664277e-02  6.63902621e-04 -3.32922642e-04  7.24733285e-04  2.31654233e-03
 -1.64646418e-02  2.65544484e-02 -5.15507981e-02  1.02793539e-01  1.30347610e+00
  2.01776483e+00 -9.44345895e-02  1.30945698e+00  2.03063789e+00 -9.50680873e-02
 -9.42575545e-01 -1.43623939e+00  6.70266949e-02  5.01063022e-01  7.13625014e-01
 -3.28830908e-02 -1.08149668e-01 -2.09644446e-01  1.02870068e-02 -4.98802412e-03
  2.54053945e-04  4.25049511e-04  1.64445134e-02  1.72270074e-03  7.28214243e-04
  2.32558839e-03 -1.65289040e-02  2.66489190e-02 -5.16545582e-02  1.02874283e-01
 -1.24945411e+00  2.04831293e+00 -1.22356039e-01 -1.25509143e+00  2.06132691e+00
 -1.23115956e-01  9.04101903e-01 -1.45832978e+00  8.72273322e-02 -4.81878119e-01
  7.25380037e-01 -4.36427774e-02  1.02460321e-01 -2.12141501e-01  1.26032146e-02
 -4.98301139e-03  3.05762501e-04  3.74818263e-04  1.63088361e-02 -2.54092815e-03
  2.95716798e-02 -3.56567965e-02  2.55779054e-04  2.05248357e-02 -1.04953617e-03
  3.61771995e-02 -7.37819738e-04 -5.95679787e-02  2.69743218e-03  7.08815470e-03
 -1.05130588e-03 -7.96489948e-02  3.44873237e-03  2.94197806e-02 -1.46321468e-05
  5.74947661e-03  4.21868069e-02 -1.05907759e-03 -4.62101888e-03 -3.77144689e-02
 -5.69267520e-02 -2.89358720e-04 -3.90075740e-03  2.34430207e-02 -4.38428965e-03
 -4.00250828e-02 -5.78866895e-02  1.65756017e-04 -7.59311885e-03 -2.31566703e-02
  2.11383022e-06  7.95158662e-06 -4.88415423e-05  6.48260153e-05 -1.48192961e-05
 -3.17541443e-04  2.99269233e-02 -1.28323859e-01 -2.39480021e+00  3.01271184e-02
 -1.29125324e-01 -2.40968573e+00 -2.12678504e-02  9.14893496e-02  1.70784010e+00
  1.04957078e-02 -4.58664074e-02 -8.57789813e-01 -3.00512053e-03  1.21892197e-02
  2.29473299e-01 -5.72404356e-04 -1.41566071e-02  3.50287455e-03 -6.69384972e-05
 -8.19618417e-04  1.09700799e-05  2.02276871e-05 -1.55062175e-04  2.18028797e-04
 -1.97463704e-04 -1.29815521e-04  2.29217454e-02 -1.32431992e-01 -2.39923119e+00
  2.30517411e-02 -1.33261268e-01 -2.41414910e+00 -1.64138814e-02  9.44057280e-02
  1.71097244e+00  8.43393178e-03 -4.73060504e-02 -8.59310541e-01 -2.20772975e-03
  1.26371561e-02  2.29957916e-01 -4.19869240e-05  1.42229853e-02  3.16742767e-03
 -3.27328735e-04  7.43293630e-04 -2.67114215e-04  3.00375718e-04  3.67740403e-04
 -1.93165393e-03 -3.41263461e-02 -4.11998858e-04 -1.49181805e-03  8.34315818e-03
  1.44356161e-01  1.82177924e-03 -9.79095533e-04  6.23382231e-03  1.00862432e-01
  3.95468568e-03 -4.48122572e-04 -3.48480512e-02  2.40049183e-03  3.48361416e-04
 -6.15905960e-03 -1.18671950e-01 -8.09660762e-02 -1.02992027e-03 -5.34167206e-02
  3.58357515e-02  5.89021140e-03  1.18046727e-01  8.00625467e-02  4.69895427e-04
  5.71929601e-02  2.91233435e-02  7.71048204e-05  1.52040051e-04 -1.17020905e-03
  1.73771758e-03 -2.54859466e-03  3.82126289e-03 -3.27890201e-02 -2.15058099e-01
 -2.39374316e+00 -3.30602302e-02 -2.16405965e-01 -2.40868176e+00  2.29954819e-02
  1.53415837e-01  1.70789214e+00 -1.08930598e-02 -7.75180055e-02 -8.63035008e-01
  4.98103514e-03  2.46487439e-02  2.78511895e-01 -7.75697324e-04  1.07735490e-03
  4.93556387e-03 -7.21854311e-05 -3.03442658e-06 -7.80592610e-05 -1.53405987e-04
  1.18165733e-03 -1.75305539e-03  2.54947003e-03 -3.77644401e-03 -8.01777315e-02
  2.16073333e-01  2.38769121e+00 -8.07428335e-02  2.17431238e-01  2.40259494e+00
  5.68182395e-02 -1.54117895e-01 -1.70355809e+00 -2.80121498e-02  7.78276588e-02
  8.60822221e-01  1.04960595e-02 -2.47971786e-02 -2.77867577e-01  8.05195838e-04
  9.86932025e-04 -4.93003936e-03  5.28117947e-05  1.15711990e-04  1.47353293e-06
 -2.33943555e-06 -8.24591191e-04  9.80160510e-06 -2.68783841e-05  3.05747462e-05
  1.97499538e-03 -2.60463386e-05  1.23777285e-04 -1.21048155e-04  6.86177754e-04
  1.26623097e-05  1.65986033e-04 -1.30573170e-03 -6.89833799e-02  8.20613970e-04
  6.27669976e-04 -4.76647333e-03 -8.77526173e-07 -5.19533788e-05 -1.22588958e-04
  3.11259499e-02 -4.09912535e-04  3.28047824e-04  2.87774609e-05  8.59258447e-05
  1.77258194e-04 -3.33727270e-02  4.41560062e-04 -3.73459998e-04 -1.43718260e-03
 -3.32857400e-03  2.45519283e-02 -3.69962091e-02  5.82840156e-02 -9.12010092e-02
  1.37820985e+00  1.95128080e+00 -1.92116323e-01  1.38865769e+00  1.96354423e+00
 -1.93304517e-01 -9.72274786e-01 -1.39214095e+00  1.37169477e-01  4.71095873e-01
  7.04542178e-01 -6.95729425e-02 -1.86744943e-01 -2.18421848e-01  2.16374420e-02
  7.98358206e-03 -2.12550123e-04  6.66579182e-04 -5.83179869e-03  1.30976904e-03
  1.43759589e-03  3.33067211e-03 -2.45642715e-02  3.70111550e-02 -5.82486147e-02
  9.10181806e-02  1.32664701e+00 -1.98527357e+00  2.26862900e-01  1.33676597e+00
 -1.99779935e+00  2.28308609e-01 -9.35522371e-01  1.41608731e+00 -1.61715596e-01
  4.52585410e-01 -7.16064839e-01  8.15227070e-02 -1.80917017e-01  2.22993760e-01
 -2.61535946e-02 -7.96063496e-03  1.74260282e-04 -6.45851502e-04  5.88508914e-03
  1.00284641e-03  7.22213350e-07 -1.96881834e-06  2.11335710e-02 -2.76600859e-04
  2.76781921e-04 -3.00544041e-05 -5.40326865e-02  7.00001504e-04 -7.81325986e-04
  1.11830923e-04 -1.68101597e-02  2.62462638e-04 -3.22792322e-04 -1.16504258e-04
 -3.66376905e-03  2.79030676e-04  4.63837980e-04  1.56452130e-02  1.65911465e-05
  1.92294578e-04  8.79673703e-05  2.94984038e-02 -2.83029661e-04  2.32465213e-04
 -1.89459751e-05 -1.36187808e-04 -9.40849267e-05  2.70826843e-02 -3.84894097e-04
  2.71441591e-04  1.93823649e-04 -6.61486060e-03  3.18110876e-02 -4.42609535e-02
  3.04477513e-02  2.97950045e-02  1.13382117e-01 -1.09558833e-01  6.97802166e-03
  1.19176279e-01 -1.14569338e-01  7.31501078e-03 -6.95346367e-02  6.56009573e-02
 -4.15731998e-03  4.97328061e-02 -3.37333949e-02  2.27855718e-03  2.96298824e-02
 -3.35549641e-03  5.13850978e-04 -1.21143022e-02  1.11107307e-03 -6.47670135e-04
  1.23939206e-02 -1.41591465e-02  1.83010770e-04 -6.62427553e-03  3.19042651e-02
 -4.43681510e-02  3.04549797e-02  2.97442727e-02 -1.16308258e-01 -1.06868713e-01
  4.44850961e-03 -1.22208520e-01 -1.11721502e-01  4.65536013e-03  7.14103119e-02
  6.40371029e-02 -2.60973942e-03 -5.07626521e-02 -3.26426857e-02  1.17411836e-03
 -2.95997898e-02 -2.56933835e-03 -1.40451967e-04 -1.21668506e-02 -3.76610501e-04
 -3.26109555e-04  1.31107775e-02  1.35922141e-02  2.01218537e+00 -2.22195454e+00
  7.67040758e-04  5.99996251e-02 -3.57900582e-03  8.52531829e-01 -5.06847231e-03
 -3.95225510e-01  2.37856528e-02 -3.49622719e-01 -2.75622929e-04 -1.91622078e-02
  1.01835769e-03  1.67869151e-01 -4.08065940e-03  1.12331653e-02 -1.04507647e-01
  2.42477652e-03  3.01179485e-02 -4.64314746e-01  2.23952783e-01 -4.39435834e-03
 -1.33004979e-01  2.61428609e-01  3.05037463e-02 -4.64812468e-01  2.24425370e-01
  6.03845148e-04 -1.63477341e-01 -2.43500263e-01  2.49006644e-04  1.01364847e-03
 -5.85225971e-03  7.41131342e-03 -6.47771009e-03  8.99042210e-03  5.74199849e-04
 -2.32015333e-03 -3.54127513e-02  6.40873276e-04 -2.65138189e-03 -4.00811823e-02
 -4.10585938e-04  8.85822464e-04  1.32407593e-02  1.16125341e-03 -1.50066986e-03
 -1.76123100e-02  1.58854327e-03  5.27463605e-03  1.16426204e-01  4.16334701e-03
 -1.73375260e-02 -4.39453367e-02  3.07930880e-03 -9.53793429e-04  2.61710719e-04
  1.06958313e-03 -6.17123593e-03  7.81903522e-03 -6.91264743e-03  9.91557408e-03
  1.58053297e-05 -2.31613755e-03 -3.54404632e-02  2.63115222e-05 -2.65019416e-03
 -4.00988269e-02  2.35270034e-04  8.84125391e-04  1.33262491e-02 -1.02687604e-03
 -1.55012113e-03 -1.78044671e-02 -3.93546051e-03  4.92236505e-03  1.16595625e-01
  4.76033384e-03  1.61261337e-02 -4.43285516e-02  2.70213325e-03  1.83831419e-03
 -6.04852057e-05  1.66425079e-04 -3.16432390e-03  1.83489128e-02  3.15951621e-01
  4.35591436e-04  1.79317289e-02 -1.04017485e-01 -1.79147094e+00 -1.49339783e-02
 -1.13492085e-02  6.04420071e-02  1.07599127e+00 -5.36696831e-02  6.75176520e-03
  5.04376567e-01 -3.03948919e-02 -4.68536747e-03 -4.94297834e-01  2.11029419e+00
 -2.42279448e+00  9.21134430e-03  3.32222890e-01 -4.74331494e-01  4.91998727e-01
 -2.09655567e+00  2.41769303e+00 -1.21117499e-04 -3.84368575e-01 -4.28179256e-01
 -6.61295044e-02 -2.69863238e-01  1.54579767e+00 -1.93055996e+00  1.53051187e+00
 -1.80442349e+00 -5.56828603e-02  4.32676148e-02 -3.26908988e-03 -6.68223785e-02
  5.71814942e-02 -4.20627968e-03  3.27111207e-02  1.25362426e-03  3.82561584e-04
 -1.23653854e-01  1.37916178e-02 -2.26131013e-03 -5.44959551e-01  3.76177672e-01
 -2.70370821e-02  1.14682239e-02 -4.00362619e-03 -1.19869560e-03 -4.75395903e-02
  5.45476174e-02 -6.57368047e-02 -2.68263324e-01  1.53662421e+00 -1.91910678e+00
  1.52190068e+00 -1.79478202e+00  5.61676534e-02  4.16319243e-02 -2.03115474e-03
  6.74016527e-02  5.51423118e-02 -2.71409577e-03 -3.31422577e-02  1.77818312e-03
 -3.12826336e-04  1.25162380e-01  1.13387102e-02  3.99511666e-04  5.51054620e-01
  3.60020138e-01 -1.48315882e-02  1.15721742e-02  2.43446720e-03 -2.48535334e-03
 -5.04752532e-02 -5.21265479e-02 -9.75123726e-02  7.65256620e-02  1.28986581e-03
  1.47893700e-01 -7.64582987e-03  1.15906035e-02 -7.40916690e-03 -6.72697421e-01
  3.27769934e-02  1.92981183e+00  9.15408967e-03  9.83600971e-01 -5.14071769e-02
  8.08016915e-02 -1.76886247e-03  8.54034795e-03 -4.30777623e-02  1.04353212e-03
  3.40296932e-01 -1.29989744e+00  8.96775527e-01 -3.03818102e-03 -1.02048321e-01
  1.73005783e-01  3.44131774e-01 -1.31513621e+00  9.14668480e-01  1.73247970e-04
 -1.25840366e-01 -1.63878562e-01  7.37401990e-02  3.01074532e-01 -1.71685305e+00
  2.12482418e+00 -1.54490984e+00  1.49296303e+00  7.38111652e-02 -2.35600582e-02
  2.20323553e-03  1.19709420e-01 -4.73421134e-02  4.05090483e-03  1.06002731e-01
 -6.95907230e-02  5.06537819e-03 -2.31899360e-01  1.27022636e-01 -9.73710980e-03
  5.65470154e-01 -4.69810930e-01  3.28356430e-02 -2.43968887e-02  1.48041758e-03
 -4.25045843e-03 -2.75381928e-02 -2.31747815e-02 -7.40664484e-02 -3.02411564e-01
  1.72446327e+00 -2.13424437e+00  1.55235824e+00 -1.50150428e+00  7.44778431e-02
  2.18204377e-02 -6.25125288e-04  1.20944383e-01  4.44941528e-02 -1.47232182e-03
  1.07322763e-01  6.68629644e-02 -2.72990251e-03 -2.33554368e-01 -1.20822077e-01
  4.66569671e-03  5.79652981e-01  4.57132482e-01 -2.02371382e-02  2.46322560e-02
  1.20816939e-03  3.63734698e-03  2.59344527e-02 -2.50772840e-02 -3.76026836e-04
  3.00538399e-04  2.15252264e-01 -2.41256423e-03  2.43082656e-03  9.60586582e-05
 -4.51282503e-01  4.23201050e-03 -5.54198875e-03  3.26514858e-03  1.18553394e+00
 -1.19340536e-02  1.26470602e-02 -1.80811386e-04  8.87658547e-04  9.69159061e-05
 -4.67822391e-04 -2.12133583e-02  1.19047130e-03 -3.06427988e-03  2.77972693e-03
 -2.45643387e-02  3.93050168e-04 -3.64648917e-04  1.26252548e-03 -4.38513507e-03
  3.15178564e-03 -2.56043010e-02 -1.56766300e-04 -7.35522341e-04  3.12612712e-02
  1.26807818e-01 -6.95112383e-01  7.94859611e-01 -2.81992475e-01 -1.77960714e-01
 -4.49779695e-02  2.14246357e-02 -1.73513102e-03  2.22530333e-02 -1.64651275e-02
  1.30162667e-03  3.10174783e-01 -1.68720578e-01  1.36287796e-02 -5.71187145e-01
  3.02827665e-01 -2.48025469e-02  2.76545059e-01 -1.78299916e-01  1.21247857e-02
  1.29288614e-02 -3.11198183e-03 -9.19890999e-04 -5.19825154e-02  2.62871730e-02
  3.13477449e-02  1.27161971e-01 -6.97046450e-01  7.97074268e-01 -2.83345967e-01
 -1.76104651e-01  4.54727587e-02  2.03180957e-02 -7.35739398e-04 -2.27658439e-02
 -1.58952043e-02  8.08659241e-04 -3.14410661e-01 -1.60911470e-01  6.74268936e-03
  5.78276375e-01  2.88142944e-01 -1.21215374e-02 -2.81039025e-01 -1.71547631e-01
  5.90992744e-03  1.28333652e-02  1.39693317e-03 -1.53179805e-03 -5.32439965e-02
 -2.34018921e-02 -8.96312506e-02  9.85177234e-02 -2.87032941e-03 -2.16218013e-01
  6.98013861e-03  1.03698183e-01  6.67764811e-03  5.47786456e-01 -4.10389766e-03
 -1.84513463e+00  6.95618373e-03  6.18006483e-01 -2.83484320e-02 -3.62103029e-01
  9.69540900e-03 -3.44497241e-02  3.01009125e-01 -7.32048009e-03  4.79398268e-01
 -4.75420946e-01  1.28571614e+00  6.28397177e-03  1.40960879e-01 -4.34869999e-01
  4.84789490e-01 -4.36308726e-01  1.28908576e+00 -1.99054003e-03  2.13159590e-01
  4.37658766e-01 -2.79716939e-04 -1.13352107e-03  6.17087673e-03 -6.97261786e-03
  2.57513870e-03 -4.70735879e-04  4.25378085e-04 -8.94817117e-04 -1.21891289e-02
 -3.94211085e-04  9.64376475e-04  1.37195943e-02 -3.50266120e-03  8.16042668e-03
  1.15590898e-01  5.99927681e-03 -1.53333181e-02 -2.26772947e-01 -2.50024675e-03
  1.68417762e-04 -2.52708488e-02 -7.49251214e-03 -1.02014135e-01  5.89583290e-02
 -2.16575274e-03 -6.56881797e-03 -3.02576967e-04 -1.22703787e-03  6.67622010e-03
 -7.54088240e-03  2.88691177e-03 -1.20367153e-03 -1.65302915e-04 -8.74190235e-04
 -1.21381544e-02  1.74464111e-04  9.77843982e-04  1.38172866e-02  1.27870325e-03
  8.07277761e-03  1.15670854e-01 -1.46023581e-03 -1.50360167e-02 -2.26772044e-01
  3.32964742e-03  1.97321324e-04 -2.51140775e-02 -3.50249652e-03  1.03569712e-01
  5.64799852e-02 -4.05392566e-03  5.38368845e-03  6.80875727e-04 -8.74732095e-04
  5.54209489e-03 -3.18295698e-02 -5.48378270e-01 -3.96884716e-04 -3.04374959e-02
  1.78564668e-01  3.04943979e+00  2.37917517e-02 -9.67935220e-03  5.52095115e-02
  1.01154527e+00  1.82953154e-01 -2.33870520e-02 -1.71328201e+00  1.01107366e-01
  1.58435037e-02 -3.15551487e-01 -2.09626501e+00 -4.40891432e-01 -2.78531345e-02
 -1.00178471e+00  1.47388163e+00  3.08548480e-01  2.09521755e+00  4.19237016e-01
 -4.88962320e-06  1.16726421e+00  1.33396120e+00 -1.64243031e-02 -6.65358961e-02
  3.50539681e-01 -3.67568841e-01 -2.63806238e-02  6.60722941e-01  1.58346162e-02
 -2.26037547e-02  1.48023478e-03 -3.97866902e-03  5.83900988e-03 -2.88458869e-04
 -8.91734563e-02  1.27470559e-01 -8.12030436e-03  2.15891787e-01 -2.77213285e-01
  1.82553816e-02  1.44381330e-01 -2.86725804e-01  1.76309072e-02 -5.38624575e-02
  4.53423991e-03 -1.07311035e-02 -8.11109246e-02 -7.57945853e-02 -1.64389421e-02
 -6.65972413e-02  3.50888498e-01 -3.68021897e-01 -2.57489537e-02  6.58441857e-01
 -1.62611685e-02 -2.21161963e-02  1.13528647e-03  3.99737834e-03  5.67175786e-03
 -2.01788356e-04  9.13364475e-02  1.24588354e-01 -6.20292566e-03 -2.21170240e-01
 -2.70584946e-01  1.36502603e-02 -1.52115906e-01 -2.82755135e-01  1.38720651e-02
 -5.39120037e-02 -4.43386243e-03 -8.77605563e-03 -7.71930475e-02  7.97379985e-02
  9.36030845e-02  8.43475389e-03  1.54840096e-03  1.28892115e-01 -7.35698290e-03
 -2.38778527e-01  1.02065122e-02  7.51618757e-01 -4.43656053e-02 -5.08548357e+00
  1.87352314e-02  1.37244854e+00 -8.18848304e-02 -4.76093314e-01  1.16824604e-02
 -3.16429732e-02  3.25487272e-01 -7.20006455e-03 -6.74010539e-01  2.95477569e+00
  4.65751303e-01  1.44613010e-02  3.33672438e-01 -9.90052988e-01 -6.76073107e-01
  2.96011931e+00  4.65115652e-01 -4.73548622e-03  4.52286675e-01  9.45006571e-01
 -3.06723626e-02 -1.21688483e-01  6.36210648e-01 -6.57974636e-01  8.98083004e-02
  4.94714303e-01 -1.57313161e-01  9.06450346e-02 -6.75889849e-03  2.25873722e-02
 -9.77774311e-03  7.83924707e-04  7.28462550e-01 -4.05576463e-01  3.05031847e-02
 -1.05342312e+00  5.89855063e-01 -4.43832555e-02  9.59843907e-01 -4.77085666e-01
  3.61707503e-02  4.20904097e-02 -2.06603466e-03  6.29390554e-03  2.86372874e-02