Generated by Psi4
        SP                        DF-MP2                   AUG-CC-PVTZ
Number of atoms                            I                5
Charge                                     I                0
Multiplicity                               I                1
Number of electrons                        I               42
Number of alpha electrons                  I               21
Number of beta electrons                   I               21
Number of basis functions                  I              192
Number of independent functions            I              192
Atomic numbers                             I   N=           5
          17          17           6           1           1
Nuclear charges                            R   N=           5
  1.70000000e+01  1.70000000e+01  6.00000000e+00  1.00000000e+00  1.00000000e+00
Current cartesian coordinates              R   N=          15
 -2.78108984e+00  3.68582460e-01 -4.97305876e-02  2.79003580e+00  3.00887935e-01
  1.13506044e-02 -2.01690003e-02 -1.50288636e+00  8.57034704e-02 -5.18298975e-02
 -2.56525001e+00  1.84196471e+00 -1.84222566e-02 -2.76898472e+00 -1.53073774e+00
Integer atomic weights                     I   N=           5
          34          34          12           1           1
Real atomic weights                        R   N=           5
  3.49688527e+01  3.49688527e+01  1.20000000e+01  1.00782503e+00  1.00782503e+00
Number of primitive shells                 I              180
Number of contracted shells                I               64
Pure/Cartesian d shells                    I                0
Pure/Cartesian f shells                    I                0
Highest angular momentum                   I                3
Largest degree of contraction              I               13
Shell types                                I   N=          64
           0           0           0           0           0           1
           1           1           1          -2          -2          -3
           0           1          -2          -3           0           0
           0           0           0           1           1           1
           1          -2          -2          -3           0           1
          -2          -3           0           0           0           0
           1           1           1          -2          -2          -3
           0           1          -2          -3           0           0
           0           1           1          -2           0           1
          -2           0           0           0           1           1
          -2           0           1          -2
Number of primitives per shell             I   N=          64
          13          13          13           1           1           7
           7           1           1           1           1           1
           1           1           1           1          13          13
          13           1           1           7           7           1
           1           1           1           1           1           1
           1           1           8           8           1           1
           3           1           1           1           1           1
           1           1           1           1           3           1
           1           1           1           1           1           1
           1           3           1           1           1           1
           1           1           1           1
Shell to atom map                          I   N=          64
           1           1           1           1           1           1
           1           1           1           1           1           1
           1           1           1           1           2           2
           2           2           2           2           2           2
           2           2           2           2           2           2
           2           2           3           3           3           3
           3           3           3           3           3           3
           3           3           3           3           4           4
           4           4           4           4           4           4
           4           5           5           5           5           5
           5           5           5           5
Primitive exponents                        R   N=         180
  4.56100000e+05  6.83300000e+04  1.55500000e+04  4.40500000e+03  1.43900000e+03
  5.20400000e+02  2.03100000e+02  8.39600000e+01  3.62000000e+01  1.58300000e+01
  6.33400000e+00  2.69400000e+00  4.31300000e-01  4.56100000e+05  6.83300000e+04
  1.55500000e+04  4.40500000e+03  1.43900000e+03  5.20400000e+02  2.03100000e+02
  8.39600000e+01  3.62000000e+01  1.58300000e+01  6.33400000e+00  2.69400000e+00
  4.31300000e-01  4.56100000e+05  6.83300000e+04  1.55500000e+04  4.40500000e+03
  1.43900000e+03  5.20400000e+02  2.03100000e+02  8.39600000e+01  3.62000000e+01
  1.58300000e+01  6.33400000e+00  2.69400000e+00  4.31300000e-01  9.76800000e-01
  1.62500000e-01  6.63300000e+02  1.56800000e+02  4.99800000e+01  1.84200000e+01
  7.24000000e+00  2.92200000e+00  3.81800000e-01  6.63300000e+02  1.56800000e+02
  4.99800000e+01  1.84200000e+01  7.24000000e+00  2.92200000e+00  3.81800000e-01
  1.02200000e+00  1.30100000e-01  1.04600000e+00  3.44000000e-01  7.06000000e-01
  5.91000000e-02  4.19000000e-02  1.35000000e-01  3.12000000e-01  4.56100000e+05
  6.83300000e+04  1.55500000e+04  4.40500000e+03  1.43900000e+03  5.20400000e+02
  2.03100000e+02  8.39600000e+01  3.62000000e+01  1.58300000e+01  6.33400000e+00
  2.69400000e+00  4.31300000e-01  4.56100000e+05  6.83300000e+04  1.55500000e+04
  4.40500000e+03  1.43900000e+03  5.20400000e+02  2.03100000e+02  8.39600000e+01
  3.62000000e+01  1.58300000e+01  6.33400000e+00  2.69400000e+00  4.31300000e-01
  4.56100000e+05  6.83300000e+04  1.55500000e+04  4.40500000e+03  1.43900000e+03
  5.20400000e+02  2.03100000e+02  8.39600000e+01  3.62000000e+01  1.58300000e+01
  6.33400000e+00  2.69400000e+00  4.31300000e-01  9.76800000e-01  1.62500000e-01
  6.63300000e+02  1.56800000e+02  4.99800000e+01  1.84200000e+01  7.24000000e+00
  2.92200000e+00  3.81800000e-01  6.63300000e+02  1.56800000e+02  4.99800000e+01
  1.84200000e+01  7.24000000e+00  2.92200000e+00  3.81800000e-01  1.02200000e+00
  1.30100000e-01  1.04600000e+00  3.44000000e-01  7.06000000e-01  5.91000000e-02
  4.19000000e-02  1.35000000e-01  3.12000000e-01  8.23600000e+03  1.23500000e+03
  2.80800000e+02  7.92700000e+01  2.55900000e+01  8.99700000e+00  3.31900000e+00
  3.64300000e-01  8.23600000e+03  1.23500000e+03  2.80800000e+02  7.92700000e+01
  2.55900000e+01  8.99700000e+00  3.31900000e+00  3.64300000e-01  9.05900000e-01
  1.28500000e-01  1.87100000e+01  4.13300000e+00  1.20000000e+00  3.82700000e-01
  1.20900000e-01  1.09700000e+00  3.18000000e-01  7.61000000e-01  4.40200000e-02
  3.56900000e-02  1.00000000e-01  2.68000000e-01  3.38700000e+01  5.09500000e+00
  1.15900000e+00  3.25800000e-01  1.02700000e-01  1.40700000e+00  3.88000000e-01
  1.05700000e+00  2.52600000e-02  1.02000000e-01  2.47000000e-01  3.38700000e+01
  5.09500000e+00  1.15900000e+00  3.25800000e-01  1.02700000e-01  1.40700000e+00
  3.88000000e-01  1.05700000e+00  2.52600000e-02  1.02000000e-01  2.47000000e-01
Contraction coefficients                   R   N=         180
  4.92941786e-05  3.83007078e-04  2.00842505e-03  8.38510007e-03  2.94686133e-02
  8.78274731e-02  2.11460897e-01  3.65343089e-01  3.40864490e-01  1.02127155e-01
  3.11657162e-03  1.05744948e-03  1.56127064e-04 -1.47034206e-05 -1.14050805e-04
 -6.00752909e-04 -2.51040623e-03 -8.99281123e-03 -2.76027210e-02 -7.29687441e-02
 -1.50829556e-01 -2.11900675e-01 -2.08012833e-02  5.31286306e-01  5.99320882e-01
 -8.87804707e-03  6.49541842e-06  5.03428836e-05  2.65537974e-04  1.10833025e-03
  3.98380676e-03  1.22375442e-02  3.27244651e-02  6.86349823e-02  1.01132715e-01
  9.35814761e-03 -3.20459741e-01 -6.29871500e-01  1.12615383e+00  1.00000000e+00
  1.00000000e+00  2.47384091e-03  1.97690804e-02  9.10628980e-02  2.63405289e-01
  4.49530829e-01  3.60439921e-01 -4.71646914e-03 -1.11774970e-03 -8.90307363e-03
 -4.23241575e-02 -1.24804829e-01 -2.29721907e-01 -1.62439080e-01  9.67816011e-01
  1.00000000e+00  1.00000000e+00  1.00000000e+00  1.00000000e+00  1.00000000e+00
  1.00000000e+00  1.00000000e+00  1.00000000e+00  1.00000000e+00  4.92941786e-05
  3.83007078e-04  2.00842505e-03  8.38510007e-03  2.94686133e-02  8.78274731e-02
  2.11460897e-01  3.65343089e-01  3.40864490e-01  1.02127155e-01  3.11657162e-03
  1.05744948e-03  1.56127064e-04 -1.47034206e-05 -1.14050805e-04 -6.00752909e-04
 -2.51040623e-03 -8.99281123e-03 -2.76027210e-02 -7.29687441e-02 -1.50829556e-01
 -2.11900675e-01 -2.08012833e-02  5.31286306e-01  5.99320882e-01 -8.87804707e-03
  6.49541842e-06  5.03428836e-05  2.65537974e-04  1.10833025e-03  3.98380676e-03
  1.22375442e-02  3.27244651e-02  6.86349823e-02  1.01132715e-01  9.35814761e-03
 -3.20459741e-01 -6.29871500e-01  1.12615383e+00  1.00000000e+00  1.00000000e+00
  2.47384091e-03  1.97690804e-02  9.10628980e-02  2.63405289e-01  4.49530829e-01
  3.60439921e-01 -4.71646914e-03 -1.11774970e-03 -8.90307363e-03 -4.23241575e-02
 -1.24804829e-01 -2.29721907e-01 -1.62439080e-01  9.67816011e-01  1.00000000e+00
  1.00000000e+00  1.00000000e+00  1.00000000e+00  1.00000000e+00  1.00000000e+00
  1.00000000e+00  1.00000000e+00  1.00000000e+00  5.42430189e-04  4.19642790e-03
  2.15409141e-02  8.36149496e-02  2.39871619e-01  4.43751820e-01  3.53579696e-01
 -9.17636608e-03 -1.96392234e-04 -1.52595027e-03 -7.89044903e-03 -3.15148705e-02
 -9.69100083e-02 -2.20541526e-01 -2.96069113e-01  1.04050343e+00  1.00000000e+00
  1.00000000e+00  3.94263872e-02  2.44088985e-01  8.15492009e-01  1.00000000e+00
  1.00000000e+00  1.00000000e+00  1.00000000e+00  1.00000000e+00  1.00000000e+00
  1.00000000e+00  1.00000000e+00  1.00000000e+00  2.54948632e-02  1.90362766e-01
  8.52162022e-01  1.00000000e+00  1.00000000e+00  1.00000000e+00  1.00000000e+00
  1.00000000e+00  1.00000000e+00  1.00000000e+00  1.00000000e+00  2.54948632e-02
  1.90362766e-01  8.52162022e-01  1.00000000e+00  1.00000000e+00  1.00000000e+00
  1.00000000e+00  1.00000000e+00  1.00000000e+00  1.00000000e+00  1.00000000e+00
Coordinates of each shell                  R   N=         192
 -2.78108984e+00  3.68582460e-01 -4.97305876e-02 -2.78108984e+00  3.68582460e-01
 -4.97305876e-02 -2.78108984e+00  3.68582460e-01 -4.97305876e-02 -2.78108984e+00
  3.68582460e-01 -4.97305876e-02 -2.78108984e+00  3.68582460e-01 -4.97305876e-02
 -2.78108984e+00  3.68582460e-01 -4.97305876e-02 -2.78108984e+00  3.68582460e-01
 -4.97305876e-02 -2.78108984e+00  3.68582460e-01 -4.97305876e-02 -2.78108984e+00
  3.68582460e-01 -4.97305876e-02 -2.78108984e+00  3.68582460e-01 -4.97305876e-02
 -2.78108984e+00  3.68582460e-01 -4.97305876e-02 -2.78108984e+00  3.68582460e-01
 -4.97305876e-02 -2.78108984e+00  3.68582460e-01 -4.97305876e-02 -2.78108984e+00
  3.68582460e-01 -4.97305876e-02 -2.78108984e+00  3.68582460e-01 -4.97305876e-02
 -2.78108984e+00  3.68582460e-01 -4.97305876e-02  2.79003580e+00  3.00887935e-01
  1.13506044e-02  2.79003580e+00  3.00887935e-01  1.13506044e-02  2.79003580e+00
  3.00887935e-01  1.13506044e-02  2.79003580e+00  3.00887935e-01  1.13506044e-02
  2.79003580e+00  3.00887935e-01  1.13506044e-02  2.79003580e+00  3.00887935e-01
  1.13506044e-02  2.79003580e+00  3.00887935e-01  1.13506044e-02  2.79003580e+00
  3.00887935e-01  1.13506044e-02  2.79003580e+00  3.00887935e-01  1.13506044e-02
  2.79003580e+00  3.00887935e-01  1.13506044e-02  2.79003580e+00  3.00887935e-01
  1.13506044e-02  2.79003580e+00  3.00887935e-01  1.13506044e-02  2.79003580e+00
  3.00887935e-01  1.13506044e-02  2.79003580e+00  3.00887935e-01  1.13506044e-02
  2.79003580e+00  3.00887935e-01  1.13506044e-02  2.79003580e+00  3.00887935e-01
  1.13506044e-02 -2.01690003e-02 -1.50288636e+00  8.57034704e-02 -2.01690003e-02
 -1.50288636e+00  8.57034704e-02 -2.01690003e-02 -1.50288636e+00  8.57034704e-02
 -2.01690003e-02 -1.50288636e+00  8.57034704e-02 -2.01690003e-02 -1.50288636e+00
  8.57034704e-02 -2.01690003e-02 -1.50288636e+00  8.57034704e-02 -2.01690003e-02
 -1.50288636e+00  8.57034704e-02 -2.01690003e-02 -1.50288636e+00  8.57034704e-02
 -2.01690003e-02 -1.50288636e+00  8.57034704e-02 -2.01690003e-02 -1.50288636e+00
  8.57034704e-02 -2.01690003e-02 -1.50288636e+00  8.57034704e-02 -2.01690003e-02
 -1.50288636e+00  8.57034704e-02 -2.01690003e-02 -1.50288636e+00  8.57034704e-02
 -2.01690003e-02 -1.50288636e+00  8.57034704e-02 -5.18298975e-02 -2.56525001e+00
  1.84196471e+00 -5.18298975e-02 -2.56525001e+00  1.84196471e+00 -5.18298975e-02
 -2.56525001e+00  1.84196471e+00 -5.18298975e-02 -2.56525001e+00  1.84196471e+00
 -5.18298975e-02 -2.56525001e+00  1.84196471e+00 -5.18298975e-02 -2.56525001e+00
  1.84196471e+00 -5.18298975e-02 -2.56525001e+00  1.84196471e+00 -5.18298975e-02
 -2.56525001e+00  1.84196471e+00 -5.18298975e-02 -2.56525001e+00  1.84196471e+00
 -1.84222566e-02 -2.76898472e+00 -1.53073774e+00 -1.84222566e-02 -2.76898472e+00
 -1.53073774e+00 -1.84222566e-02 -2.76898472e+00 -1.53073774e+00 -1.84222566e-02
 -2.76898472e+00 -1.53073774e+00 -1.84222566e-02 -2.76898472e+00 -1.53073774e+00
 -1.84222566e-02 -2.76898472e+00 -1.53073774e+00 -1.84222566e-02 -2.76898472e+00
 -1.53073774e+00 -1.84222566e-02 -2.76898472e+00 -1.53073774e+00 -1.84222566e-02
 -2.76898472e+00 -1.53073774e+00
Total Energy                               R     -9.586448544687634e+02
Alpha Orbital Energies                     R   N=         192
 -4.69891051e-06 -2.76222966e-06 -2.09522577e-06 -1.10024572e-06 -8.23581722e-07
 -6.40620953e-07 -2.81167034e-07  1.94298562e-08  2.58535607e-08  1.06298136e-07
  1.52867370e-07  3.88527223e-07  3.92474150e-07  5.33644831e-07  8.85588769e-07
  9.38972477e-07  9.68073678e-07  1.06343792e-06  1.16187553e-06  1.48862351e-06
  1.52678489e-06  1.64565040e-06  2.05966320e-06  2.27411586e-06  2.41794420e-06
  2.69247701e-06  3.08021689e-06  3.08158366e-06  3.25277633e-06  3.41889743e-06
  3.62939018e-06  3.99616269e-06  4.49897964e-06  4.86593251e-06  4.93296004e-06
  5.59242613e-06  6.07719754e-06  6.70311810e-06  7.42819831e-06  7.73896243e-06
  8.50690371e-06  8.58755587e-06  9.04843379e-06  9.65067175e-06  9.76585424e-06
  1.04785809e-05  1.12408608e-05  1.17300408e-05  1.37895967e-05  1.42943073e-05
  1.43194535e-05  1.50928621e-05  1.83909559e-05  1.88333574e-05  1.94819813e-05
  1.97527586e-05  2.20228167e-05  2.25274629e-05  2.34688509e-05  2.45720047e-05
  2.52446349e-05  2.57174365e-05  2.64125165e-05  2.68746369e-05  2.74012690e-05
  2.88564919e-05  3.28123831e-05  3.33890830e-05  3.37793839e-05  3.40359590e-05
  3.47066296e-05  3.49575438e-05  3.65057058e-05  3.72594801e-05  4.04235215e-05
  4.10388782e-05  4.13389650e-05  4.18556073e-05  4.44770912e-05  4.49990783e-05
  4.61329978e-05  4.74128857e-05  5.15115600e-05  5.27292817e-05  5.38107322e-05
  5.48898646e-05  5.84977013e-05  5.97695399e-05  6.12620308e-05  6.25463188e-05
  6.94377086e-05  7.05247701e-05  7.27185216e-05  7.38826653e-05  8.06623704e-05
  8.20752631e-05  8.32402684e-05  9.54809070e-05  9.65981490e-05  9.71790171e-05
  9.86896879e-05  1.02861746e-04  1.39252299e-04  1.57566373e-04  1.60503698e-04
  1.60853055e-04  1.61046874e-04  1.78109939e-04  1.99151870e-04  2.01676539e-04
  2.01845879e-04  2.11100468e-04  2.13757946e-04  2.38510835e-04  2.40558180e-04
  2.56848304e-04  2.58209816e-04  2.88102322e-04  2.91756692e-04  3.31484267e-04
  3.35281173e-04  3.39186094e-04  3.58875629e-04  3.67214571e-04  3.93699848e-04
  3.96264599e-04  3.98435492e-04  4.41902780e-04  4.45151333e-04  5.29337643e-04
  5.35711945e-04  6.08093603e-04  6.19459747e-04  6.20731665e-04  6.25417898e-04
  6.36836974e-04  6.46487276e-04  6.68528858e-04  6.70963265e-04  7.14404991e-04
  7.37370200e-04  7.60684915e-04  8.83981509e-04  9.11595065e-04  1.13582114e-03
  1.50028386e-03  1.66543684e-03  1.67443451e-03  2.11784495e-03  2.13158137e-03
  2.73808756e-03  3.00740924e-03  3.43795297e-03  3.78623483e-03  4.53932598e-03
  4.68916970e-03  4.82634282e-03  5.42125806e-03  5.62769287e-03  7.11078074e-03
  7.98546468e-03  8.38123704e-03  8.51542787e-03  8.80686992e-03  8.86991914e-03
  8.91396547e-03  9.39082340e-03  1.03057700e-02  1.04014024e-02  1.79394743e-02
  2.01384248e-02  9.70596079e-01  9.73128215e-01  9.77052103e-01  9.77368574e-01
  9.77438956e-01  9.77937325e-01  9.82711782e-01  9.86346950e-01  9.90379210e-01
  9.91687955e-01  1.00000000e+00  1.00000000e+00  1.00000053e+00  1.00000290e+00
  1.00000351e+00  1.00001134e+00  1.00001149e+00  1.00002016e+00  1.00002068e+00
  1.00002082e+00  1.00002085e+00
Alpha MO coefficients                      R   N=       36864
 -2.10896620e-02 -1.13942065e-01 -1.12370867e-01  8.69832568e-02 -5.34780928e-01
  8.86360940e-02  7.58437510e-02 -3.47870267e-03  1.49006804e-01  1.31009281e-01
 -6.03849723e-03 -9.83865254e-02 -6.14488780e-02  2.56969091e-03 -7.63795641e-01
 -6.63432686e-01  3.45830840e-02  9.84758933e-03 -3.90732467e-03  5.79859016e-03
  7.08399783e-02  7.57625918e-02 -5.17359735e-03  1.28684807e-02 -2.20878469e-02
 -3.26008843e-01 -2.68247320e-01 -8.55016823e-04 -9.20393200e-04  5.71741749e-03
  2.10434610e-03 -2.67392466e-03 -2.78915508e-02 -4.07113778e-02  2.28648439e+00
  2.79406978e-01 -3.17521744e-01  2.11294221e-02  9.05990507e-02 -1.77350073e-02
 -6.44294399e-03 -2.90775152e-01  2.45971814e-01  4.45401747e-04  4.06612089e-02
  2.64321384e-03 -1.12995479e-02 -2.15296439e-03 -1.02802682e-01  1.29714204e-01
  2.11752856e-02  1.14415005e-01  1.12887892e-01 -8.73704499e-02  5.33960264e-01
  8.65648219e-02 -7.86937166e-02  5.18410179e-03  1.45403545e-01 -1.35963000e-01
  8.85265514e-03 -9.67084828e-02  6.42352621e-02 -4.60076463e-03 -7.43410935e-01
  6.79574246e-01 -4.97188415e-02 -1.00382591e-02 -5.09864878e-03 -3.96424207e-03
 -6.69819317e-02  7.94006625e-02  5.59240034e-03  2.00347994e-02  1.56418267e-02
  3.11852470e-01 -2.84058334e-01  8.17772150e-04 -1.10109068e-03 -5.73332946e-03
 -2.87050255e-03 -1.30168842e-03 -2.47234277e-02  4.26897323e-02 -2.28503089e+00
  2.89277533e-01  3.10076072e-01 -1.47818509e-02 -9.03996273e-02 -8.21038690e-03
  1.15849764e-02  3.00568701e-01  2.31710328e-01  1.66245546e-03  4.07056079e-02
 -3.74998016e-03  6.88379635e-03 -5.65980992e-03 -1.11999551e-01 -1.21673918e-01
  1.53737014e-04  2.97010320e-04  9.14918670e-05  4.12129710e-04 -1.86791968e-02
  2.66098373e-04 -1.75041258e-04  7.75004182e-02 -1.17544746e-03  4.55093450e-04
 -2.81609695e-01  4.46714837e-03 -4.46202742e-03  4.09031098e-06  1.04271262e-03
 -2.08927992e-04 -3.46632067e-04 -1.74205206e-02  1.46031664e-04  4.36597259e-03
 -7.06263481e-04 -3.03228424e-03 -7.05927731e-02 -9.48440332e-04 -3.59378120e-02
  3.14155023e-04 -6.76554578e-04 -8.96927523e-03 -7.66411010e-02  2.91253312e-03
 -1.90495994e-03  2.27572622e+00 -2.88169270e-02  2.48605808e-02 -2.00153708e-03
  1.07712139e-02 -1.40202988e-03 -5.30422150e-03 -5.65797424e-02  7.36794185e-03
  2.79120113e-01 -2.18657049e-03  7.42250691e-03  7.96311300e-02  7.43691733e-01
 -2.86299817e-02 -1.98526468e-05  3.41838518e-04  1.52255117e-03  6.39894199e-02
 -8.54016413e-04  6.97946571e-04 -2.43240539e-01  3.25521242e-03 -2.63267288e-03
  1.45133525e-04  9.11110483e-03 -3.99018491e-05  9.38641455e-05  7.91389089e-03
  7.20679477e-06  5.23877235e-01 -4.52221624e-03  6.61780133e-03 -4.06391725e-03
 -2.15506522e-01  3.32889970e-04 -2.78424476e-03 -2.06253190e-01 -3.27258041e-05
 -8.52441330e-04  3.32335109e-04  6.42962407e-02 -7.73335240e-04  7.51660011e-04
 -2.42436365e-01  2.98292654e-03 -3.11924029e-03 -1.79406251e-04 -9.75885043e-03
  2.30803200e-04  2.60562262e-04  7.00914886e-03 -1.16527774e-04  5.33033300e-01
 -4.43653804e-03  4.29724098e-03  4.15924155e-03  2.38728725e-01 -4.82570892e-03
 -6.93305427e-03 -1.80042633e-01 -6.12604173e-04 -3.59419538e-03 -4.29954135e-03
  1.11602272e-03  1.35964613e-02  3.11136775e-04 -3.11561987e-03 -6.39229682e-02
  5.21963546e-04 -5.74836061e-03 -1.18489794e-01 -2.11993864e-04  1.87396165e-03
  3.87740298e-02  1.98599636e-03  3.57106577e-02  6.86724624e-01 -2.82289418e-03
 -4.68833093e-02  2.00704425e-02 -4.15972638e-04 -2.74838462e-03  1.24183265e-02
  1.78554185e-01 -9.34624579e-02  2.89580679e-03  1.10194773e-02  3.65818409e-02
 -5.80908889e-03  7.16013299e-03  1.23306296e-02  5.69648768e-02 -4.14959226e-03
  3.99414360e-04 -2.36819933e-02  6.43773195e-03 -6.57276121e-02 -1.26289674e+00
  2.62575176e-02  2.43150658e-02 -2.70746114e-01  1.94477318e-02  1.81379709e-03
 -1.33750910e-01  1.96822634e-02 -2.46061945e-02 -2.88577361e-02 -1.87795510e-01
  1.37831659e-02 -4.89070920e-04 -7.31203233e-04 -4.27384929e-03 -5.07892413e-03
  1.44148359e-03  1.31273026e-02  1.32936423e-03 -3.06859336e-03 -6.40587166e-02
  2.57486984e-03 -5.65248898e-03 -1.18784181e-01 -6.81314226e-04  1.87012886e-03
  3.87752525e-02 -1.52560850e-02  3.58520244e-02  6.90283011e-01 -1.02048926e-03
  4.72507863e-02  1.89109748e-02 -1.29666038e-03  2.28990884e-03  5.71326164e-03
 -1.80423125e-01 -8.90417139e-02  5.91120605e-03 -9.08453574e-03  3.69194224e-02
  4.35092825e-03  5.00408307e-03  9.43415795e-03 -5.77768815e-02  4.00295803e-03
  1.64635073e-03 -2.67133661e-02  2.07040593e-02 -6.51302306e-02 -1.26069614e+00
  2.52163066e-02 -3.32948843e-02 -2.71004193e-01  1.98906849e-02  2.79989273e-03
 -1.34726930e-01 -1.38609052e-02 -1.75488618e-02 -1.93479123e-02  1.89786008e-01
 -1.32612776e-02 -4.50343872e-03 -1.49010491e-04 -1.56280890e-04  1.05249247e-03
 -8.05564183e-02 -6.55061753e-04  3.65965902e-03  6.41002718e-02  9.53015528e-03
 -5.61577255e-02 -9.63543651e-01  3.22587831e-02 -1.67256092e-01 -3.04523140e+00
  3.42297270e-03 -3.83685001e-04 -2.71810762e-02  1.62600257e-03  2.08493929e-04
 -7.03515971e-02  8.11531407e-03  5.88889327e-01 -3.51582922e-02 -5.00905853e-03
 -9.49907692e-03 -5.39437542e-04 -5.44315334e-03 -3.97713257e-02  1.10100408e-03
  5.21215573e-04 -2.45478337e-03  4.65850079e-02 -2.61334632e-02  1.55432767e-01
  2.57478680e+00 -1.61120241e-01  1.39767508e-02  1.54406302e+00 -8.55710767e-02
 -1.44285790e-02  2.88218518e-01 -6.09623966e-03  5.41470512e-02  7.66840113e-02
 -2.71962674e-03 -1.30075133e-03  5.97557478e-03 -7.62344546e-02  2.03860231e+00
 -3.02763613e-01 -2.55545098e-03 -9.13763613e-02  1.33565343e-01  1.15914822e-02
  3.33031371e-01 -6.74956004e-01 -1.25744788e-02  2.65352207e-04  3.23275062e-02
 -2.17666131e-02  2.03786680e-04 -6.37597445e-01 -1.60774031e-02 -6.79979707e-01
  1.15807842e+00 -3.48140690e-02 -2.09052873e-04 -2.58180915e-01  1.96162334e-01
 -1.51217538e-03  7.55322917e-02 -2.00308099e+00  3.38832315e-01  9.05446693e-05
  1.06643330e-01  1.20743058e-01  1.44775809e-03 -4.05466154e-01 -6.25969465e-01
  4.66581807e-03  5.65920786e-04  3.69594164e-02  1.71083440e-02 -7.53314755e-04
  6.38970322e-01 -6.37521324e-03  8.18902859e-01  1.08215271e+00  8.75362293e-02
 -6.84581802e-03 -2.67114609e-01 -1.64752572e-01  6.61661461e-03  1.02914207e-01
  6.02645803e-01  7.17522795e-01 -1.94880795e-01 -1.75872518e+00  1.26268949e-01
 -8.94289057e-02  6.05795914e-03  2.51528263e-01 -1.67937331e-01  1.15095748e-02
 -5.09606473e-02  5.74455526e-02 -3.62525725e-03 -1.66670020e+00 -4.11077793e-01
  8.79701514e-03 -4.38822609e-03  1.87253920e-03 -4.48587725e-03 -6.15583956e-02
 -4.08348216e-02  3.86448618e-03 -2.70669769e-03  1.25866372e-02  1.91196026e-01
  7.82998195e-02 -3.15281535e-03 -2.97755948e-02  1.89979058e-02 -2.38560645e-04
 -3.59328188e-03 -9.26498276e-03 -1.31036295e-02  3.43533605e+00  8.76146637e-01
 -1.67143665e+00  9.96324201e-02  2.89435930e-01 -8.52395159e-03 -2.94096445e-02
 -9.64022326e-01 -1.03923242e-01  8.08973370e-03  9.61375620e-02 -4.53135415e-02
 -1.73890757e-03  8.58974924e-03 -1.41754015e-02  5.30252450e-02  1.02702847e-01
  6.01386128e-01  7.15970861e-01 -1.94575607e-01 -1.75442024e+00 -1.28227510e-01
 -8.61026233e-02  3.20340552e-03 -2.55127042e-01 -1.61298315e-01  5.82582292e-03
  5.23947773e-02  5.61533552e-02 -2.46678963e-03  1.65179492e+00 -4.52615976e-01
  4.52681955e-02 -4.47106364e-03 -3.16366343e-03 -3.50626000e-03 -5.93612429e-02
  4.37951360e-02  4.05536261e-03  7.16993775e-03  1.07223543e-02  1.86719129e-01
 -8.76794862e-02 -1.49655053e-03  3.03712494e-02  1.84120590e-02 -9.12486022e-04
  2.56030035e-03  8.29542716e-03 -1.38944370e-02  3.43525064e+00 -9.17512032e-01
 -1.64828979e+00  7.95855613e-02  2.89016083e-01 -2.43896383e-02 -2.63218511e-02
 -9.57348949e-01  1.52015443e-01  2.86412219e-03 -9.75969944e-02 -4.32586611e-02
  1.75662459e-03 -5.60951044e-03  1.82690199e-02  5.21496347e-02  3.04598534e-01
  5.68875687e-01 -1.01854205e-01  8.87280273e+00  4.53062686e-04  4.01137234e-02
 -2.01893386e-03 -6.21548500e-03 -4.90758167e-01  2.64154895e-02 -1.42239067e-02
 -1.16441187e+00  9.56648994e-02 -3.78040984e-02  6.32316565e-04 -4.22047479e-03
 -1.93776472e-03  1.39223904e-04  7.70006085e-01 -1.54753490e-02  6.85400067e-02
 -2.05640334e-01  4.69348717e-03 -3.92362899e-04  3.33889883e-05  4.85397068e-03
  1.37998488e-03 -5.94453413e-04 -1.12452897e-03 -2.84323605e-02 -7.11491527e+00
  2.91471721e-03  3.15947392e-01  4.93156276e-04 -1.16305840e+00 -1.44662229e-02
 -2.88283767e-01 -2.98747626e+00  7.50860476e-02  5.79183964e-02 -5.71297917e-03
 -3.88076137e-01  4.41564571e-02  4.27572869e-03 -4.37194946e-03 -9.63909655e-02
  6.90170105e-02 -2.06464088e+00 -1.78753185e+00  7.09895717e-04  3.15743029e-03
 -6.99525431e-02 -9.26684434e-03 -3.37042683e-01  5.09242432e-01 -1.87974147e-03
  7.94069002e-04  4.23934634e-02  1.74472547e-02 -8.71473310e-04 -3.53487236e-03
 -1.06658097e-02  5.40962707e-01  1.53952734e+00  3.96471262e-02  1.00330259e-04
  2.80663781e-02  4.11607529e-02 -1.36185856e-03  7.01550203e-02 -2.07658988e+00
 -1.69204709e+00 -6.80362310e-04  1.26969907e-02  7.03585529e-02  3.70493365e-04
 -3.99026990e-01 -4.67881528e-01  6.62182984e-03 -2.48375932e-04 -3.83438653e-02
  2.24359140e-02 -9.79590090e-05  1.73848069e-02  2.01240524e-02  3.84914984e-01
 -1.56705042e+00  4.48839501e-02 -1.00302815e-03 -1.96343905e-02  4.28925630e-02
 -8.68601628e-04  7.24810323e-04  4.18413409e-03  4.85877039e-03 -1.65171699e-03
 -3.01140816e-02 -1.33586194e-03  7.51035511e-03  1.22937302e-01 -2.80693965e-03
  1.55394364e-02  2.54972858e-01  6.29702019e-05 -1.32627750e-03 -2.16613806e-02
  4.17050479e-02 -2.67423588e-01 -4.38394985e+00 -2.24215300e-03 -5.90779617e-02
  1.27854126e-02  3.72951598e-05 -3.58312305e-03  5.65333778e-03  1.77295197e-01
 -2.79321890e-02 -1.34921656e-03  1.03954968e-02 -1.19616302e-02  4.94654663e-03
 -3.11950207e-03 -8.18397269e-03 -5.27793476e-02  4.04501022e-03 -6.38265249e-05
  4.03700650e-02  2.63296537e-02 -6.98494290e-02 -1.05122225e+00 -1.68393734e-01
 -1.63868217e+00  1.37179928e+00 -6.58288298e-02 -1.15132186e-01  9.08005895e-02
 -2.01546288e-02  1.74216244e-02  1.67907142e-02  1.99773601e-01 -1.56036400e-02
 -1.10232999e-03 -7.26602569e-04 -4.18936151e-03 -4.85572715e-03  1.66328148e-03
  3.39256793e-02  8.95436076e-04 -7.52806302e-03 -1.22529477e-01  1.83725617e-03
 -1.55863744e-02 -2.54270902e-01 -3.18582465e-04  1.29671911e-03  2.13010674e-02
 -4.53407394e-02  2.64230587e-01  4.37533028e+00 -2.01615017e-05 -5.98618751e-02
 -1.15958732e-02  1.10648579e-03 -3.33570669e-03  1.05068204e-03  1.79754471e-01
  2.47266656e-02 -2.07181658e-03  9.99959455e-03  1.22869999e-02  4.58317058e-03
  1.11297464e-03  5.43801703e-03 -5.30361829e-02  3.87010984e-03  1.18261978e-03
 -4.13446239e-02  6.00559154e-03  7.04964331e-02  1.05383096e+00  1.05407238e-01
 -1.67614693e+00 -1.33133486e+00  9.56200546e-02 -8.94384626e-02 -9.16113415e-02
 -1.59741411e-02 -9.85210306e-03 -6.42270848e-03  2.00098900e-01 -1.52078108e-02
 -3.10993163e-03  8.03417987e-05  1.58714069e-04 -6.94774581e-05  1.07818681e-02
 -4.89702017e-04 -1.78494268e-05 -6.78680030e-05  3.00539650e-03 -3.60995939e-05
  2.66824297e-03  2.55070720e-02 -1.82867977e-03  2.67114897e-02 -3.14400770e-04
 -1.73638374e-02  1.46662012e-04  1.21434635e-04 -1.49925081e-03 -4.96584779e-03
 -3.15154092e-01  1.44868065e-03  3.09397963e-03 -1.76695754e-02  1.57042621e-04
 -1.22898800e-03  1.49716416e-04  2.77526954e-04  1.17897597e-02 -1.13708077e-03
 -6.94467789e-05 -2.05525421e-03  6.53793928e-03 -5.51524616e-04  2.69595907e-03
 -2.31941738e-01 -1.23046838e+01  1.36417434e-01  1.11011343e-01 -7.59900121e-01
 -7.88556889e-04  7.57623277e-03 -1.66872530e-03 -1.75703687e-03 -7.21967866e-02
  8.19828137e-03  2.99895185e-04  2.38382675e-04 -6.87727249e-03 -2.87006325e-02
 -2.00849187e-02  3.95823909e-04 -3.04494726e-04  2.85078738e-01 -4.89661514e-03
  5.25081171e-03 -5.82527767e-04 -2.86371916e-02  1.18013508e-04 -4.54487068e-04
 -3.84120735e-02 -2.48537853e-03  7.66123913e+00 -9.28636440e-02  8.97648495e-02
 -7.10983778e-04 -4.19032032e-02  4.80528053e-03  9.12119736e-03  3.97626876e-01
 -2.43764889e-04  5.22260518e-03  2.27973883e-02  2.09090370e-02 -4.56835373e-04
  9.80705184e-05 -2.88450838e-01  4.47938520e-03 -1.51980521e-03 -6.04642518e-04
 -3.30410690e-02  8.33990958e-04  1.14227673e-03  3.45967153e-02  2.71898464e-03
 -7.68957870e+00  9.51208998e-02 -8.20261921e-02  4.78552531e-04  5.37946178e-03
 -4.38351425e-03 -9.43846315e-03 -4.04668161e-01  4.11169271e-02  2.31721266e-01
  2.59109388e-01 -1.34560292e-01 -8.10023134e-02  5.40340066e-02  3.88279446e-03
 -5.26587297e-04  1.05514169e-01  9.69734190e-03 -1.25456773e-03 -2.89449312e-02
  5.28645603e-03 -4.36944773e-04  1.57641585e+00 -9.35679324e-01  9.41127577e-02
 -2.17830341e-02  2.71224544e-03 -1.21016277e-03  2.39753823e-02 -2.61447182e-02
  5.34740993e-02 -7.90466599e-03  6.08849736e-03 -1.03787404e-02  8.15872627e-02
 -9.04184879e-04  6.79891373e-04  6.26868331e-03 -3.12514685e-05  2.33274493e-03
  2.97899922e-02 -4.05512151e-03  5.89941972e+00  2.96828024e+00 -7.37507400e-01
  7.98886158e-02 -5.87761707e-01  6.60050901e-02 -4.25468812e-02  5.33559532e-01
 -7.00548150e-01 -1.07273647e-03 -4.56938581e-02 -7.09778169e-04  2.86523619e-03