
    -----------------------------------------------------------------------
          Psi4: An Open-Source Ab Initio Electronic Structure Package
                               Psi4 1.3.2 release

                         Git: Rev {HEAD} ecbda83 


    R. M. Parrish, L. A. Burns, D. G. A. Smith, A. C. Simmonett,
    A. E. DePrince III, E. G. Hohenstein, U. Bozkaya, A. Yu. Sokolov,
    R. Di Remigio, R. M. Richard, J. F. Gonthier, A. M. James,
    H. R. McAlexander, A. Kumar, M. Saitow, X. Wang, B. P. Pritchard,
    P. Verma, H. F. Schaefer III, K. Patkowski, R. A. King, E. F. Valeev,
    F. A. Evangelista, J. M. Turney, T. D. Crawford, and C. D. Sherrill,
    J. Chem. Theory Comput. 13(7) pp 3185--3197 (2017).
    (doi: 10.1021/acs.jctc.7b00174)


                         Additional Contributions by
    P. Kraus, H. Kruse, M. H. Lechner, M. C. Schieber, R. A. Shaw,
    A. Alenaizan, R. Galvelis, Z. L. Glick, S. Lehtola, and J. P. Misiewicz

    -----------------------------------------------------------------------


    Psi4 started on: Thursday, 04 November 2021 04:26PM

    Process ID: 55309
    Host:       node44.bme.utexas.edu
    PSIDATADIR: /home/bdw2292/miniconda3/envs/amoebamdpoltype/share/psi4
    Memory:     500.0 MiB
    Threads:    1
    
  ==> Input File <==

--------------------------------------------------------------------------
molecule { 
0 1
 C   -0.183400   -0.293200   -0.009900
 C   -1.635500   -0.211100    0.044400
 N   -0.687900    1.880600    0.127300
 C   -1.927800    1.226800    0.133700
 C    0.396100    0.951600    0.038900
 C    0.669200   -1.370600   -0.098500
 C    1.766400    1.110000    0.000700
 C    2.035800   -1.227500   -0.137500
 C    2.608100    0.023600   -0.088100
 C   -2.513500   -1.197600    0.020100
 H   -0.526700    2.908100    0.178400
 O   -3.089400    1.683700    0.198700
 H    0.209100   -2.352500   -0.136900
 H    2.233400    2.085400    0.038400
 H    3.702900    0.147300   -0.118800
 H    2.667800   -2.116600   -0.208100
 H   -2.150300   -2.208000   -0.048100
 H   -3.574400   -1.039900    0.065200
}
set {
  geom_maxiter 400
  g_convergence GAU
  dynamic_level 1
}
memory 8.333333333333334GB
set_num_threads(1)
psi4_io.set_default_path("/scratch/bdw2292/Psi4-6_Index_0-farH_in17")
for _ in range(1):
  try:
    set opt_coordinates both
    optimize('mp2/6-31G*')
    break
  except OptimizationConvergenceError:
    break
  else:
    try:
      set opt_coordinates cartesian
      optimize('mp2/6-31G*')
      break
    except OptimizationConvergenceError:
      pass
clean()
--------------------------------------------------------------------------

  Memory set to   7.761 GiB by Python driver.
  Threads set to 1 by Python driver.
gradient() will perform analytic gradient computation.
    SCF Algorithm Type (re)set to DF.

*** tstart() called on node44.bme.utexas.edu
*** at Thu Nov  4 16:26:27 2021

   => Loading Basis Set <=

    Name: 6-31G*
    Role: ORBITAL
    Keyword: BASIS
    atoms 1-2, 4-10 entry C          line   111 file /home/bdw2292/miniconda3/envs/amoebamdpoltype/share/psi4/basis/6-31gs.gbs 
    atoms 3         entry N          line   128 file /home/bdw2292/miniconda3/envs/amoebamdpoltype/share/psi4/basis/6-31gs.gbs 
    atoms 11, 13-18 entry H          line    44 file /home/bdw2292/miniconda3/envs/amoebamdpoltype/share/psi4/basis/6-31gs.gbs 
    atoms 12        entry O          line   145 file /home/bdw2292/miniconda3/envs/amoebamdpoltype/share/psi4/basis/6-31gs.gbs 


         ---------------------------------------------------------
                                   SCF
               by Justin Turney, Rob Parrish, Andy Simmonett
                          and Daniel G. A. Smith
                              RHF Reference
                        1 Threads,   7947 MiB Core
         ---------------------------------------------------------

  ==> Geometry <==

    Molecular point group: c1
    Full point group: C1

    Geometry (in Angstrom), charge = 0, multiplicity = 1:

       Center              X                  Y                   Z               Mass       
    ------------   -----------------  -----------------  -----------------  -----------------
         C            0.105327746747    -0.560774769619    -0.034544010813    12.000000000000
         C           -1.346772253253    -0.478674769619     0.019755989187    12.000000000000
         N           -0.399172253253     1.613025230381     0.102655989187    14.003074004430
         C           -1.639072253253     0.959225230381     0.109055989187    12.000000000000
         C            0.684827746747     0.684025230381     0.014255989187    12.000000000000
         C            0.957927746747    -1.638174769619    -0.123144010813    12.000000000000
         C            2.055127746747     0.842425230381    -0.023944010813    12.000000000000
         C            2.324527746747    -1.495074769619    -0.162144010813    12.000000000000
         C            2.896827746747    -0.243974769619    -0.112744010813    12.000000000000
         C           -2.224772253253    -1.465174769619    -0.004544010813    12.000000000000
         H           -0.237972253253     2.640525230381     0.153755989187     1.007825032230
         O           -2.800672253253     1.416125230381     0.174055989187    15.994914619570
         H            0.497827746747    -2.620074769619    -0.161544010813     1.007825032230
         H            2.522127746747     1.817825230381     0.013755989187     1.007825032230
         H            3.991627746747    -0.120274769619    -0.143444010813     1.007825032230
         H            2.956527746747    -2.384174769619    -0.232744010813     1.007825032230
         H           -1.861572253253    -2.475574769619    -0.072744010813     1.007825032230
         H           -3.285672253253    -1.307474769619     0.040555989187     1.007825032230

  Running in c1 symmetry.

  Rotational constants: A =      0.08625  B =      0.03106  C =      0.02283 [cm^-1]
  Rotational constants: A =   2585.84035  B =    931.03335  C =    684.55788 [MHz]
  Nuclear repulsion =  554.235208864426681

  Charge       = 0
  Multiplicity = 1
  Electrons    = 76
  Nalpha       = 38
  Nbeta        = 38

  ==> Algorithm <==

  SCF Algorithm Type is DF.
  DIIS enabled.
  MOM disabled.
  Fractional occupation disabled.
  Guess Type is SAD.
  Energy threshold   = 1.00e-10
  Density threshold  = 1.00e-10
  Integral threshold = 0.00e+00

  ==> Primary Basis <==

  Basis Set: 6-31G*
    Blend: 6-31G*
    Number of shells: 80
    Number of basis function: 179
    Number of Cartesian functions: 179
    Spherical Harmonics?: false
    Max angular momentum: 2

   => Loading Basis Set <=

    Name: (6-31G* AUX)
    Role: JKFIT
    Keyword: DF_BASIS_SCF
    atoms 1-2, 4-10 entry C          line   121 file /home/bdw2292/miniconda3/envs/amoebamdpoltype/share/psi4/basis/cc-pvdz-jkfit.gbs 
    atoms 3         entry N          line   171 file /home/bdw2292/miniconda3/envs/amoebamdpoltype/share/psi4/basis/cc-pvdz-jkfit.gbs 
    atoms 11, 13-18 entry H          line    51 file /home/bdw2292/miniconda3/envs/amoebamdpoltype/share/psi4/basis/cc-pvdz-jkfit.gbs 
    atoms 12        entry O          line   221 file /home/bdw2292/miniconda3/envs/amoebamdpoltype/share/psi4/basis/cc-pvdz-jkfit.gbs 

  ==> Pre-Iterations <==

   -------------------------------------------------------
    Irrep   Nso     Nmo     Nalpha   Nbeta   Ndocc  Nsocc
   -------------------------------------------------------
     A        179     179       0       0       0       0
   -------------------------------------------------------
    Total     179     179      38      38      38       0
   -------------------------------------------------------

  ==> Integral Setup <==

  DFHelper Memory: AOs need 0.253 GiB; user supplied 5.821 GiB. Using in-core AOs.

  ==> MemDFJK: Density-Fitted J/K Matrices <==

    J tasked:                   Yes
    K tasked:                   Yes
    wK tasked:                   No
    OpenMP threads:               1
    Memory [MiB]:              5960
    Algorithm:                 Core
    Schwarz Cutoff:           1E-12
    Mask sparsity (%):       6.9224
    Fitting Condition:        1E-10

   => Auxiliary Basis Set <=

  Basis Set: (6-31G* AUX)
    Blend: CC-PVDZ-JKFIT
    Number of shells: 327
    Number of basis function: 1066
    Number of Cartesian functions: 1066
    Spherical Harmonics?: false
    Max angular momentum: 3

  Minimum eigenvalue in the overlap matrix is 2.9929935363E-04.
  Using Symmetric Orthogonalization.

  SCF Guess: Superposition of Atomic Densities via on-the-fly atomic UHF.

  ==> Iterations <==

                           Total Energy        Delta E     RMS |[F,P]|

   @DF-RHF iter SAD:  -473.52843517533091   -4.73528e+02   0.00000e+00 
   @DF-RHF iter   1:  -473.97684239847342   -4.48407e-01   3.45026e-03 DIIS
   @DF-RHF iter   2:  -474.12478590844796   -1.47944e-01   2.26342e-03 DIIS
   @DF-RHF iter   3:  -474.18547248615340   -6.06866e-02   4.95608e-04 DIIS
   @DF-RHF iter   4:  -474.18980903605063   -4.33655e-03   1.76920e-04 DIIS
   @DF-RHF iter   5:  -474.19043008516172   -6.21049e-04   3.83897e-05 DIIS
   @DF-RHF iter   6:  -474.19047866543121   -4.85803e-05   1.87657e-05 DIIS
   @DF-RHF iter   7:  -474.19049460742269   -1.59420e-05   7.58841e-06 DIIS
   @DF-RHF iter   8:  -474.19049733946650   -2.73204e-06   2.92726e-06 DIIS
   @DF-RHF iter   9:  -474.19049780443657   -4.64970e-07   1.04936e-06 DIIS
   @DF-RHF iter  10:  -474.19049787851628   -7.40797e-08   4.40408e-07 DIIS
   @DF-RHF iter  11:  -474.19049788995261   -1.14363e-08   1.54016e-07 DIIS
   @DF-RHF iter  12:  -474.19049789171845   -1.76584e-09   6.47192e-08 DIIS
   @DF-RHF iter  13:  -474.19049789204064   -3.22188e-10   2.90325e-08 DIIS
   @DF-RHF iter  14:  -474.19049789209339   -5.27507e-11   1.14990e-08 DIIS
   @DF-RHF iter  15:  -474.19049789210447   -1.10845e-11   4.32652e-09 DIIS
   @DF-RHF iter  16:  -474.19049789210214    2.33058e-12   1.78501e-09 DIIS
   @DF-RHF iter  17:  -474.19049789210231   -1.70530e-13   4.96179e-10 DIIS
   @DF-RHF iter  18:  -474.19049789210248   -1.70530e-13   2.79841e-10 DIIS
   @DF-RHF iter  19:  -474.19049789210533   -2.84217e-12   8.50751e-11 DIIS
  Energy and wave function converged.


  ==> Post-Iterations <==

    Orbital Energies [Eh]
    ---------------------

    Doubly Occupied:                                                      

       1A    -20.534395     2A    -15.616548     3A    -11.367243  
       4A    -11.291966     5A    -11.259137     6A    -11.252719  
       7A    -11.249738     8A    -11.245302     9A    -11.244589  
      10A    -11.239798    11A    -11.235787    12A     -1.364326  
      13A     -1.273151    14A     -1.158245    15A     -1.102176  
      16A     -1.019728    17A     -1.010822    18A     -0.922122  
      19A     -0.841859    20A     -0.815150    21A     -0.765504  
      22A     -0.723225    23A     -0.688233    24A     -0.654492  
      25A     -0.639030    26A     -0.611734    27A     -0.608071  
      28A     -0.606351    29A     -0.598083    30A     -0.556263  
      31A     -0.529374    32A     -0.515523    33A     -0.497444  
      34A     -0.446731    35A     -0.422776    36A     -0.421999  
      37A     -0.334455    38A     -0.305718  

    Virtual:                                                              

      39A      0.070937    40A      0.142410    41A      0.175604  
      42A      0.224345    43A      0.227084    44A      0.254277  
      45A      0.292143    46A      0.299763    47A      0.306329  
      48A      0.316326    49A      0.350646    50A      0.382632  
      51A      0.392362    52A      0.430384    53A      0.449191  
      54A      0.466965    55A      0.478594    56A      0.483480  
      57A      0.540789    58A      0.557525    59A      0.601877  
      60A      0.649048    61A      0.688324    62A      0.690460  
      63A      0.721109    64A      0.755845    65A      0.756402  
      66A      0.772580    67A      0.792137    68A      0.798902  
      69A      0.812548    70A      0.825726    71A      0.834132  
      72A      0.835577    73A      0.836328    74A      0.840399  
      75A      0.856776    76A      0.879753    77A      0.911872  
      78A      0.927671    79A      0.933276    80A      0.986365  
      81A      1.013257    82A      1.038481    83A      1.057736  
      84A      1.067051    85A      1.083180    86A      1.087920  
      87A      1.107082    88A      1.122110    89A      1.145263  
      90A      1.164696    91A      1.186968    92A      1.196693  
      93A      1.204470    94A      1.221180    95A      1.255497  
      96A      1.282000    97A      1.296705    98A      1.338161  
      99A      1.343372   100A      1.380701   101A      1.402709  
     102A      1.432220   103A      1.462728   104A      1.478862  
     105A      1.488616   106A      1.547166   107A      1.559333  
     108A      1.575184   109A      1.614102   110A      1.630809  
     111A      1.669021   112A      1.701011   113A      1.719522  
     114A      1.747163   115A      1.765644   116A      1.777824  
     117A      1.783920   118A      1.803691   119A      1.838552  
     120A      1.919926   121A      1.987680   122A      2.039905  
     123A      2.059792   124A      2.066965   125A      2.112811  
     126A      2.135303   127A      2.135530   128A      2.174051  
     129A      2.193910   130A      2.221383   131A      2.242032  
     132A      2.271612   133A      2.333463   134A      2.343163  
     135A      2.379761   136A      2.391372   137A      2.425484  
     138A      2.450438   139A      2.467947   140A      2.484058  
     141A      2.520428   142A      2.541265   143A      2.578287  
     144A      2.591423   145A      2.604753   146A      2.649346  
     147A      2.686830   148A      2.739074   149A      2.774383  
     150A      2.778011   151A      2.869393   152A      2.869650  
     153A      2.884453   154A      2.960103   155A      3.007340  
     156A      3.023338   157A      3.040823   158A      3.067715  
     159A      3.114092   160A      3.142932   161A      3.228294  
     162A      3.251550   163A      3.284712   164A      3.340703  
     165A      3.484915   166A      3.550924   167A      3.676418  
     168A      3.893550   169A      4.392441   170A      4.500460  
     171A      4.522942   172A      4.534244   173A      4.561613  
     174A      4.648505   175A      4.708034   176A      4.822051  
     177A      4.945531   178A      5.112944   179A      5.255728  

    Final Occupation by Irrep:
              A 
    DOCC [    38 ]

  @DF-RHF Final Energy:  -474.19049789210533

   => Energetics <=

    Nuclear Repulsion Energy =            554.2352088644266814
    One-Electron Energy =               -1742.9118008683742573
    Two-Electron Energy =                 714.4860941118421351
    Total Energy =                       -474.1904978921053271

Computation Completed


Properties will be evaluated at   0.000000,   0.000000,   0.000000 [a0]

Properties computed using the SCF density matrix

  Nuclear Dipole Moment: [e a0]
     X:     4.2840      Y:    -4.1689      Z:    -0.3767

  Electronic Dipole Moment: [e a0]
     X:    -2.8987      Y:     3.5930      Z:     0.2974

  Dipole Moment: [e a0]
     X:     1.3854      Y:    -0.5759      Z:    -0.0793     Total:     1.5024

  Dipole Moment: [D]
     X:     3.5213      Y:    -1.4639      Z:    -0.2015     Total:     3.8187


*** tstop() called on node44.bme.utexas.edu at Thu Nov  4 16:26:40 2021
Module time:
	user time   =      12.42 seconds =       0.21 minutes
	system time =       0.49 seconds =       0.01 minutes
	total time  =         13 seconds =       0.22 minutes
Total time:
	user time   =      12.42 seconds =       0.21 minutes
	system time =       0.49 seconds =       0.01 minutes
	total time  =         13 seconds =       0.22 minutes

*** tstart() called on node44.bme.utexas.edu
*** at Thu Nov  4 16:26:40 2021


  //>>>>>>>>>>>>>>>>>>>>>>>>>>>>>>>>>>>//
  //               DFMP2               //
  //<<<<<<<<<<<<<<<<<<<<<<<<<<<<<<<<<<<//

   => Loading Basis Set <=

    Name: (6-31G* AUX)
    Role: RIFIT
    Keyword: DF_BASIS_MP2
    atoms 1-2, 4-10 entry C          line   159 file /home/bdw2292/miniconda3/envs/amoebamdpoltype/share/psi4/basis/cc-pvdz-ri.gbs 
    atoms 3         entry N          line   197 file /home/bdw2292/miniconda3/envs/amoebamdpoltype/share/psi4/basis/cc-pvdz-ri.gbs 
    atoms 11, 13-18 entry H          line    19 file /home/bdw2292/miniconda3/envs/amoebamdpoltype/share/psi4/basis/cc-pvdz-ri.gbs 
    atoms 12        entry O          line   235 file /home/bdw2292/miniconda3/envs/amoebamdpoltype/share/psi4/basis/cc-pvdz-ri.gbs 

	 --------------------------------------------------------
	                          DF-MP2                         
	      2nd-Order Density-Fitted Moller-Plesset Theory     
	              RMP2 Wavefunction,   1 Threads             
	                                                         
	        Rob Parrish, Justin Turney, Andy Simmonett,      
	           Ed Hohenstein, and C. David Sherrill          
	 --------------------------------------------------------

   => Auxiliary Basis Set <=

  Basis Set: (6-31G* AUX)
    Blend: CC-PVDZ-RI
    Number of shells: 240
    Number of basis function: 714
    Number of Cartesian functions: 831
    Spherical Harmonics?: true
    Max angular momentum: 3

	 --------------------------------------------------------
	                 NBF =   179, NAUX =   714
	 --------------------------------------------------------
	   CLASS    FOCC     OCC    AOCC    AVIR     VIR    FVIR
	   PAIRS       0      38      38     141     141       0
	 --------------------------------------------------------

  DFHelper Memory: AOs need 0.253 GiB; user supplied 5.821 GiB. Using in-core AOs.


         ------------------------------------------------------------
                                     CPHF                           
                                  Rob Parrish                       
         ------------------------------------------------------------

  ==> Geometry <==

    Molecular point group: c1
    Full point group: C1

    Geometry (in Angstrom), charge = 0, multiplicity = 1:

       Center              X                  Y                   Z               Mass       
    ------------   -----------------  -----------------  -----------------  -----------------
         C            0.105327746747    -0.560774769619    -0.034544010813    12.000000000000
         C           -1.346772253253    -0.478674769619     0.019755989187    12.000000000000
         N           -0.399172253253     1.613025230381     0.102655989187    14.003074004430
         C           -1.639072253253     0.959225230381     0.109055989187    12.000000000000
         C            0.684827746747     0.684025230381     0.014255989187    12.000000000000
         C            0.957927746747    -1.638174769619    -0.123144010813    12.000000000000
         C            2.055127746747     0.842425230381    -0.023944010813    12.000000000000
         C            2.324527746747    -1.495074769619    -0.162144010813    12.000000000000
         C            2.896827746747    -0.243974769619    -0.112744010813    12.000000000000
         C           -2.224772253253    -1.465174769619    -0.004544010813    12.000000000000
         H           -0.237972253253     2.640525230381     0.153755989187     1.007825032230
         O           -2.800672253253     1.416125230381     0.174055989187    15.994914619570
         H            0.497827746747    -2.620074769619    -0.161544010813     1.007825032230
         H            2.522127746747     1.817825230381     0.013755989187     1.007825032230
         H            3.991627746747    -0.120274769619    -0.143444010813     1.007825032230
         H            2.956527746747    -2.384174769619    -0.232744010813     1.007825032230
         H           -1.861572253253    -2.475574769619    -0.072744010813     1.007825032230
         H           -3.285672253253    -1.307474769619     0.040555989187     1.007825032230

  Nuclear repulsion =  554.235208864426681
  Reference energy  = -474.190497892105327

  ==> Basis Set <==

  Basis Set: 6-31G*
    Blend: 6-31G*
    Number of shells: 80
    Number of basis function: 179
    Number of Cartesian functions: 179
    Spherical Harmonics?: false
    Max angular momentum: 2

  ==> CGRSolver (by Rob Parrish) <==

   Number of roots    =         1
   Preconditioning    =    JACOBI
   Convergence cutoff =     1E-06
   Maximum iterations =       100

  ==> CPHFRHamiltonian (by Rob Parrish) <== 

  ==> MemDFJK: Density-Fitted J/K Matrices <==

    J tasked:                   Yes
    K tasked:                   Yes
    wK tasked:                   No
    OpenMP threads:               1
    Memory [MiB]:              5960
    Algorithm:                 Core
    Schwarz Cutoff:           1E-12
    Mask sparsity (%):       6.9224
    Fitting Condition:        1E-10

   => Auxiliary Basis Set <=

  Basis Set: (6-31G* AUX)
    Blend: CC-PVDZ-JKFIT
    Number of shells: 327
    Number of basis function: 1066
    Number of Cartesian functions: 1066
    Spherical Harmonics?: false
    Max angular momentum: 3

  ==> CPHF Iterations <==

  => Iterations <=

             Iter  Converged  Remaining    Residual
  CGR           1          0          1   1.438E-01
  CGR           2          0          1   4.456E-02
  CGR           3          0          1   1.882E-02
  CGR           4          0          1   7.590E-03
  CGR           5          0          1   2.691E-03
  CGR           6          0          1   1.378E-03
  CGR           7          0          1   5.873E-04
  CGR           8          0          1   1.970E-04
  CGR           9          0          1   6.933E-05
  CGR          10          0          1   3.460E-05
  CGR          11          0          1   1.058E-05
  CGR          12          0          1   3.951E-06
  CGR          13          0          1   1.693E-06
  CGR          14          1          0   4.081E-07

    CGRSolver converged.

  ==> DFCorrGrad: Density-Fitted Correlated Gradients <==

    OpenMP threads:              1
    Integrals threads:           1
    Memory [GiB]:            5.821
    Schwarz Cutoff:          0E+00
    Fitting Condition:       1E-10

   => Auxiliary Basis Set <=

  Basis Set: (6-31G* AUX)
    Blend: CC-PVDZ-JKFIT
    Number of shells: 327
    Number of basis function: 1066
    Number of Cartesian functions: 1066
    Spherical Harmonics?: false
    Max angular momentum: 3

	-----------------------------------------------------------
	 ==================> DF-MP2 Energies <==================== 
	-----------------------------------------------------------
	 Reference Energy          =    -474.1904978921053271 [Eh]
	 Singles Energy            =      -0.0000000000000000 [Eh]
	 Same-Spin Energy          =      -0.4134246867567544 [Eh]
	 Opposite-Spin Energy      =      -1.1071351498088648 [Eh]
	 Correlation Energy        =      -1.5205598365656192 [Eh]
	 Total Energy              =    -475.7110577286709372 [Eh]
	-----------------------------------------------------------
	 ================> DF-SCS-MP2 Energies <================== 
	-----------------------------------------------------------
	 SCS Same-Spin Scale       =       0.3333333333333333 [-]
	 SCS Opposite-Spin Scale   =       1.2000000000000000 [-]
	 SCS Same-Spin Energy      =      -0.1378082289189181 [Eh]
	 SCS Opposite-Spin Energy  =      -1.3285621797706377 [Eh]
	 SCS Correlation Energy    =      -1.4663704086895559 [Eh]
	 SCS Total Energy          =    -475.6568683007948835 [Eh]
	-----------------------------------------------------------


  -Total Gradient:
     Atom            X                  Y                   Z
    ------   -----------------  -----------------  -----------------
       1       -0.008869674416     0.025654644192     0.001719782085
       2       -0.031283292716    -0.010377708687     0.000499732854
       3       -0.013788953845    -0.019525503846    -0.000601200947
       4        0.037749331731    -0.019759302277    -0.002388306806
       5        0.027503436783    -0.022340974257    -0.002176603745
       6        0.019974177991     0.024585827861     0.000675464675
       7       -0.007226705585    -0.034445037532    -0.001642967288
       8       -0.016338071907     0.023839478352     0.001865657214
       9       -0.012651227550     0.002661572277     0.000578706263
      10        0.007073881911     0.012598025707     0.000452713445
      11        0.011769330424     0.021799680753     0.000798059961
      12       -0.036721962766    -0.003963090682     0.001041232401
      13       -0.003913355428     0.005935778380     0.000460284450
      14        0.003451446306    -0.007451322749    -0.000533417313
      15        0.011454519716    -0.000803780641    -0.000436357523
      16        0.002919345867    -0.002891467018    -0.000254911763
      17        0.001319135708     0.008533006850     0.000423942256
      18        0.007578637778    -0.004049826683    -0.000481810217


*** tstop() called on node44.bme.utexas.edu at Thu Nov  4 16:27:27 2021
Module time:
	user time   =      44.92 seconds =       0.75 minutes
	system time =       1.50 seconds =       0.03 minutes
	total time  =         47 seconds =       0.78 minutes
Total time:
	user time   =      57.34 seconds =       0.96 minutes
	system time =       1.99 seconds =       0.03 minutes
	total time  =         60 seconds =       1.00 minutes

			-----------------------------------------
			 OPTKING 2.0: for geometry optimizations 
			  - R.A. King,  Bethel University        
			-----------------------------------------
	At level 1: Red. Int., RFO, no backsteps, dynamic trust

	Internal coordinates to be generated automatically.
	Detected frag 1 with atoms:  1 2 3 4 5 6 7 8 9 10 11 12 13 14 15 16 17 18
	---Fragment 1 Bond Connectivity---
	 1 : 2 5 6
	 2 : 1 4 10
	 3 : 4 5 11
	 4 : 2 3 12
	 5 : 1 3 7
	 6 : 1 8 13
	 7 : 5 9 14
	 8 : 6 9 16
	 9 : 7 8 15
	 10 : 2 17 18
	 11 : 3
	 12 : 4
	 13 : 6
	 14 : 7
	 15 : 9
	 16 : 8
	 17 : 10
	 18 : 10

	---Fragment 1 Geometry and Gradient---
	 C           0.1990405948       -1.0597107326       -0.0652787197
	 C          -2.5450307120       -0.9045642177        0.0373334089
	 N          -0.7543262355        3.0481759189        0.1939917047
	 C          -3.0973976585        1.8126729780        0.2060859519
	 C           1.2941368845        1.2926203483        0.0269399152
	 C           1.8102210893       -3.0957016602       -0.2327084544
	 C           3.8836285942        1.5919529666       -0.0452476228
	 C           4.3927208124       -2.8252818517       -0.3064077733
	 C           5.4742110740       -0.4610454961       -0.2130553027
	 C          -4.2042102502       -2.7687790405       -0.0085869359
	 H          -0.4497023841        4.9898695128        0.2905567097
	 O          -5.2925035258        2.6760888448        0.3289181501
	 H           0.9407580990       -4.9512237428       -0.3052739376
	 H           4.7661306948        3.4351918294        0.0259950521
	 H           7.5430832361       -0.2272863744       -0.2710698948
	 H           5.5870277237       -4.5054373498       -0.4398224378
	 H          -3.5178617214       -4.6781583177       -0.1374662577
	 H          -6.2090206967       -2.4707692305        0.0766397123
	            -0.0088696744        0.0256546442        0.0017197821
	            -0.0312832927       -0.0103777087        0.0004997329
	            -0.0137889538       -0.0195255038       -0.0006012009
	             0.0377493317       -0.0197593023       -0.0023883068
	             0.0275034368       -0.0223409743       -0.0021766037
	             0.0199741780        0.0245858279        0.0006754647
	            -0.0072267056       -0.0344450375       -0.0016429673
	            -0.0163380719        0.0238394784        0.0018656572
	            -0.0126512275        0.0026615723        0.0005787063
	             0.0070738819        0.0125980257        0.0004527134
	             0.0117693304        0.0217996808        0.0007980600
	            -0.0367219628       -0.0039630907        0.0010412324
	            -0.0039133554        0.0059357784        0.0004602844
	             0.0034514463       -0.0074513227       -0.0005334173
	             0.0114545197       -0.0008037806       -0.0004363575
	             0.0029193459       -0.0028914670       -0.0002549118
	             0.0013191357        0.0085330069        0.0004239423
	             0.0075786378       -0.0040498267       -0.0004818102

	Previous optimization step data not found.  Starting new optimization.

	---Fragment 1 Intrafragment Coordinates---
	 - Coordinate -           - BOHR/RAD -       - ANG/DEG -
	 R(1,2)           =         2.750369	       1.455432
	 R(1,5)           =         2.596382	       1.373946
	 R(1,6)           =         2.601768	       1.376796
	 R(2,4)           =         2.777943	       1.470024
	 R(2,10)          =         2.496053	       1.320855
	 R(3,4)           =         2.648886	       1.401730
	 R(3,5)           =         2.702977	       1.430354
	 R(3,11)          =         1.967815	       1.041323
	 R(4,12)          =         2.362004	       1.249919
	 R(5,7)           =         2.607734	       1.379954
	 R(6,8)           =         2.597665	       1.374625
	 R(6,13)          =         2.050413	       1.085032
	 R(7,9)           =         2.602482	       1.377174
	 R(7,14)          =         2.044851	       1.082088
	 R(8,9)           =         2.601528	       1.376669
	 R(8,16)          =         2.065694	       1.093118
	 R(9,15)          =         2.082844	       1.102194
	 R(10,17)         =         2.033080	       1.075859
	 R(10,18)         =         2.028630	       1.073505
	 B(1,2,4)         =         1.829501	     104.822659
	 B(1,2,10)        =         2.240027	     128.344087
	 B(1,5,3)         =         1.845216	     105.723115
	 B(1,5,7)         =         2.119804	     121.455814
	 B(1,6,8)         =         2.136501	     122.412492
	 B(1,6,13)        =         2.035149	     116.605457
	 B(2,1,5)         =         1.948062	     111.615733
	 B(2,1,6)         =         2.297473	     131.635507
	 B(2,4,3)         =         1.854663	     106.264353
	 B(2,4,12)        =         2.147788	     123.059182
	 B(2,10,17)       =         2.069384	     118.566956
	 B(2,10,18)       =         2.148889	     123.122265
	 B(3,4,12)        =         2.280735	     130.676465
	 B(3,5,7)         =         2.318165	     132.821072
	 B(4,2,10)        =         2.213658	     126.833254
	 B(4,3,5)         =         1.947336	     111.574140
	 B(4,3,11)        =         2.210477	     126.650998
	 B(5,1,6)         =         2.037650	     116.748761
	 B(5,3,11)        =         2.125372	     121.774862
	 B(5,7,9)         =         2.115468	     121.207415
	 B(5,7,14)        =         2.130645	     122.076995
	 B(6,8,9)         =         2.102351	     120.455846
	 B(6,8,16)        =         2.085122	     119.468688
	 B(7,9,8)         =         2.054596	     117.719673
	 B(7,9,15)        =         2.118046	     121.355093
	 B(8,6,13)        =         2.111535	     120.982051
	 B(8,9,15)        =         2.110543	     120.925233
	 B(9,7,14)        =         2.037071	     116.715590
	 B(9,8,16)        =         2.095712	     120.075466
	 B(17,10,18)      =         2.064913	     118.310779
	 D(1,2,4,3)       =        -0.000038	      -0.002186
	 D(1,2,4,12)      =         3.141593	     180.000000
	 D(1,2,10,17)     =        -0.000040	      -0.002302
	 D(1,2,10,18)     =         3.141548	     179.997425
	 D(1,5,3,4)       =        -0.000028	      -0.001586
	 D(1,5,3,11)      =        -3.141534	    -179.996661
	 D(1,5,7,9)       =         0.000048	       0.002746
	 D(1,5,7,14)      =         3.141488	     179.993995
	 D(1,6,8,9)       =         0.000096	       0.005512
	 D(1,6,8,16)      =         3.141531	     179.996443
	 D(2,1,5,3)       =         0.000000	       0.000000
	 D(2,1,5,7)       =         3.141567	     179.998524
	 D(2,1,6,8)       =         3.141557	     179.997964
	 D(2,1,6,13)      =         0.000062	       0.003540
	 D(2,4,3,5)       =         0.000042	       0.002392
	 D(2,4,3,11)      =         3.141543	     179.997173
	 D(3,4,2,10)      =         3.141557	     179.997962
	 D(3,5,1,6)       =        -3.141549	    -179.997484
	 D(3,5,7,9)       =         3.141593	     180.000000
	 D(3,5,7,14)      =        -0.000141	      -0.008060
	 D(4,2,1,5)       =         0.000023	       0.001314
	 D(4,2,1,6)       =         3.141565	     179.998415
	 D(4,2,10,17)     =         3.141549	     179.997515
	 D(4,2,10,18)     =        -0.000048	      -0.002758
	 D(4,3,5,7)       =         3.141593	     180.000000
	 D(5,1,2,10)      =        -3.141572	    -179.998838
	 D(5,1,6,8)       =        -0.000088	      -0.005054
	 D(5,1,6,13)      =         3.141593	     180.000000
	 D(5,3,4,12)      =         3.141593	     180.000000
	 D(5,7,9,8)       =        -0.000042	      -0.002378
	 D(5,7,9,15)      =         3.141569	     179.998625
	 D(6,1,2,10)      =        -0.000030	      -0.001737
	 D(6,1,5,7)       =         0.000017	       0.000950
	 D(6,8,9,7)       =        -0.000028	      -0.001625
	 D(6,8,9,15)      =         3.141547	     179.997377
	 D(7,5,3,11)      =         0.000090	       0.005160
	 D(7,9,8,16)      =        -3.141462	    -179.992501
	 D(8,9,7,14)      =        -3.141489	    -179.994076
	 D(9,8,6,13)      =         3.141593	     180.000000
	 D(10,2,4,12)     =        -0.000000	      -0.000000
	 D(11,3,4,12)     =        -0.000083	      -0.004773
	 D(13,6,8,16)     =        -0.000164	      -0.009371
	 D(14,7,9,15)     =         0.000121	       0.006926
	 D(15,9,8,16)     =         0.000113	       0.006501

	Current energy   :      -475.7110577287

	Generating empirical Hessian (Schlegel '84) for each fragment.
	Taking RFO optimization step.
	Going to follow RFO solution 1.
	Using RFO vector 1.
	Norm of target step-size    0.28532
	Projected energy change by RFO approximation:        -0.0244647312

	Back-transformation to cartesian coordinates...
	Could not converge backtransformation.
	Using first guess instead.

	--- Internal Coordinate Step in ANG or DEG, aJ/ANG or AJ/DEG ---
	 ---------------------------------------------------------------------------
	   Coordinate                Previous        Force       Change         New 
	   ----------                --------       ------       ------       ------
	    1 R(1,2)          =      1.455432     0.025819     0.007370     1.462803
	    2 R(1,5)          =      1.373946     0.246264     0.033082     1.407028
	    3 R(1,6)          =      1.376796     0.149928     0.019112     1.395909
	    4 R(2,4)          =      1.470024     0.186343     0.030623     1.500647
	    5 R(2,10)         =      1.320855     0.192632     0.020656     1.341510
	    6 R(3,4)          =      1.401730    -0.138080    -0.020682     1.381048
	    7 R(3,5)          =      1.430354    -0.106154    -0.016619     1.413735
	    8 R(3,11)         =      1.041323    -0.192550    -0.027724     1.013599
	    9 R(4,12)         =      1.249919    -0.269675    -0.016117     1.233802
	   10 R(5,7)          =      1.379954     0.028825     0.004727     1.384681
	   11 R(6,8)          =      1.374625     0.139085     0.018619     1.393244
	   12 R(6,13)         =      1.085032     0.030718     0.006533     1.091565
	   13 R(7,9)          =      1.377174     0.189722     0.022760     1.399934
	   14 R(7,14)         =      1.082088     0.043218     0.008735     1.090824
	   15 R(8,9)          =      1.376669     0.222765     0.028746     1.405416
	   16 R(8,16)         =      1.093118    -0.033417    -0.004723     1.088395
	   17 R(9,15)         =      1.102194    -0.093094    -0.015991     1.086203
	   18 R(10,17)        =      1.075859     0.062576     0.014333     1.090193
	   19 R(10,18)        =      1.073505     0.066773     0.014524     1.088028
	   20 B(1,2,4)        =    104.822659     0.000507     1.710508   106.533168
	   21 B(1,2,10)       =    128.344087     0.000344     0.738205   129.082291
	   22 B(1,5,3)        =    105.723115     0.001179     3.277849   109.000964
	   23 B(1,5,7)        =    121.455814     0.000013     0.131176   121.586990
	   24 B(1,6,8)        =    122.412492    -0.001188    -3.229639   119.182852
	   25 B(1,6,13)       =    116.605457     0.001067     3.523582   120.129039
	   26 B(2,1,5)        =    111.615733    -0.001831    -4.401484   107.214249
	   27 B(2,1,6)        =    131.635507     0.000638     1.232223   132.867730
	   28 B(2,4,3)        =    106.264353     0.000032    -0.365212   105.899142
	   29 B(2,4,12)       =    123.059182     0.001524     4.441163   127.500345
	   30 B(2,10,17)      =    118.566956     0.000575     2.301639   120.868595
	   31 B(2,10,18)      =    123.122265    -0.000511    -2.045032   121.077233
	   32 B(3,4,12)       =    130.676465    -0.001557    -4.075952   126.600513
	   33 B(3,5,7)        =    132.821072    -0.001191    -3.409025   129.412046
	   34 B(4,2,10)       =    126.833254    -0.000851    -2.448713   124.384541
	   35 B(4,3,5)        =    111.574140     0.000112    -0.221662   111.352477
	   36 B(4,3,11)       =    126.650998    -0.000674    -2.444308   124.206690
	   37 B(5,1,6)        =    116.748761     0.001193     3.169260   119.918021
	   38 B(5,3,11)       =    121.774862     0.000562     2.665971   124.440833
	   39 B(5,7,9)        =    121.207415    -0.001021    -3.163721   118.043693
	   40 B(5,7,14)       =    122.076995     0.000017    -0.386812   121.690182
	   41 B(6,8,9)        =    120.455846    -0.000150    -0.291296   120.164550
	   42 B(6,8,16)       =    119.468688     0.000020    -0.020162   119.448526
	   43 B(7,9,8)        =    117.719673     0.001153     3.384220   121.103893
	   44 B(7,9,15)       =    121.355093    -0.000742    -2.412478   118.942615
	   45 B(8,6,13)       =    120.982051     0.000120    -0.293943   120.688108
	   46 B(8,9,15)       =    120.925233    -0.000411    -0.971742   119.953491
	   47 B(9,7,14)       =    116.715590     0.001004     3.550534   120.266124
	   48 B(9,8,16)       =    120.075466     0.000130     0.311458   120.386924
	   49 B(17,10,18)     =    118.310779    -0.000064    -0.256607   118.054172
	   50 D(1,2,4,3)      =     -0.002186     0.000000     0.000877    -0.001309
	   51 D(1,2,4,12)     =    180.000000    -0.000000    -0.001492   179.998508
	   52 D(1,2,10,17)    =     -0.002302     0.000000     0.001463    -0.000839
	   53 D(1,2,10,18)    =    179.997425     0.000000     0.001445   179.998870
	   54 D(1,5,3,4)      =     -0.001586     0.000000     0.000565    -0.001021
	   55 D(1,5,3,11)     =   -179.996661     0.000000     0.000736  -179.995925
	   56 D(1,5,7,9)      =      0.002746    -0.000000    -0.001513     0.001233
	   57 D(1,5,7,14)     =    179.993995     0.000000     0.001973   179.995968
	   58 D(1,6,8,9)      =      0.005512    -0.000000    -0.002059     0.003452
	   59 D(1,6,8,16)     =    179.996443     0.000000     0.001268   179.997711
	   60 D(2,1,5,3)      =      0.000000     0.000000     0.000000     0.000000
	   61 D(2,1,5,7)      =    179.998524     0.000000     0.000367   179.998891
	   62 D(2,1,6,8)      =    179.997964     0.000000     0.002036   180.000000
	   63 D(2,1,6,13)     =      0.003540     0.000000     0.000022     0.003561
	   64 D(2,4,3,5)      =      0.002392    -0.000000    -0.000958     0.001434
	   65 D(2,4,3,11)     =    179.997173    -0.000000    -0.000821   179.996352
	   66 D(3,4,2,10)     =    179.997962     0.000000     0.000911   179.998873
	   67 D(3,5,1,6)      =   -179.997484    -0.000000    -0.000261  -179.997745
	   68 D(3,5,7,9)      =    180.000000    -0.000000     0.000000   180.000000
	   69 D(3,5,7,14)     =     -0.008060     0.000000     0.002521    -0.005539
	   70 D(4,2,1,5)      =      0.001314    -0.000000    -0.001314     0.000000
	   71 D(4,2,1,6)      =    179.998415    -0.000000    -0.000214   179.998201
	   72 D(4,2,10,17)    =    179.997515     0.000000     0.001420   179.998935
	   73 D(4,2,10,18)    =     -0.002758     0.000000     0.001402    -0.001356
	   74 D(4,3,5,7)      =    180.000000    -0.000000     0.000000   180.000000
	   75 D(5,1,2,10)     =   -179.998838    -0.000000    -0.001162  -180.000000
	   76 D(5,1,6,8)      =     -0.005054     0.000000     0.001689    -0.003365
	   77 D(5,1,6,13)     =    180.000000     0.000000     0.000000   180.000000
	   78 D(5,3,4,12)     =    180.000000     0.000000     0.001614   180.001614
	   79 D(5,7,9,8)      =     -0.002378     0.000000     0.001231    -0.001146
	   80 D(5,7,9,15)     =    179.998625    -0.000000     0.000411   179.999036
	   81 D(6,1,2,10)     =     -0.001737    -0.000000    -0.000256    -0.001993
	   82 D(6,1,5,7)      =      0.000950     0.000000     0.000074     0.001024
	   83 D(6,8,9,7)      =     -0.001625     0.000000     0.000422    -0.001202
	   84 D(6,8,9,15)     =    179.997377     0.000000     0.001236   179.998613
	   85 D(7,5,3,11)     =      0.005160     0.000000     0.000272     0.005433
	   86 D(7,9,8,16)     =   -179.992501    -0.000000    -0.002906  -179.995407
	   87 D(8,9,7,14)     =   -179.994076    -0.000000    -0.001883  -179.995960
	   88 D(9,8,6,13)     =    180.000000    -0.000000     0.000000   180.000000
	   89 D(10,2,4,12)    =      0.000000    -0.000000    -0.001309    -0.001309
	   90 D(11,3,4,12)    =     -0.004773     0.000000     0.001305    -0.003467
	   91 D(13,6,8,16)    =     -0.009371     0.000000     0.002912    -0.006460
	   92 D(14,7,9,15)    =      0.006926    -0.000000    -0.002703     0.004223
	   93 D(15,9,8,16)    =      0.006501    -0.000000    -0.002092     0.004409
	 ---------------------------------------------------------------------------
	Successfully symmetrized geometry.

  ==> Convergence Check <==

  Measures of convergence in internal coordinates in au.
  Criteria marked as inactive (o), active & met (*), and active & unmet ( ).
  --------------------------------------------------------------------------------------------- ~
   Step     Total Energy     Delta E     MAX Force     RMS Force      MAX Disp      RMS Disp    ~
  --------------------------------------------------------------------------------------------- ~
    Convergence Criteria             o    4.50e-04 *    3.00e-04 *    1.80e-03 *    1.20e-03 *  ~
  --------------------------------------------------------------------------------------------- ~
      1    -475.71105773   -4.76e+02 o    3.27e-02      1.04e-02      7.75e-02      2.97e-02    ~
  ---------------------------------------------------------------------------------------------

	Writing optimization data to binary file.
	Structure for next step:
	Cartesian Geometry (in Angstrom)
	    C     0.1323902003  -0.6292129502  -0.0392449247
	    C    -1.3234074680  -0.4981385296   0.0178870162
	    N    -0.3887968086   1.6028587719   0.1017366053
	    C    -1.6166751400   0.9707537820   0.1089404998
	    C     0.6698652463   0.6700234958   0.0139926403
	    C     0.9838108279  -1.7317338475  -0.1291962660
	    C     2.0362581273   0.8916435113  -0.0205983914
	    C     2.3612015845  -1.5252414346  -0.1650485500
	    C     2.8813762944  -0.2207558940  -0.1109269035
	    C    -2.2604446968  -1.4579186865  -0.0029213715
	    H    -0.2647972117   2.6075450051   0.1528420667
	    O    -2.7228396554   1.5130372947   0.1767373188
	    H     0.5705558700  -2.7411938992  -0.1707215990
	    H     2.4547566676   1.8981551935   0.0205064014
	    H     3.9557993797  -0.0637231858  -0.1390932540
	    H     3.0290470909  -2.3817910054  -0.2351125334
	    H    -1.9822641241  -2.5098558575  -0.0704823693
	    H    -3.3188367634  -1.2106975981   0.0470114214
			--------------------------
			 OPTKING Finished Execution 
			--------------------------

    Structure for next step:
    Molecular point group: c1
    Full point group: C1

    Geometry (in Angstrom), charge = 0, multiplicity = 1:

    C            0.119597622617    -0.628129774392    -0.038748466761
    C           -1.336200051354    -0.497055353269     0.018383474350
    N           -0.401589388288     1.603941956440     0.102233063731
    C           -1.629467724475     0.971836964076     0.109436958263
    C            0.657072670806     0.671106676672     0.014489098408
    C            0.971018253581    -1.730650676012    -0.128699808390
    C            2.023465557173     0.892726693035    -0.020101933409
    C            2.348409015635    -1.524158262376    -0.164552092535
    C            2.868583727591    -0.219672716620    -0.110430445817
    C           -2.273237283875    -1.456835513944    -0.002424913446
    H           -0.277589790919     2.608628193608     0.153338525377
    O           -2.735632244216     1.514120478927     0.177233777610
    H            0.557763294099    -2.740110731707    -0.170225141642
    H            2.441964099085     1.899238379211     0.021002859514
    H            3.943006817046    -0.062640007753    -0.138596796429
    H            3.016254524665    -2.380707836503    -0.234616076265
    H           -1.995056710028    -2.508772689119    -0.069985911536
    H           -3.331629354608    -1.209614424592     0.047507879665

gradient() will perform analytic gradient computation.
    SCF Algorithm Type (re)set to DF.

*** tstart() called on node44.bme.utexas.edu
*** at Thu Nov  4 16:27:28 2021

   => Loading Basis Set <=

    Name: 6-31G*
    Role: ORBITAL
    Keyword: BASIS
    atoms 1-2, 4-10 entry C          line   111 file /home/bdw2292/miniconda3/envs/amoebamdpoltype/share/psi4/basis/6-31gs.gbs 
    atoms 3         entry N          line   128 file /home/bdw2292/miniconda3/envs/amoebamdpoltype/share/psi4/basis/6-31gs.gbs 
    atoms 11, 13-18 entry H          line    44 file /home/bdw2292/miniconda3/envs/amoebamdpoltype/share/psi4/basis/6-31gs.gbs 
    atoms 12        entry O          line   145 file /home/bdw2292/miniconda3/envs/amoebamdpoltype/share/psi4/basis/6-31gs.gbs 


         ---------------------------------------------------------
                                   SCF
               by Justin Turney, Rob Parrish, Andy Simmonett
                          and Daniel G. A. Smith
                              RHF Reference
                        1 Threads,   7947 MiB Core
         ---------------------------------------------------------

  ==> Geometry <==

    Molecular point group: c1
    Full point group: C1

    Geometry (in Angstrom), charge = 0, multiplicity = 1:

       Center              X                  Y                   Z               Mass       
    ------------   -----------------  -----------------  -----------------  -----------------
         C            0.119597622617    -0.628129774392    -0.038748466761    12.000000000000
         C           -1.336200051354    -0.497055353269     0.018383474350    12.000000000000
         N           -0.401589388288     1.603941956440     0.102233063731    14.003074004430
         C           -1.629467724475     0.971836964076     0.109436958263    12.000000000000
         C            0.657072670806     0.671106676672     0.014489098408    12.000000000000
         C            0.971018253581    -1.730650676012    -0.128699808390    12.000000000000
         C            2.023465557173     0.892726693035    -0.020101933409    12.000000000000
         C            2.348409015635    -1.524158262376    -0.164552092535    12.000000000000
         C            2.868583727591    -0.219672716620    -0.110430445817    12.000000000000
         C           -2.273237283875    -1.456835513944    -0.002424913446    12.000000000000
         H           -0.277589790919     2.608628193608     0.153338525377     1.007825032230
         O           -2.735632244216     1.514120478927     0.177233777610    15.994914619570
         H            0.557763294099    -2.740110731707    -0.170225141642     1.007825032230
         H            2.441964099085     1.899238379211     0.021002859514     1.007825032230
         H            3.943006817046    -0.062640007753    -0.138596796429     1.007825032230
         H            3.016254524665    -2.380707836503    -0.234616076265     1.007825032230
         H           -1.995056710028    -2.508772689119    -0.069985911536     1.007825032230
         H           -3.331629354608    -1.209614424592     0.047507879665     1.007825032230

  Running in c1 symmetry.

  Rotational constants: A =      0.08260  B =      0.03121  C =      0.02265 [cm^-1]
  Rotational constants: A =   2476.13967  B =    935.70743  C =    679.08738 [MHz]
  Nuclear repulsion =  550.816480366764608

  Charge       = 0
  Multiplicity = 1
  Electrons    = 76
  Nalpha       = 38
  Nbeta        = 38

  ==> Algorithm <==

  SCF Algorithm Type is DF.
  DIIS enabled.
  MOM disabled.
  Fractional occupation disabled.
  Guess Type is READ.
  Energy threshold   = 1.00e-10
  Density threshold  = 1.00e-10
  Integral threshold = 0.00e+00

  ==> Primary Basis <==

  Basis Set: 6-31G*
    Blend: 6-31G*
    Number of shells: 80
    Number of basis function: 179
    Number of Cartesian functions: 179
    Spherical Harmonics?: false
    Max angular momentum: 2

   => Loading Basis Set <=

    Name: (6-31G* AUX)
    Role: JKFIT
    Keyword: DF_BASIS_SCF
    atoms 1-2, 4-10 entry C          line   121 file /home/bdw2292/miniconda3/envs/amoebamdpoltype/share/psi4/basis/cc-pvdz-jkfit.gbs 
    atoms 3         entry N          line   171 file /home/bdw2292/miniconda3/envs/amoebamdpoltype/share/psi4/basis/cc-pvdz-jkfit.gbs 
    atoms 11, 13-18 entry H          line    51 file /home/bdw2292/miniconda3/envs/amoebamdpoltype/share/psi4/basis/cc-pvdz-jkfit.gbs 
    atoms 12        entry O          line   221 file /home/bdw2292/miniconda3/envs/amoebamdpoltype/share/psi4/basis/cc-pvdz-jkfit.gbs 

   => Loading Basis Set <=

    Name: 6-31G*
    Role: ORBITAL
    Keyword: BASIS
    atoms 1-2, 4-10 entry C          line   111 file /home/bdw2292/miniconda3/envs/amoebamdpoltype/share/psi4/basis/6-31gs.gbs 
    atoms 3         entry N          line   128 file /home/bdw2292/miniconda3/envs/amoebamdpoltype/share/psi4/basis/6-31gs.gbs 
    atoms 11, 13-18 entry H          line    44 file /home/bdw2292/miniconda3/envs/amoebamdpoltype/share/psi4/basis/6-31gs.gbs 
    atoms 12        entry O          line   145 file /home/bdw2292/miniconda3/envs/amoebamdpoltype/share/psi4/basis/6-31gs.gbs 

  Reading orbitals from file 180, no projection.

  ==> Pre-Iterations <==

   -------------------------------------------------------
    Irrep   Nso     Nmo     Nalpha   Nbeta   Ndocc  Nsocc
   -------------------------------------------------------
     A        179     179       0       0       0       0
   -------------------------------------------------------
    Total     179     179      38      38      38       0
   -------------------------------------------------------

  ==> Integral Setup <==

  DFHelper Memory: AOs need 0.252 GiB; user supplied 5.821 GiB. Using in-core AOs.

  ==> MemDFJK: Density-Fitted J/K Matrices <==

    J tasked:                   Yes
    K tasked:                   Yes
    wK tasked:                   No
    OpenMP threads:               1
    Memory [MiB]:              5960
    Algorithm:                 Core
    Schwarz Cutoff:           1E-12
    Mask sparsity (%):       7.0160
    Fitting Condition:        1E-10

   => Auxiliary Basis Set <=

  Basis Set: (6-31G* AUX)
    Blend: CC-PVDZ-JKFIT
    Number of shells: 327
    Number of basis function: 1066
    Number of Cartesian functions: 1066
    Spherical Harmonics?: false
    Max angular momentum: 3

  Minimum eigenvalue in the overlap matrix is 3.6162664227E-04.
  Using Symmetric Orthogonalization.

  SCF Guess: Orbitals guess was supplied from a previous computation.

  ==> Iterations <==

                           Total Energy        Delta E     RMS |[F,P]|

   @DF-RHF iter   0:  -474.13310354980530   -4.74133e+02   1.61441e-03 
   @DF-RHF iter   1:  -474.20374864782059   -7.06451e-02   2.33727e-04 DIIS
   @DF-RHF iter   2:  -474.20480056410912   -1.05192e-03   1.03467e-04 DIIS
   @DF-RHF iter   3:  -474.20498014265019   -1.79579e-04   3.51582e-05 DIIS
   @DF-RHF iter   4:  -474.20501069066478   -3.05480e-05   9.97583e-06 DIIS
   @DF-RHF iter   5:  -474.20501334314889   -2.65248e-06   3.53120e-06 DIIS
   @DF-RHF iter   6:  -474.20501386900941   -5.25861e-07   1.48916e-06 DIIS
   @DF-RHF iter   7:  -474.20501399634929   -1.27340e-07   7.19351e-07 DIIS
   @DF-RHF iter   8:  -474.20501403953745   -4.31882e-08   3.67446e-07 DIIS
   @DF-RHF iter   9:  -474.20501404989329   -1.03558e-08   1.67539e-07 DIIS
   @DF-RHF iter  10:  -474.20501405166181   -1.76851e-09   4.93718e-08 DIIS
   @DF-RHF iter  11:  -474.20501405178987   -1.28068e-10   1.79573e-08 DIIS
   @DF-RHF iter  12:  -474.20501405180033   -1.04592e-11   5.83442e-09 DIIS
   @DF-RHF iter  13:  -474.20501405180323   -2.89901e-12   2.43430e-09 DIIS
   @DF-RHF iter  14:  -474.20501405180448   -1.25056e-12   1.34774e-09 DIIS
   @DF-RHF iter  15:  -474.20501405180119    3.29692e-12   5.49788e-10 DIIS
   @DF-RHF iter  16:  -474.20501405180903   -7.84439e-12   1.91137e-10 DIIS
   @DF-RHF iter  17:  -474.20501405180903    0.00000e+00   6.25411e-11 DIIS
  Energy and wave function converged.


  ==> Post-Iterations <==

    Orbital Energies [Eh]
    ---------------------

    Doubly Occupied:                                                      

       1A    -20.533514     2A    -15.611344     3A    -11.364384  
       4A    -11.295888     5A    -11.262634     6A    -11.258859  
       7A    -11.255575     8A    -11.254107     9A    -11.248758  
      10A    -11.248465    11A    -11.241917    12A     -1.375296  
      13A     -1.276720    14A     -1.148851    15A     -1.093782  
      16A     -1.019361    17A     -1.000495    18A     -0.916843  
      19A     -0.839259    20A     -0.813405    21A     -0.763902  
      22A     -0.724960    23A     -0.689345    24A     -0.647298  
      25A     -0.638580    26A     -0.613685    27A     -0.608005  
      28A     -0.604024    29A     -0.599995    30A     -0.552649  
      31A     -0.530188    32A     -0.511978    33A     -0.501949  
      34A     -0.445919    35A     -0.423153    36A     -0.418133  
      37A     -0.333244    38A     -0.298924  

    Virtual:                                                              

      39A      0.070752    40A      0.138023    41A      0.173634  
      42A      0.228296    43A      0.229667    44A      0.253998  
      45A      0.288903    46A      0.297684    47A      0.305251  
      48A      0.314968    49A      0.339156    50A      0.379365  
      51A      0.399225    52A      0.421155    53A      0.436537  
      54A      0.458260    55A      0.470520    56A      0.485985  
      57A      0.530283    58A      0.551398    59A      0.582977  
      60A      0.654318    61A      0.677199    62A      0.696579  
      63A      0.723619    64A      0.753561    65A      0.758486  
      66A      0.775854    67A      0.786266    68A      0.799268  
      69A      0.799610    70A      0.810179    71A      0.821888  
      72A      0.836387    73A      0.836711    74A      0.839938  
      75A      0.843183    76A      0.882301    77A      0.909057  
      78A      0.929325    79A      0.929615    80A      0.982837  
      81A      1.015547    82A      1.037793    83A      1.051953  
      84A      1.066742    85A      1.073845    86A      1.096842  
      87A      1.105498    88A      1.119064    89A      1.144578  
      90A      1.155777    91A      1.176731    92A      1.179042  
      93A      1.199397    94A      1.210278    95A      1.246225  
      96A      1.262289    97A      1.288107    98A      1.328769  
      99A      1.338927   100A      1.367104   101A      1.389142  
     102A      1.420952   103A      1.453494   104A      1.480664  
     105A      1.494500   106A      1.543373   107A      1.556355  
     108A      1.576480   109A      1.614659   110A      1.639693  
     111A      1.662841   112A      1.671447   113A      1.723331  
     114A      1.750066   115A      1.750642   116A      1.765726  
     117A      1.766558   118A      1.822284   119A      1.858029  
     120A      1.924485   121A      1.975962   122A      2.041702  
     123A      2.047821   124A      2.065518   125A      2.092367  
     126A      2.117563   127A      2.129851   128A      2.159470  
     129A      2.176655   130A      2.222135   131A      2.230412  
     132A      2.260555   133A      2.319076   134A      2.342548  
     135A      2.359999   136A      2.370741   137A      2.425019  
     138A      2.429476   139A      2.460247   140A      2.466360  
     141A      2.510412   142A      2.523211   143A      2.563649  
     144A      2.568669   145A      2.582198   146A      2.652252  
     147A      2.666534   148A      2.724302   149A      2.755484  
     150A      2.798152   151A      2.848469   152A      2.866203  
     153A      2.890152   154A      2.945837   155A      2.976888  
     156A      3.004554   157A      3.027087   158A      3.039626  
     159A      3.076875   160A      3.118931   161A      3.211531  
     162A      3.227054   163A      3.299861   164A      3.317360  
     165A      3.478382   166A      3.548107   167A      3.644620  
     168A      3.831065   169A      4.409900   170A      4.489411  
     171A      4.501763   172A      4.525916   173A      4.553330  
     174A      4.644348   175A      4.700942   176A      4.815425  
     177A      4.922320   178A      5.114838   179A      5.243468  

    Final Occupation by Irrep:
              A 
    DOCC [    38 ]

  @DF-RHF Final Energy:  -474.20501405180903

   => Energetics <=

    Nuclear Repulsion Energy =            550.8164803667646083
    One-Electron Energy =               -1736.1122193750697988
    Two-Electron Energy =                 711.0907249564961603
    Total Energy =                       -474.2050140518090302

Computation Completed


Properties will be evaluated at   0.000000,   0.000000,   0.000000 [a0]

Properties computed using the SCF density matrix

  Nuclear Dipole Moment: [e a0]
     X:     4.0704      Y:    -4.1166      Z:    -0.3665

  Electronic Dipole Moment: [e a0]
     X:    -2.7436      Y:     3.5055      Z:     0.2873

  Dipole Moment: [e a0]
     X:     1.3268      Y:    -0.6111      Z:    -0.0792     Total:     1.4629

  Dipole Moment: [D]
     X:     3.3725      Y:    -1.5532      Z:    -0.2013     Total:     3.7184


*** tstop() called on node44.bme.utexas.edu at Thu Nov  4 16:27:40 2021
Module time:
	user time   =      10.92 seconds =       0.18 minutes
	system time =       0.36 seconds =       0.01 minutes
	total time  =         12 seconds =       0.20 minutes
Total time:
	user time   =      68.39 seconds =       1.14 minutes
	system time =       2.45 seconds =       0.04 minutes
	total time  =         73 seconds =       1.22 minutes

*** tstart() called on node44.bme.utexas.edu
*** at Thu Nov  4 16:27:40 2021


  //>>>>>>>>>>>>>>>>>>>>>>>>>>>>>>>>>>>//
  //               DFMP2               //
  //<<<<<<<<<<<<<<<<<<<<<<<<<<<<<<<<<<<//

   => Loading Basis Set <=

    Name: (6-31G* AUX)
    Role: RIFIT
    Keyword: DF_BASIS_MP2
    atoms 1-2, 4-10 entry C          line   159 file /home/bdw2292/miniconda3/envs/amoebamdpoltype/share/psi4/basis/cc-pvdz-ri.gbs 
    atoms 3         entry N          line   197 file /home/bdw2292/miniconda3/envs/amoebamdpoltype/share/psi4/basis/cc-pvdz-ri.gbs 
    atoms 11, 13-18 entry H          line    19 file /home/bdw2292/miniconda3/envs/amoebamdpoltype/share/psi4/basis/cc-pvdz-ri.gbs 
    atoms 12        entry O          line   235 file /home/bdw2292/miniconda3/envs/amoebamdpoltype/share/psi4/basis/cc-pvdz-ri.gbs 

	 --------------------------------------------------------
	                          DF-MP2                         
	      2nd-Order Density-Fitted Moller-Plesset Theory     
	              RMP2 Wavefunction,   1 Threads             
	                                                         
	        Rob Parrish, Justin Turney, Andy Simmonett,      
	           Ed Hohenstein, and C. David Sherrill          
	 --------------------------------------------------------

   => Auxiliary Basis Set <=

  Basis Set: (6-31G* AUX)
    Blend: CC-PVDZ-RI
    Number of shells: 240
    Number of basis function: 714
    Number of Cartesian functions: 831
    Spherical Harmonics?: true
    Max angular momentum: 3

	 --------------------------------------------------------
	                 NBF =   179, NAUX =   714
	 --------------------------------------------------------
	   CLASS    FOCC     OCC    AOCC    AVIR     VIR    FVIR
	   PAIRS       0      38      38     141     141       0
	 --------------------------------------------------------

  DFHelper Memory: AOs need 0.252 GiB; user supplied 5.821 GiB. Using in-core AOs.


         ------------------------------------------------------------
                                     CPHF                           
                                  Rob Parrish                       
         ------------------------------------------------------------

  ==> Geometry <==

    Molecular point group: c1
    Full point group: C1

    Geometry (in Angstrom), charge = 0, multiplicity = 1:

       Center              X                  Y                   Z               Mass       
    ------------   -----------------  -----------------  -----------------  -----------------
         C            0.119597622617    -0.628129774392    -0.038748466761    12.000000000000
         C           -1.336200051354    -0.497055353269     0.018383474350    12.000000000000
         N           -0.401589388288     1.603941956440     0.102233063731    14.003074004430
         C           -1.629467724475     0.971836964076     0.109436958263    12.000000000000
         C            0.657072670806     0.671106676672     0.014489098408    12.000000000000
         C            0.971018253581    -1.730650676012    -0.128699808390    12.000000000000
         C            2.023465557173     0.892726693035    -0.020101933409    12.000000000000
         C            2.348409015635    -1.524158262376    -0.164552092535    12.000000000000
         C            2.868583727591    -0.219672716620    -0.110430445817    12.000000000000
         C           -2.273237283875    -1.456835513944    -0.002424913446    12.000000000000
         H           -0.277589790919     2.608628193608     0.153338525377     1.007825032230
         O           -2.735632244216     1.514120478927     0.177233777610    15.994914619570
         H            0.557763294099    -2.740110731707    -0.170225141642     1.007825032230
         H            2.441964099085     1.899238379211     0.021002859514     1.007825032230
         H            3.943006817046    -0.062640007753    -0.138596796429     1.007825032230
         H            3.016254524665    -2.380707836503    -0.234616076265     1.007825032230
         H           -1.995056710028    -2.508772689119    -0.069985911536     1.007825032230
         H           -3.331629354608    -1.209614424592     0.047507879665     1.007825032230

  Nuclear repulsion =  550.816480366764608
  Reference energy  = -474.205014051809030

  ==> Basis Set <==

  Basis Set: 6-31G*
    Blend: 6-31G*
    Number of shells: 80
    Number of basis function: 179
    Number of Cartesian functions: 179
    Spherical Harmonics?: false
    Max angular momentum: 2

  ==> CGRSolver (by Rob Parrish) <==

   Number of roots    =         1
   Preconditioning    =    JACOBI
   Convergence cutoff =     1E-06
   Maximum iterations =       100

  ==> CPHFRHamiltonian (by Rob Parrish) <== 

  ==> MemDFJK: Density-Fitted J/K Matrices <==

    J tasked:                   Yes
    K tasked:                   Yes
    wK tasked:                   No
    OpenMP threads:               1
    Memory [MiB]:              5960
    Algorithm:                 Core
    Schwarz Cutoff:           1E-12
    Mask sparsity (%):       7.0160
    Fitting Condition:        1E-10

   => Auxiliary Basis Set <=

  Basis Set: (6-31G* AUX)
    Blend: CC-PVDZ-JKFIT
    Number of shells: 327
    Number of basis function: 1066
    Number of Cartesian functions: 1066
    Spherical Harmonics?: false
    Max angular momentum: 3

  ==> CPHF Iterations <==

  => Iterations <=

             Iter  Converged  Remaining    Residual
  CGR           1          0          1   1.410E-01
  CGR           2          0          1   4.386E-02
  CGR           3          0          1   1.912E-02
  CGR           4          0          1   8.542E-03
  CGR           5          0          1   3.400E-03
  CGR           6          0          1   1.694E-03
  CGR           7          0          1   6.694E-04
  CGR           8          0          1   2.175E-04
  CGR           9          0          1   7.657E-05
  CGR          10          0          1   3.681E-05
  CGR          11          0          1   1.084E-05
  CGR          12          0          1   4.087E-06
  CGR          13          0          1   1.721E-06
  CGR          14          1          0   5.898E-07

    CGRSolver converged.

  ==> DFCorrGrad: Density-Fitted Correlated Gradients <==

    OpenMP threads:              1
    Integrals threads:           1
    Memory [GiB]:            5.821
    Schwarz Cutoff:          0E+00
    Fitting Condition:       1E-10

   => Auxiliary Basis Set <=

  Basis Set: (6-31G* AUX)
    Blend: CC-PVDZ-JKFIT
    Number of shells: 327
    Number of basis function: 1066
    Number of Cartesian functions: 1066
    Spherical Harmonics?: false
    Max angular momentum: 3

	-----------------------------------------------------------
	 ==================> DF-MP2 Energies <==================== 
	-----------------------------------------------------------
	 Reference Energy          =    -474.2050140518090302 [Eh]
	 Singles Energy            =      -0.0000000000000000 [Eh]
	 Same-Spin Energy          =      -0.4124769076939183 [Eh]
	 Opposite-Spin Energy      =      -1.1074295772632627 [Eh]
	 Correlation Energy        =      -1.5199064849571811 [Eh]
	 Total Energy              =    -475.7249205367662057 [Eh]
	-----------------------------------------------------------
	 ================> DF-SCS-MP2 Energies <================== 
	-----------------------------------------------------------
	 SCS Same-Spin Scale       =       0.3333333333333333 [-]
	 SCS Opposite-Spin Scale   =       1.2000000000000000 [-]
	 SCS Same-Spin Energy      =      -0.1374923025646394 [Eh]
	 SCS Opposite-Spin Energy  =      -1.3289154927159152 [Eh]
	 SCS Correlation Energy    =      -1.4664077952805548 [Eh]
	 SCS Total Energy          =    -475.6714218470895617 [Eh]
	-----------------------------------------------------------


  -Total Gradient:
     Atom            X                  Y                   Z
    ------   -----------------  -----------------  -----------------
       1       -0.002468971575     0.000797164437     0.000127964477
       2       -0.005799594104     0.003092776714     0.000368581976
       3       -0.013435786968     0.008945881996     0.000954835971
       4        0.019614112752    -0.006398354740    -0.001024756457
       5        0.008541849082    -0.002817104581    -0.000449866103
       6        0.006485497018     0.000010315083    -0.000217974316
       7       -0.005958966901    -0.003461614365     0.000019495935
       8       -0.003350271412    -0.004807982284    -0.000156141429
       9        0.003849781094     0.004148138403     0.000096022962
      10        0.001440559542     0.000964144276     0.000003828693
      11        0.003185623556     0.000722716944    -0.000069594434
      12       -0.011222799977     0.003934338036     0.000601264526
      13       -0.001404315156    -0.001939606360    -0.000059875166
      14        0.001367512741     0.001928695960     0.000056555369
      15       -0.000466114853     0.000494620550     0.000043506643
      16       -0.000158419984    -0.002003483253    -0.000102423612
      17        0.001873626600    -0.002747223457    -0.000216283629
      18       -0.002093321458    -0.000863423349     0.000024858593


*** tstop() called on node44.bme.utexas.edu at Thu Nov  4 16:28:26 2021
Module time:
	user time   =      45.01 seconds =       0.75 minutes
	system time =       1.47 seconds =       0.02 minutes
	total time  =         46 seconds =       0.77 minutes
Total time:
	user time   =     113.40 seconds =       1.89 minutes
	system time =       3.92 seconds =       0.07 minutes
	total time  =        119 seconds =       1.98 minutes

			-----------------------------------------
			 OPTKING 2.0: for geometry optimizations 
			  - R.A. King,  Bethel University        
			-----------------------------------------
	At level 1: Red. Int., RFO, no backsteps, dynamic trust

	Previous internal coordinate definitions found.
	---Fragment 1 Geometry and Gradient---
	 C           0.2260067520       -1.1869932448       -0.0732239900
	 C          -2.5250521459       -0.9392984869        0.0347397318
	 N          -0.7588939588        3.0310110188        0.1931924914
	 C          -3.0792477295        1.8365057007        0.2068058791
	 C           1.2416873923        1.2682078199        0.0273804278
	 C           1.8349585621       -3.2704557965       -0.2432073903
	 C           3.8237957274        1.6870089547       -0.0379871487
	 C           4.4378498701       -2.8802416877       -0.3109583883
	 C           5.4208376131       -0.4151212716       -0.2086832985
	 C          -4.2957958847       -2.7530201312       -0.0045824223
	 H          -0.5245686801        4.9295928491        0.2897678174
	 O          -5.1695957215        2.8612730261        0.3349232999
	 H           1.0540198687       -5.1780588364       -0.3216788974
	 H           4.6146433555        3.5890403837        0.0396896523
	 H           7.4512029950       -0.1183724592       -0.2619099871
	 H           5.6998949763       -4.4988857957       -0.4433601288
	 H          -3.7701107867       -4.7408932935       -0.1322542054
	 H          -6.2958670317       -2.2858399799        0.0897768814
	            -0.0024689716        0.0007971644        0.0001279645
	            -0.0057995941        0.0030927767        0.0003685820
	            -0.0134357870        0.0089458820        0.0009548360
	             0.0196141128       -0.0063983547       -0.0010247565
	             0.0085418491       -0.0028171046       -0.0004498661
	             0.0064854970        0.0000103151       -0.0002179743
	            -0.0059589669       -0.0034616144        0.0000194959
	            -0.0033502714       -0.0048079823       -0.0001561414
	             0.0038497811        0.0041481384        0.0000960230
	             0.0014405595        0.0009641443        0.0000038287
	             0.0031856236        0.0007227169       -0.0000695944
	            -0.0112228000        0.0039343380        0.0006012645
	            -0.0014043152       -0.0019396064       -0.0000598752
	             0.0013675127        0.0019286960        0.0000565554
	            -0.0004661149        0.0004946205        0.0000435066
	            -0.0001584200       -0.0020034833       -0.0001024236
	             0.0018736266       -0.0027472235       -0.0002162836
	            -0.0020933215       -0.0008634233        0.0000248586

	---Fragment 1 Intrafragment Coordinates---
	 - Coordinate -           - BOHR/RAD -       - ANG/DEG -
	 R(1,2)           =         2.764296	       1.462803
	 R(1,5)           =         2.658898	       1.407028
	 R(1,6)           =         2.637885	       1.395909
	 R(2,4)           =         2.835812	       1.500647
	 R(2,10)          =         2.535087	       1.341510
	 R(3,4)           =         2.609803	       1.381048
	 R(3,5)           =         2.671572	       1.413735
	 R(3,11)          =         1.915424	       1.013599
	 R(4,12)          =         2.331548	       1.233802
	 R(5,7)           =         2.616668	       1.384681
	 R(6,8)           =         2.632850	       1.393244
	 R(6,13)          =         2.062758	       1.091565
	 R(7,9)           =         2.645493	       1.399934
	 R(7,14)          =         2.061358	       1.090824
	 R(8,9)           =         2.655851	       1.405416
	 R(8,16)          =         2.056769	       1.088395
	 R(9,15)          =         2.052627	       1.086203
	 R(10,17)         =         2.060166	       1.090193
	 R(10,18)         =         2.056075	       1.088028
	 B(1,2,4)         =         1.859355	     106.533168
	 B(1,2,10)        =         2.252911	     129.082291
	 B(1,5,3)         =         1.902426	     109.000964
	 B(1,5,7)         =         2.122093	     121.586990
	 B(1,6,8)         =         2.080133	     119.182852
	 B(1,6,13)        =         2.096647	     120.129039
	 B(2,1,5)         =         1.871242	     107.214249
	 B(2,1,6)         =         2.318979	     132.867730
	 B(2,4,3)         =         1.848289	     105.899142
	 B(2,4,12)        =         2.225301	     127.500345
	 B(2,10,17)       =         2.109555	     120.868595
	 B(2,10,18)       =         2.113196	     121.077233
	 B(3,4,12)        =         2.209596	     126.600513
	 B(3,5,7)         =         2.258666	     129.412046
	 B(4,2,10)        =         2.170920	     124.384541
	 B(4,3,5)         =         1.943467	     111.352477
	 B(4,3,11)        =         2.167816	     124.206690
	 B(5,1,6)         =         2.092964	     119.918021
	 B(5,3,11)        =         2.171902	     124.440833
	 B(5,7,9)         =         2.060251	     118.043693
	 B(5,7,14)        =         2.123894	     121.690182
	 B(6,8,9)         =         2.097267	     120.164550
	 B(6,8,16)        =         2.084770	     119.448526
	 B(7,9,8)         =         2.113662	     121.103893
	 B(7,9,15)        =         2.075940	     118.942615
	 B(8,6,13)        =         2.106405	     120.688108
	 B(8,9,15)        =         2.093583	     119.953491
	 B(9,7,14)        =         2.099040	     120.266124
	 B(9,8,16)        =         2.101148	     120.386924
	 B(17,10,18)      =         2.060434	     118.054172
	 D(1,2,4,3)       =        -0.000023	      -0.001309
	 D(1,2,4,12)      =         3.141567	     179.998508
	 D(1,2,10,17)     =        -0.000015	      -0.000839
	 D(1,2,10,18)     =         3.141573	     179.998870
	 D(1,5,3,4)       =        -0.000018	      -0.001021
	 D(1,5,3,11)      =        -3.141522	    -179.995925
	 D(1,5,7,9)       =         0.000022	       0.001233
	 D(1,5,7,14)      =         3.141522	     179.995968
	 D(1,6,8,9)       =         0.000060	       0.003452
	 D(1,6,8,16)      =         3.141553	     179.997711
	 D(2,1,5,3)       =         0.000000	       0.000000
	 D(2,1,5,7)       =         3.141573	     179.998891
	 D(2,1,6,8)       =         3.141593	     180.000000
	 D(2,1,6,13)      =         0.000062	       0.003561
	 D(2,4,3,5)       =         0.000025	       0.001434
	 D(2,4,3,11)      =         3.141529	     179.996352
	 D(3,4,2,10)      =         3.141573	     179.998873
	 D(3,5,1,6)       =        -3.141553	    -179.997745
	 D(3,5,7,9)       =         3.141593	     180.000000
	 D(3,5,7,14)      =        -0.000097	      -0.005539
	 D(4,2,1,5)       =         0.000000	       0.000000
	 D(4,2,1,6)       =         3.141561	     179.998201
	 D(4,2,10,17)     =         3.141574	     179.998935
	 D(4,2,10,18)     =        -0.000024	      -0.001356
	 D(4,3,5,7)       =         3.141593	     180.000000
	 D(5,1,2,10)      =         3.141593	     180.000000
	 D(5,1,6,8)       =        -0.000059	      -0.003365
	 D(5,1,6,13)      =         3.141593	     180.000000
	 D(5,3,4,12)      =        -3.141564	    -179.998386
	 D(5,7,9,8)       =        -0.000020	      -0.001146
	 D(5,7,9,15)      =         3.141576	     179.999036
	 D(6,1,2,10)      =        -0.000035	      -0.001993
	 D(6,1,5,7)       =         0.000018	       0.001024
	 D(6,8,9,7)       =        -0.000021	      -0.001202
	 D(6,8,9,15)      =         3.141568	     179.998613
	 D(7,5,3,11)      =         0.000095	       0.005433
	 D(7,9,8,16)      =        -3.141512	    -179.995407
	 D(8,9,7,14)      =        -3.141522	    -179.995960
	 D(9,8,6,13)      =         3.141593	     180.000000
	 D(10,2,4,12)     =        -0.000023	      -0.001309
	 D(11,3,4,12)     =        -0.000061	      -0.003467
	 D(13,6,8,16)     =        -0.000113	      -0.006460
	 D(14,7,9,15)     =         0.000074	       0.004223
	 D(15,9,8,16)     =         0.000077	       0.004409

	Current energy   :      -475.7249205368

	Energy change for the previous step:
		Projected    :        -0.0244647312
		Actual       :        -0.0138628081

	Performing BFGS update.
	Previous computed or guess Hessian on step 1.
	Steps to be used in Hessian update: 1
	Taking RFO optimization step.
	Going to follow RFO solution 1.
	Using RFO vector 1.
	Norm of target step-size    0.07703
	Projected energy change by RFO approximation:        -0.0014692543

	Back-transformation to cartesian coordinates...
	Could not converge backtransformation.
	Using first guess instead.

	--- Internal Coordinate Step in ANG or DEG, aJ/ANG or AJ/DEG ---
	 ---------------------------------------------------------------------------
	   Coordinate                Previous        Force       Change         New 
	   ----------                --------       ------       ------       ------
	    1 R(1,2)          =      1.462803    -0.000179     0.000726     1.463529
	    2 R(1,5)          =      1.407028    -0.007167     0.000471     1.407499
	    3 R(1,6)          =      1.395909    -0.033974    -0.003818     1.392091
	    4 R(2,4)          =      1.500647     0.000081     0.001764     1.502411
	    5 R(2,10)         =      1.341510    -0.008598     0.000400     1.341910
	    6 R(3,4)          =      1.381048     0.014365     0.001257     1.382305
	    7 R(3,5)          =      1.413735    -0.074757    -0.013508     1.400227
	    8 R(3,11)         =      1.013599    -0.009084    -0.002424     1.011175
	    9 R(4,12)         =      1.233802    -0.097415    -0.008264     1.225539
	   10 R(5,7)          =      1.384681     0.021218     0.003445     1.388126
	   11 R(6,8)          =      1.393244     0.021912     0.003772     1.397016
	   12 R(6,13)         =      1.091565    -0.019177    -0.003219     1.088346
	   13 R(7,9)          =      1.399934    -0.017721    -0.001473     1.398462
	   14 R(7,14)         =      1.090824    -0.019002    -0.003080     1.087744
	   15 R(8,9)          =      1.405416    -0.045497    -0.005031     1.400384
	   16 R(8,16)         =      1.088395    -0.012244    -0.002355     1.086040
	   17 R(9,15)         =      1.086203     0.003219     0.000051     1.086254
	   18 R(10,17)        =      1.090193    -0.025889    -0.003030     1.087163
	   19 R(10,18)        =      1.088028    -0.015170    -0.001009     1.087019
	   20 B(1,2,4)        =    106.533168     0.000024     0.274952   106.808120
	   21 B(1,2,10)       =    129.082291     0.000441     1.353301   130.435592
	   22 B(1,5,3)        =    109.000964     0.000007    -0.022269   108.978695
	   23 B(1,5,7)        =    121.586990     0.000108     0.468466   122.055455
	   24 B(1,6,8)        =    119.182852    -0.000078    -0.427917   118.754936
	   25 B(1,6,13)       =    120.129039     0.000084     0.501270   120.630309
	   26 B(2,1,5)        =    107.214249    -0.000036    -0.275318   106.938931
	   27 B(2,1,6)        =    132.867730     0.000090     0.311477   133.179206
	   28 B(2,4,3)        =    105.899142    -0.000277    -0.848721   105.050420
	   29 B(2,4,12)       =    127.500345     0.000264     0.990577   128.490922
	   30 B(2,10,17)      =    120.868595     0.000185     0.995359   121.863954
	   31 B(2,10,18)      =    121.077233    -0.000195    -1.035321   120.041913
[...]
	 O          -5.1544143914        2.8504573735        0.3338255774
	 H           1.1068695538       -5.1845056614       -0.3238223559
	 H           4.5786802429        3.6170437783        0.0425536644
	 H           7.4526504066       -0.0904814493       -0.2603950777
	 H           5.7487985962       -4.4343398121       -0.4415333305
	 H          -3.9509518105       -4.7256454906       -0.1251155368
	 H          -6.3087464077       -2.1209834370        0.0992876238
	             0.0001214696       -0.0002171233       -0.0000166843
	            -0.0002933798        0.0002213897        0.0000265104
	             0.0002559118       -0.0000476139       -0.0000077071
	            -0.0001175717       -0.0000146467       -0.0000087224
	            -0.0000542539       -0.0000521706       -0.0000014314
	            -0.0001582859        0.0000769887        0.0000100570
	             0.0000789506        0.0001292286        0.0000044064
	             0.0000499501        0.0001680550        0.0000074362
	            -0.0000905319       -0.0001338958       -0.0000044694
	             0.0001327381       -0.0000581284       -0.0000071245
	            -0.0000405558        0.0000188022        0.0000026826
	             0.0000225212       -0.0000342515        0.0000017456
	             0.0000508256       -0.0000007035       -0.0000017599
	            -0.0000390051       -0.0000321943       -0.0000003055
	             0.0000415544       -0.0000383384       -0.0000034862
	             0.0000307606        0.0000043466       -0.0000007700
	            -0.0000093311        0.0000510942        0.0000024305
	             0.0000182333       -0.0000408384       -0.0000028079

	---Fragment 1 Intrafragment Coordinates---
	 - Coordinate -           - BOHR/RAD -       - ANG/DEG -
	 R(1,2)           =         2.761481	       1.461313
	 R(1,5)           =         2.661006	       1.408144
	 R(1,6)           =         2.628500	       1.390942
	 R(2,4)           =         2.844315	       1.505147
	 R(2,10)          =         2.534035	       1.340954
	 R(3,4)           =         2.620351	       1.386630
	 R(3,5)           =         2.641528	       1.397836
	 R(3,11)          =         1.913953	       1.012820
	 R(4,12)          =         2.314111	       1.224575
	 R(5,7)           =         2.623553	       1.388324
	 R(6,8)           =         2.639573	       1.396802
	 R(6,13)          =         2.055999	       1.087988
	 R(7,9)           =         2.642071	       1.398124
	 R(7,14)          =         2.054272	       1.087074
	 R(8,9)           =         2.642172	       1.398177
	 R(8,16)          =         2.053057	       1.086431
	 R(9,15)          =         2.054224	       1.087049
	 R(10,17)         =         2.051276	       1.085488
	 R(10,18)         =         2.051934	       1.085836
	 B(1,2,4)         =         1.863278	     106.757991
	 B(1,2,10)        =         2.293531	     131.409649
	 B(1,5,3)         =         1.903636	     109.070328
	 B(1,5,7)         =         2.127405	     121.891352
	 B(1,6,8)         =         2.073184	     118.784722
	 B(1,6,13)        =         2.106402	     120.687931
	 B(2,1,5)         =         1.868564	     107.060821
	 B(2,1,6)         =         2.321614	     133.018712
	 B(2,4,3)         =         1.832033	     104.967787
	 B(2,4,12)        =         2.244695	     128.611556
	 B(2,10,17)       =         2.136460	     122.410133
	 B(2,10,18)       =         2.084064	     119.408071
	 B(3,4,12)        =         2.206457	     126.420656
	 B(3,5,7)         =         2.252144	     129.038320
	 B(4,2,10)        =         2.126376	     121.832361
	 B(4,3,5)         =         1.957266	     112.143072
	 B(4,3,11)        =         2.131233	     122.110661
	 B(5,1,6)         =         2.093007	     119.920466
	 B(5,3,11)        =         2.194686	     125.746267
	 B(5,7,9)         =         2.050852	     117.505140
	 B(5,7,14)        =         2.120776	     121.511535
	 B(6,8,9)         =         2.104840	     120.598468
	 B(6,8,16)        =         2.090557	     119.780104
	 B(7,9,8)         =         2.117082	     121.299852
	 B(7,9,15)        =         2.079817	     119.164714
	 B(8,6,13)        =         2.103599	     120.527348
	 B(8,9,15)        =         2.086287	     119.535435
	 B(9,7,14)        =         2.111557	     120.983325
	 B(9,8,16)        =         2.087788	     119.621427
	 B(17,10,18)      =         2.062661	     118.181796
	 D(1,2,4,3)       =        -0.000053	      -0.003060
	 D(1,2,4,12)      =        -3.141555	    -179.997870
	 D(1,2,10,17)     =         0.000000	       0.000000
	 D(1,2,10,18)     =         3.141593	     180.000000
	 D(1,5,3,4)       =        -0.000036	      -0.002040
	 D(1,5,3,11)      =         3.141593	     180.000000
	 D(1,5,7,9)       =        -0.000000	      -0.000000
	 D(1,5,7,14)      =         3.141593	     180.000000
	 D(1,6,8,9)       =         0.000000	       0.000000
	 D(1,6,8,16)      =         3.141593	     180.000000
	 D(2,1,5,3)       =        -0.000000	      -0.000000
	 D(2,1,5,7)       =         3.141593	     180.000000
	 D(2,1,6,8)       =         3.141593	     180.000000
	 D(2,1,6,13)      =         0.000022	       0.001242
	 D(2,4,3,5)       =         0.000055	       0.003148
	 D(2,4,3,11)      =         3.141593	     180.000000
	 D(3,4,2,10)      =         3.141551	     179.997615
	 D(3,5,1,6)       =        -3.141575	    -179.998974
	 D(3,5,7,9)       =         3.141593	     180.000000
	 D(3,5,7,14)      =        -0.000000	      -0.000000
	 D(4,2,1,5)       =         0.000034	       0.001935
	 D(4,2,1,6)       =         3.141593	     180.000000
	 D(4,2,10,17)     =         3.141593	     180.000000
	 D(4,2,10,18)     =        -0.000000	      -0.000000
	 D(4,3,5,7)       =         3.141563	     179.998300
	 D(5,1,2,10)      =        -3.141572	    -179.998831
	 D(5,1,6,8)       =        -0.000016	      -0.000907
	 D(5,1,6,13)      =         3.141593	     180.000000
	 D(5,3,4,12)      =         3.141560	     179.998108
	 D(5,7,9,8)       =         0.000000	       0.000000
	 D(5,7,9,15)      =         3.141593	     180.000000
	 D(6,1,2,10)      =        -0.000000	      -0.000000
	 D(6,1,5,7)       =         0.000000	       0.000000
	 D(6,8,9,7)       =        -0.000000	      -0.000000
	 D(6,8,9,15)      =         3.141593	     180.000000
	 D(7,5,3,11)      =         0.000018	       0.001003
	 D(7,9,8,16)      =         3.141593	     180.000000
	 D(8,9,7,14)      =         3.141593	     180.000000
	 D(9,8,6,13)      =         3.141593	     180.000000
	 D(10,2,4,12)     =         0.000049	       0.002805
	 D(11,3,4,12)     =        -0.000078	      -0.004482
	 D(13,6,8,16)     =        -0.000000	      -0.000000
	 D(14,7,9,15)     =        -0.000000	      -0.000000
	 D(15,9,8,16)     =         0.000000	       0.000000

	Current energy   :      -475.7258718027

	Energy change for the previous step:
		Projected    :        -0.0000111183
		Actual       :        -0.0000068711

	Performing BFGS update.
	Previous computed or guess Hessian on step 1.
	Steps to be used in Hessian update: 4 3
	Taking RFO optimization step.
	Going to follow RFO solution 1.
	Using RFO vector 1.
	Norm of target step-size    0.00279
	Projected energy change by RFO approximation:        -0.0000011671

	Back-transformation to cartesian coordinates...
	Could not converge backtransformation.
	Using first guess instead.

	--- Internal Coordinate Step in ANG or DEG, aJ/ANG or AJ/DEG ---
	 ---------------------------------------------------------------------------
	   Coordinate                Previous        Force       Change         New 
	   ----------                --------       ------       ------       ------
	    1 R(1,2)          =      1.461313    -0.000878    -0.000248     1.461064
	    2 R(1,5)          =      1.408144    -0.000074    -0.000009     1.408134
	    3 R(1,6)          =      1.390942     0.000913     0.000130     1.391072
	    4 R(2,4)          =      1.505147     0.000496     0.000157     1.505304
	    5 R(2,10)         =      1.340954     0.000572     0.000061     1.341015
	    6 R(3,4)          =      1.386630    -0.001107    -0.000107     1.386523
	    7 R(3,5)          =      1.397836     0.000555     0.000086     1.397922
	    8 R(3,11)         =      1.012820    -0.000124    -0.000027     1.012793
	    9 R(4,12)         =      1.224575     0.000292     0.000019     1.224594
	   10 R(5,7)          =      1.388324    -0.000279    -0.000047     1.388278
	   11 R(6,8)          =      1.396802    -0.000438    -0.000065     1.396737
	   12 R(6,13)         =      1.087988     0.000146     0.000035     1.088023
	   13 R(7,9)          =      1.398124    -0.000033    -0.000023     1.398100
	   14 R(7,14)         =      1.087074     0.000365     0.000083     1.087157
	   15 R(8,9)          =      1.398177     0.001263     0.000185     1.398362
	   16 R(8,16)         =      1.086431    -0.000132    -0.000024     1.086407
	   17 R(9,15)         =      1.087049    -0.000294    -0.000060     1.086989
	   18 R(10,17)        =      1.085488     0.000428     0.000075     1.085564
	   19 R(10,18)        =      1.085836     0.000242     0.000045     1.085882
	   20 B(1,2,4)        =    106.757991    -0.000002    -0.010638   106.747353
	   21 B(1,2,10)       =    131.409649     0.000016     0.087399   131.497047
	   22 B(1,5,3)        =    109.070328    -0.000000     0.000294   109.070622
	   23 B(1,5,7)        =    121.891352    -0.000005    -0.024606   121.866746
	   24 B(1,6,8)        =    118.784722     0.000001     0.008538   118.793260
	   25 B(1,6,13)       =    120.687931    -0.000004    -0.027625   120.660306
	   26 B(2,1,5)        =    107.060821     0.000001     0.011533   107.072355
	   27 B(2,1,6)        =    133.018712    -0.000005    -0.022721   132.995992
	   28 B(2,4,3)        =    104.967787     0.000003     0.011438   104.979226
	   29 B(2,4,12)       =    128.611556     0.000000     0.001562   128.613118
	   30 B(2,10,17)      =    122.410133     0.000002     0.021343   122.431476
	   31 B(2,10,18)      =    119.408071    -0.000004    -0.033851   119.374220
	   32 B(3,4,12)       =    126.420656    -0.000003    -0.013003   126.407653
	   33 B(3,5,7)        =    129.038320     0.000005     0.024312   129.062631
	   34 B(4,2,10)       =    121.832361    -0.000015    -0.076761   121.755599
	   35 B(4,3,5)        =    112.143072    -0.000003    -0.012629   112.130443
	   36 B(4,3,11)       =    122.110661     0.000004     0.015616   122.126276
	   37 B(5,1,6)        =    119.920466     0.000003     0.011187   119.931654
	   38 B(5,3,11)       =    125.746267    -0.000002    -0.002987   125.743280
	   39 B(5,7,9)        =    117.505140     0.000005     0.023127   117.528267
	   40 B(5,7,14)       =    121.511535    -0.000000    -0.002424   121.509111
	   41 B(6,8,9)        =    120.598468    -0.000005    -0.016922   120.581546
	   42 B(6,8,16)       =    119.780104     0.000000    -0.004878   119.775226
	   43 B(7,9,8)        =    121.299852     0.000000    -0.001325   121.298527
	   44 B(7,9,15)       =    119.164714    -0.000004    -0.018654   119.146060
	   45 B(8,6,13)       =    120.527348     0.000003     0.019087   120.546434
	   46 B(8,9,15)       =    119.535435     0.000003     0.019979   119.555414
	   47 B(9,7,14)       =    120.983325    -0.000004    -0.020703   120.962622
	   48 B(9,8,16)       =    119.621427     0.000004     0.021800   119.643227
	   49 B(17,10,18)     =    118.181796     0.000002     0.012508   118.194304
	   50 D(1,2,4,3)      =     -0.003060     0.000000     0.011148     0.008088
	   51 D(1,2,4,12)     =   -179.997870    -0.000000    -0.013436  -180.011306
	   52 D(1,2,10,17)    =      0.000000     0.000000     0.000000     0.000000
	   53 D(1,2,10,18)    =    180.000000    -0.000000     0.000000   180.000000
	   54 D(1,5,3,4)      =     -0.002040     0.000000     0.008029     0.005989
	   55 D(1,5,3,11)     =    180.000000     0.000000     0.006502   180.006502
	   56 D(1,5,7,9)      =      0.000000    -0.000000    -0.000911    -0.000911
	   57 D(1,5,7,14)     =    180.000000    -0.000000     0.000000   180.000000
	   58 D(1,6,8,9)      =      0.000000    -0.000000     0.000000     0.000000
	   59 D(1,6,8,16)     =    180.000000    -0.000000     0.000000   180.000000
	   60 D(2,1,5,3)      =      0.000000     0.000000     0.000000     0.000000
	   61 D(2,1,5,7)      =    180.000000     0.000000     0.001014   180.001014
	   62 D(2,1,6,8)      =    180.000000    -0.000000     0.000000   180.000000
	   63 D(2,1,6,13)     =      0.001242    -0.000000    -0.001242     0.000000
	   64 D(2,4,3,5)      =      0.003148    -0.000000    -0.011826    -0.008677
	   65 D(2,4,3,11)     =    180.000000    -0.000000    -0.009170   179.990830
	   66 D(3,4,2,10)     =    179.997615     0.000000     0.009347   180.006962
	   67 D(3,5,1,6)      =   -179.998974    -0.000000    -0.002017  -180.000991
	   68 D(3,5,7,9)      =    180.000000     0.000000     0.000000   180.000000
	   69 D(3,5,7,14)     =      0.000000     0.000000     0.001027     0.001027
	   70 D(4,2,1,5)      =      0.001935    -0.000000    -0.006702    -0.004767
	   71 D(4,2,1,6)      =    180.000000    -0.000000    -0.004028   179.995972
	   72 D(4,2,10,17)    =    180.000000     0.000000     0.002029   180.002029
	   73 D(4,2,10,18)    =      0.000000     0.000000     0.000000     0.000000
	   74 D(4,3,5,7)      =    179.998300     0.000000     0.006178   180.004478
	   75 D(5,1,2,10)     =   -179.998831    -0.000000    -0.004659  -180.003489
	   76 D(5,1,6,8)      =     -0.000907     0.000000     0.000907     0.000000
	   77 D(5,1,6,13)     =    180.000000     0.000000     0.000000   180.000000
	   78 D(5,3,4,12)     =    179.998108     0.000000     0.012043   180.010151
	   79 D(5,7,9,8)      =      0.000000     0.000000     0.000924     0.000924
	   80 D(5,7,9,15)     =    180.000000     0.000000     0.000000   180.000000
	   81 D(6,1,2,10)     =      0.000000    -0.000000    -0.002750    -0.002750
	   82 D(6,1,5,7)      =      0.000000    -0.000000     0.000000     0.000000
	   83 D(6,8,9,7)      =      0.000000    -0.000000     0.000000     0.000000
	   84 D(6,8,9,15)     =    180.000000     0.000000     0.000000   180.000000
	   85 D(7,5,3,11)     =      0.001003     0.000000     0.003989     0.004992
	   86 D(7,9,8,16)     =    180.000000    -0.000000     0.000000   180.000000
	   87 D(8,9,7,14)     =    180.000000     0.000000     0.000000   180.000000
	   88 D(9,8,6,13)     =    180.000000    -0.000000     0.000000   180.000000
	   89 D(10,2,4,12)    =      0.002805    -0.000000    -0.015237    -0.012431
	   90 D(11,3,4,12)    =     -0.004482     0.000000     0.014141     0.009659
	   91 D(13,6,8,16)    =      0.000000    -0.000000     0.000000     0.000000
	   92 D(14,7,9,15)    =      0.000000     0.000000     0.000000     0.000000
	   93 D(15,9,8,16)    =      0.000000     0.000000     0.000000     0.000000
	 ---------------------------------------------------------------------------
	Successfully symmetrized geometry.

  ==> Convergence Check <==

  Measures of convergence in internal coordinates in au.
  Criteria marked as inactive (o), active & met (*), and active & unmet ( ).
  ---------------------------------------------------------------------------------------------
   Step     Total Energy     Delta E     MAX Force     RMS Force      MAX Disp      RMS Disp   
  ---------------------------------------------------------------------------------------------
    Convergence Criteria             o    4.50e-04 *    3.00e-04 *    1.80e-03 *    1.20e-03 *
  ---------------------------------------------------------------------------------------------
      5    -475.72587180   -6.87e-06 o    2.15e-04 *    4.90e-05 *    1.53e-03 *    2.89e-04 *  ~
  ---------------------------------------------------------------------------------------------


  **** Optimization is complete! (in 5 steps) ****

  ==> Optimization Summary <==

  Measures of convergence in internal coordinates in au.
  --------------------------------------------------------------------------------------------------------------- ~
   Step         Total Energy             Delta E       MAX Force       RMS Force        MAX Disp        RMS Disp  ~
  --------------------------------------------------------------------------------------------------------------- ~
      1    -475.711057728671   -475.711057728671      0.03273267      0.01037529      0.07751292      0.02972213  ~
      2    -475.724920536766     -0.013862808095      0.01182406      0.00230114      0.02849332      0.00796458  ~
      3    -475.725779502288     -0.000858965522      0.00253677      0.00061688      0.01252372      0.00293858  ~
      4    -475.725864931660     -0.000085429371      0.00077607      0.00016109      0.00447677      0.00081175  ~
      5    -475.725871802746     -0.000006871087      0.00021538      0.00004900      0.00152540      0.00028874  ~
  --------------------------------------------------------------------------------------------------------------- ~

	Writing optimization data to binary file.
	Final energy is   -475.7258718027464
	Final (previous) structure:
	Cartesian Geometry (in Angstrom)
	    C     0.1250471483  -0.6379331080  -0.0394707117
	    C    -1.3298129059  -0.5130515011   0.0172851388
	    N    -0.3979232322   1.5823923910   0.1009057904
	    C    -1.6358903072   0.9577986581   0.1088461141
	    C     0.6540314446   0.6659655691   0.0143079684
	    C     0.9809113829  -1.7307243017  -0.1290522280
	    C     2.0212449666   0.9047895875  -0.0193770560
	    C     2.3588760472  -1.5047581961  -0.1638192911
	    C     2.8683404499  -0.2038356255  -0.1095399641
	    C    -2.3007696073  -1.4377602587  -0.0004108356
	    H    -0.3026149678   2.5893632570   0.1531640105
	    O    -2.7275986195   1.5083970761   0.1766528872
	    H     0.5857301408  -2.7435222338  -0.1713594104
	    H     2.4229332300   1.9140571300   0.0225184293
	    H     3.9437727388  -0.0478807208  -0.1377951404
	    H     3.0421331939  -2.3465515637  -0.2336493753
	    H    -2.0907536504  -2.5007038895  -0.0662082905
	    H    -3.3384448137  -1.1223760947   0.0525407476
	Saving final (previous) structure.
			--------------------------
			 OPTKING Finished Execution 
			--------------------------

    Final optimized geometry and variables:
    Molecular point group: c1
    Full point group: C1

    Geometry (in Angstrom), charge = 0, multiplicity = 1:

    C            0.125047148827    -0.637933110471    -0.039470711872
    C           -1.329812911153    -0.513051503145     0.017285138853
    N           -0.397923233746     1.582392397245     0.100905790813
    C           -1.635890313637     0.957798661829     0.108846114498
    C            0.654031447209     0.665965571689     0.014307968474
    C            0.980911386798    -1.730724308456    -0.129052228519
    C            2.021244974543     0.904789591100    -0.019377056085
    C            2.358876056511    -1.504758202064    -0.163819291759
    C            2.868340461146    -0.203835626348    -0.109539964518
    C           -2.300769616317    -1.437760264303    -0.000410835611
    H           -0.302614969015     2.589363267219     0.153164011054
    O           -2.727598630252     1.508397082021     0.176652887903
    H            0.585730143074    -2.743522244597    -0.171359411037
    H            2.422933239493     1.914057137479     0.022518429435
    H            3.943772754261    -0.047880720961    -0.137795140907
    H            3.042133205862    -2.346551572927    -0.233649376240
    H           -2.090753658572    -2.500703899333    -0.066208290756
    H           -3.338444826870    -1.122376099072     0.052540747822

	Removing binary optimization data file.
	Cleaning optimization helper files.

    Psi4 stopped on: Thursday, 04 November 2021 04:31PM
    Psi4 wall time for execution: 0:04:44.61

*** Psi4 exiting successfully. Buy a developer a beer!
