
    -----------------------------------------------------------------------
          Psi4: An Open-Source Ab Initio Electronic Structure Package
                               Psi4 1.3.2 release

                         Git: Rev {HEAD} ecbda83 


    R. M. Parrish, L. A. Burns, D. G. A. Smith, A. C. Simmonett,
    A. E. DePrince III, E. G. Hohenstein, U. Bozkaya, A. Yu. Sokolov,
    R. Di Remigio, R. M. Richard, J. F. Gonthier, A. M. James,
    H. R. McAlexander, A. Kumar, M. Saitow, X. Wang, B. P. Pritchard,
    P. Verma, H. F. Schaefer III, K. Patkowski, R. A. King, E. F. Valeev,
    F. A. Evangelista, J. M. Turney, T. D. Crawford, and C. D. Sherrill,
    J. Chem. Theory Comput. 13(7) pp 3185--3197 (2017).
    (doi: 10.1021/acs.jctc.7b00174)


                         Additional Contributions by
    P. Kraus, H. Kruse, M. H. Lechner, M. C. Schieber, R. A. Shaw,
    A. Alenaizan, R. Galvelis, Z. L. Glick, S. Lehtola, and J. P. Misiewicz

    -----------------------------------------------------------------------


    Psi4 started on: Thursday, 04 November 2021 02:09PM

    Process ID: 33953
    Host:       node44.bme.utexas.edu
    PSIDATADIR: /home/bdw2292/miniconda3/envs/amoebamdpoltype/share/psi4
    Memory:     500.0 MiB
    Threads:    1
    
  ==> Input File <==

--------------------------------------------------------------------------
molecule { 
0 1
C          5.45820        0.01300        1.45740
C          4.10300        0.54460        1.49040
N          4.75960       -0.28370        3.57990
C          3.68450        0.32970        2.90270
C          5.83990       -0.47630        2.69740
C          6.39930       -0.06410        0.46320
C          7.09490       -1.01690        2.92680
C          7.66120       -0.60180        0.67160
C          8.00280       -1.07540        1.90020
C          3.32760        1.04510        0.55700
H          4.76100       -0.55540        4.58480
O          2.58000        0.63820        3.39650
H          6.14600        0.33410       -0.49780
H          7.34390       -1.39140        3.92730
H          9.00180       -1.50930        2.09970
H          8.34000       -0.64240       -0.10470
H          3.68720        1.16550       -0.40280
H          2.35840        1.31820        0.78290
}
memory 100GB
set_num_threads(12)
psi4_io.set_default_path("/scratch/bdw2292/Psi4-farH_in17")
set maxiter 500
set freeze_core True
set PROPERTIES_ORIGIN ["COM"]
set cubeprop_tasks ['esp']
E, wfn = properties('hf/MINIX',properties=['dipole'],return_wfn=True)
cubeprop(wfn)
fchk(wfn, "farH_in17-esp_frag.fchk")
oeprop(wfn,"WIBERG_LOWDIN_INDICES","MULLIKEN_CHARGES")
clean()
--------------------------------------------------------------------------

  Memory set to  93.132 GiB by Python driver.
  Threads set to 12 by Python driver.

*** tstart() called on node44.bme.utexas.edu
*** at Thu Nov  4 14:09:41 2021

   => Loading Basis Set <=

    Name: MINIX
    Role: ORBITAL
    Keyword: BASIS
    atoms 1-2, 4-10 entry C          line    74 file /home/bdw2292/miniconda3/envs/amoebamdpoltype/share/psi4/basis/minix.gbs 
    atoms 3         entry N          line    88 file /home/bdw2292/miniconda3/envs/amoebamdpoltype/share/psi4/basis/minix.gbs 
    atoms 11, 13-18 entry H          line    24 file /home/bdw2292/miniconda3/envs/amoebamdpoltype/share/psi4/basis/minix.gbs 
    atoms 12        entry O          line   102 file /home/bdw2292/miniconda3/envs/amoebamdpoltype/share/psi4/basis/minix.gbs 


         ---------------------------------------------------------
                                   SCF
               by Justin Turney, Rob Parrish, Andy Simmonett
                          and Daniel G. A. Smith
                              RHF Reference
                       12 Threads,  95367 MiB Core
         ---------------------------------------------------------

  ==> Geometry <==

    Molecular point group: c1
    Full point group: C1

    Geometry (in Angstrom), charge = 0, multiplicity = 1:

       Center              X                  Y                   Z               Mass       
    ------------   -----------------  -----------------  -----------------  -----------------
         C            0.158495179577     0.086632785892    -0.581357633259    12.000000000000
         C           -1.196704820423     0.618232785892    -0.548357633259    12.000000000000
         N           -0.540104820423    -0.210067214108     1.541142366741    14.003074004430
         C           -1.615204820423     0.403332785892     0.863942366741    12.000000000000
         C            0.540195179577    -0.402667214108     0.658642366741    12.000000000000
         C            1.099595179577     0.009532785892    -1.575557633259    12.000000000000
         C            1.795195179577    -0.943267214108     0.888042366741    12.000000000000
         C            2.361495179577    -0.528167214108    -1.367157633259    12.000000000000
         C            2.703095179577    -1.001767214108    -0.138557633259    12.000000000000
         C           -1.972104820423     1.118732785892    -1.481757633259    12.000000000000
         H           -0.538704820423    -0.481767214108     2.546042366741     1.007825032230
         O           -2.719704820423     0.711832785892     1.357742366741    15.994914619570
         H            0.846295179577     0.407732785892    -2.536557633259     1.007825032230
         H            2.044195179577    -1.317767214108     1.888542366741     1.007825032230
         H            3.702095179577    -1.435667214108     0.060942366741     1.007825032230
         H            3.040295179577    -0.568767214108    -2.143457633259     1.007825032230
         H           -1.612504820423     1.239132785892    -2.441557633259     1.007825032230
         H           -2.941304820423     1.391832785892    -1.255857633259     1.007825032230

  Running in c1 symmetry.

  Rotational constants: A =      0.08536  B =      0.03125  C =      0.02288 [cm^-1]
  Rotational constants: A =   2559.01893  B =    936.74299  C =    685.81291 [MHz]
  Nuclear repulsion =  554.818602719747105

  Charge       = 0
  Multiplicity = 1
  Electrons    = 76
  Nalpha       = 38
  Nbeta        = 38

  ==> Algorithm <==

  SCF Algorithm Type is DF.
  DIIS enabled.
  MOM disabled.
  Fractional occupation disabled.
  Guess Type is SAD.
  Energy threshold   = 1.00e-06
  Density threshold  = 1.00e-06
  Integral threshold = 0.00e+00

  ==> Primary Basis <==

  Basis Set: MINIX
    Blend: MINIX
    Number of shells: 40
    Number of basis function: 62
    Number of Cartesian functions: 62
    Spherical Harmonics?: true
    Max angular momentum: 1

   => Loading Basis Set <=

    Name: (MINIX AUX)
    Role: JKFIT
    Keyword: DF_BASIS_SCF
    atoms 1-2, 4-10 entry C          line   203 file /home/bdw2292/miniconda3/envs/amoebamdpoltype/share/psi4/basis/def2-svp-jkfit.gbs 
    atoms 3         entry N          line   263 file /home/bdw2292/miniconda3/envs/amoebamdpoltype/share/psi4/basis/def2-svp-jkfit.gbs 
    atoms 11, 13-18 entry H          line    23 file /home/bdw2292/miniconda3/envs/amoebamdpoltype/share/psi4/basis/def2-svp-jkfit.gbs 
    atoms 12        entry O          line   323 file /home/bdw2292/miniconda3/envs/amoebamdpoltype/share/psi4/basis/def2-svp-jkfit.gbs 

  ==> Pre-Iterations <==

   -------------------------------------------------------
    Irrep   Nso     Nmo     Nalpha   Nbeta   Ndocc  Nsocc
   -------------------------------------------------------
     A         62      62       0       0       0       0
   -------------------------------------------------------
    Total      62      62      38      38      38       0
   -------------------------------------------------------

  ==> Integral Setup <==

  DFHelper Memory: AOs need 0.034 GiB; user supplied 69.849 GiB. Using in-core AOs.

  ==> MemDFJK: Density-Fitted J/K Matrices <==

    J tasked:                   Yes
    K tasked:                   Yes
    wK tasked:                   No
    OpenMP threads:              12
    Memory [MiB]:             71525
    Algorithm:                 Core
    Schwarz Cutoff:           1E-12
    Mask sparsity (%):       3.4339
    Fitting Condition:        1E-10

   => Auxiliary Basis Set <=

  Basis Set: (MINIX AUX)
    Blend: DEF2-SVP-JKFIT
    Number of shells: 317
    Number of basis function: 955
    Number of Cartesian functions: 1127
    Spherical Harmonics?: true
    Max angular momentum: 4

  Minimum eigenvalue in the overlap matrix is 1.6162939881E-01.
  Using Symmetric Orthogonalization.

  SCF Guess: Superposition of Atomic Densities via on-the-fly atomic UHF.

  ==> Iterations <==

                           Total Energy        Delta E     RMS |[F,P]|

   @DF-RHF iter SAD:  -466.54468303745898   -4.66545e+02   0.00000e+00 
   @DF-RHF iter   1:  -470.72875886808208   -4.18408e+00   7.82112e-03 DIIS
   @DF-RHF iter   2:  -470.82307048428788   -9.43116e-02   6.50968e-03 DIIS
   @DF-RHF iter   3:  -470.90748303789383   -8.44126e-02   6.05795e-04 DIIS
   @DF-RHF iter   4:  -470.90953937203545   -2.05633e-03   2.92062e-04 DIIS
   @DF-RHF iter   5:  -470.90993444363494   -3.95072e-04   1.04411e-04 DIIS
   @DF-RHF iter   6:  -470.91000653483525   -7.20912e-05   3.59093e-05 DIIS
   @DF-RHF iter   7:  -470.91001397257651   -7.43774e-06   1.52862e-05 DIIS
   @DF-RHF iter   8:  -470.91001547870712   -1.50613e-06   4.15298e-06 DIIS
   @DF-RHF iter   9:  -470.91001558786439   -1.09157e-07   1.14490e-06 DIIS
   @DF-RHF iter  10:  -470.91001559842732   -1.05629e-08   5.42834e-07 DIIS
  Energy and wave function converged.


  ==> Post-Iterations <==

    Orbital Energies [Eh]
    ---------------------

    Doubly Occupied:                                                      

       1A    -20.312911     2A    -15.457870     3A    -11.329401  
       4A    -11.251747     5A    -11.217826     6A    -11.202562  
       7A    -11.198653     8A    -11.198402     9A    -11.196407  
      10A    -11.184858    11A    -11.179776    12A     -1.374971  
      13A     -1.274826    14A     -1.167607    15A     -1.116292  
      16A     -1.033465    17A     -1.020343    18A     -0.930003  
      19A     -0.847001    20A     -0.816788    21A     -0.770352  
      22A     -0.726658    23A     -0.698429    24A     -0.657272  
      25A     -0.640300    26A     -0.627822    27A     -0.620314  
      28A     -0.608115    29A     -0.593855    30A     -0.546671  
      31A     -0.533240    32A     -0.531517    33A     -0.497888  
      34A     -0.462887    35A     -0.428846    36A     -0.408297  
      37A     -0.352026    38A     -0.308889  

    Virtual:                                                              

      39A      0.099550    40A      0.176537    41A      0.218053  
      42A      0.339707    43A      0.452376    44A      0.487964  
      45A      0.501197    46A      0.562996    47A      0.584603  
      48A      0.611319    49A      0.664181    50A      0.672278  
      51A      0.721121    52A      0.724799    53A      0.742431  
      54A      0.815837    55A      0.834998    56A      0.870168  
      57A      0.900948    58A      0.937404    59A      0.969235  
      60A      1.050575    61A      1.098840    62A      1.150560  

    Final Occupation by Irrep:
              A 
    DOCC [    38 ]

  @DF-RHF Final Energy:  -470.91001559842732

   => Energetics <=

    Nuclear Repulsion Energy =            554.8186027197471049
    One-Electron Energy =               -1738.8070391396222476
    Two-Electron Energy =                 713.0784208214478213
    Total Energy =                       -470.9100155984273215

Computation Completed


Properties will be evaluated at  -0.000000,   0.000000,   0.000000 [a0]

Properties computed using the HF density matrix

  Nuclear Dipole Moment: [e a0]
     X:     4.2450      Y:    -0.7134      Z:    -3.6371

  Electronic Dipole Moment: [e a0]
     X:    -3.2256      Y:     0.3715      Z:     3.3653

  Dipole Moment: [e a0]
     X:     1.0193      Y:    -0.3419      Z:    -0.2719     Total:     1.1090

  Dipole Moment: [D]
     X:     2.5909      Y:    -0.8690      Z:    -0.6910     Total:     2.8188


*** tstop() called on node44.bme.utexas.edu at Thu Nov  4 14:09:44 2021
Module time:
	user time   =      21.93 seconds =       0.37 minutes
	system time =       1.20 seconds =       0.02 minutes
	total time  =          3 seconds =       0.05 minutes
Total time:
	user time   =      21.93 seconds =       0.37 minutes
	system time =       1.20 seconds =       0.02 minutes
	total time  =          3 seconds =       0.05 minutes
  ==> One Electron Grid Properties (v2.0) <==

  ==> CubicScalarGrid <==

    Filepath     = .
    Total Points =           636480
    XYZ Blocking =               10
    X Points     =              104
    Y Points     =               68
    Z Points     =               90
    X Spacing    =        2.000E-01
    Y Spacing    =        2.000E-01
    Z Spacing    =        2.000E-01
    X Minimum    =       -9.581E+00
    Y Minimum    =       -6.741E+00
    Z Minimum    =       -8.891E+00
    X Maximum    =        1.102E+01
    Y Maximum    =        6.659E+00
    Z Maximum    =        8.909E+00

  Basis Set: MINIX
    Blend: MINIX
    Number of shells: 40
    Number of basis function: 62
    Number of Cartesian functions: 62
    Spherical Harmonics?: true
    Max angular momentum: 1



Properties will be evaluated at  -0.000000,   0.000000,   0.000000 [a0]
OEProp: No title given, name of density matrix used for the following properties is 'SCF density'
  Mulliken Charges: (a.u.)
   Center  Symbol    Alpha    Beta     Spin     Total
       1     C     3.02434  3.02434  0.00000 -0.04868
       2     C     3.02164  3.02164  0.00000 -0.04328
       3     N     3.70214  3.70214  0.00000 -0.40429
       4     C     2.80477  2.80477  0.00000  0.39045
       5     C     2.94048  2.94048  0.00000  0.11903
       6     C     3.05567  3.05567  0.00000 -0.11135
       7     C     3.08172  3.08172  0.00000 -0.16344
       8     C     3.08449  3.08449  0.00000 -0.16898
       9     C     3.05989  3.05989  0.00000 -0.11978
      10     C     3.11516  3.11516  0.00000 -0.23032
      11     H     0.35917  0.35917  0.00000  0.28166
      12     O     4.19990  4.19990  0.00000 -0.39980
      13     H     0.42832  0.42832  0.00000  0.14337
      14     H     0.42882  0.42882  0.00000  0.14236
      15     H     0.42491  0.42491  0.00000  0.15019
      16     H     0.42868  0.42868  0.00000  0.14263
      17     H     0.42381  0.42381  0.00000  0.15238
      18     H     0.41608  0.41608  0.00000  0.16784

   Total alpha = 38.00000, Total beta = 38.00000, Total charge =  0.00000



  Wiberg Bond Indices using Orthogonal Lowdin Orbitals:

  Irrep: 1 Size: 18 x 18

                 1                   2                   3                   4                   5

    1     0.00000000000000     1.05010931066691     0.02944140289253     0.00551958040485     1.32101448383334
    2     1.05010931066691     0.00000000000000     0.00996776257225     0.99721801412688     0.00307658319470
    3     0.02944140289253     0.00996776257225     0.00000000000000     1.09498313029486     1.07449453779203
    4     0.00551958040485     0.99721801412688     1.09498313029486     0.00000000000000     0.00512224697219
    5     1.32101448383334     0.00307658319470     1.07449453779203     0.00512224697219     0.00000000000000
    6     1.42508280800708     0.00274880466395     0.00733903455634     0.00616064519395     0.00437756233620
    7     0.00412609900205     0.00559063724009     0.03442030448932     0.00958016573396     1.40444147113604
    8     0.00535920377716     0.00842451115560     0.01620802748808     0.00192258058776     0.09893669833032
    9     0.09839558911071     0.00023002908071     0.00772722552575     0.00057309816573     0.00511618407616
   10     0.00450082381333     1.85774789832984     0.00435452031925     0.01232829537499     0.03204603083691
   11     0.00601248437355     0.00727926193057     0.94050019177942     0.00030159407878     0.00035686095885
   12     0.00647460101200     0.03860765906379     0.13554331645197     1.81025762813390     0.01081576174612
   13     0.00107799426687     0.00329692169875     0.00048391967967     0.00007017142808     0.00783941480114
   14     0.00726170905638     0.00044746432981     0.00349749754697     0.00009323709274     0.00058638980356
   15     0.00026370612965     0.00012333866235     0.00046736876578     0.00017093883905     0.00758513969048
   16     0.00651592679390     0.00029551585610     0.00009622461968     0.00013901982531     0.00027781327902
   17     0.00404345179132     0.00295988649018     0.00062154241024     0.01072946513216     0.00010347771196
   18     0.01018577186940     0.00301901322158     0.00046894609361     0.00448718172313     0.00024363403195

                 6                   7                   8                   9                  10

    1     1.42508280800708     0.00412609900205     0.00535920377716     0.09839558911071     0.00450082381333
    2     0.00274880466395     0.00559063724009     0.00842451115560     0.00023002908071     1.85774789832984
    3     0.00733903455634     0.03442030448932     0.01620802748808     0.00772722552575     0.00435452031925
    4     0.00616064519395     0.00958016573396     0.00192258058776     0.00057309816573     0.01232829537499
    5     0.00437756233620     1.40444147113604     0.09893669833032     0.00511618407616     0.03204603083691
    6     0.00000000000000     0.10648220726199     1.41430005534510     0.00424703399370     0.03410289955703
    7     0.10648220726199     0.00000000000000     0.00612406214856     1.42462739698539     0.00016719574182
    8     1.41430005534510     0.00612406214856     0.00000000000000     1.44798026492575     0.00022479262108
    9     0.00424703399370     1.42462739698539     1.44798026492575     0.00000000000000     0.01794931186453
   10     0.03410289955703     0.00016719574182     0.00022479262108     0.01794931186453     0.00000000000000
   11     0.00038407520674     0.00082757884009     0.00005367979775     0.00001951118015     0.00030121524180
   12     0.00098666925686     0.00761597134573     0.00293154990439     0.00033188451151     0.06174774948479
   13     0.96570892327532     0.00029961407721     0.00114248732096     0.00705111863122     0.00010921465186
   14     0.00028889747749     0.96540075733736     0.00742390348428     0.00121268227435     0.00013156646660
   15     0.00832965774712     0.00091914786223     0.00103801671875     0.96292904452219     0.00000392888256
   16     0.00138728984083     0.00744013960010     0.96670990488597     0.00169426332723     0.00000913082463
   17     0.00008692221791     0.00004668098375     0.00007311373667     0.00000297705438     0.97073417360954
   18     0.00003882479591     0.00016932325452     0.00005650853827     0.00001515936729     0.96799807747012

                11                  12                  13                  14                  15

    1     0.00601248437355     0.00647460101200     0.00107799426687     0.00726170905638     0.00026370612965
    2     0.00727926193057     0.03860765906379     0.00329692169875     0.00044746432981     0.00012333866235
    3     0.94050019177942     0.13554331645197     0.00048391967967     0.00349749754697     0.00046736876578
    4     0.00030159407878     1.81025762813390     0.00007017142808     0.00009323709274     0.00017093883905
    5     0.00035686095885     0.01081576174612     0.00783941480114     0.00058638980356     0.00758513969048
    6     0.00038407520674     0.00098666925686     0.96570892327532     0.00028889747749     0.00832965774712
    7     0.00082757884009     0.00761597134573     0.00029961407721     0.96540075733736     0.00091914786223
    8     0.00005367979775     0.00293154990439     0.00114248732096     0.00742390348428     0.00103801671875
    9     0.00001951118015     0.00033188451151     0.00705111863122     0.00121268227435     0.96292904452219
   10     0.00030121524180     0.06174774948479     0.00010921465186     0.00013156646660     0.00000392888256
   11     0.00000000000000     0.00121028193979     0.00027540958414     0.00034142646795     0.00000755688609
   12     0.00121028193979     0.00000000000000     0.00005159717138     0.00008172944943     0.00006964593075
   13     0.00027540958414     0.00005159717138     0.00000000000000     0.00009636888966     0.00045960974488
   14     0.00034142646795     0.00008172944943     0.00009636888966     0.00000000000000     0.00424701040954
   15     0.00000755688609     0.00006964593075     0.00045960974488     0.00424701040954     0.00000000000000
   16     0.00000131347239     0.00004780602439     0.00363868679080     0.00042915386995     0.00383257493192
   17     0.00027734553153     0.00014768411313     0.00034026422164     0.00001240231923     0.00000094249642
   18     0.00008323139431     0.00107563611557     0.00007942468946     0.00003847588487     0.00000031579293

                16                  17                  18

    1     0.00651592679390     0.00404345179132     0.01018577186940
    2     0.00029551585610     0.00295988649018     0.00301901322158
    3     0.00009622461968     0.00062154241024     0.00046894609361
    4     0.00013901982531     0.01072946513216     0.00448718172313
    5     0.00027781327902     0.00010347771196     0.00024363403195
    6     0.00138728984083     0.00008692221791     0.00003882479591
    7     0.00744013960010     0.00004668098375     0.00016932325452
    8     0.96670990488597     0.00007311373667     0.00005650853827
    9     0.00169426332723     0.00000297705438     0.00001515936729
   10     0.00000913082463     0.97073417360954     0.96799807747012
   11     0.00000131347239     0.00027734553153     0.00008323139431
   12     0.00004780602439     0.00014768411313     0.00107563611557
   13     0.00363868679080     0.00034026422164     0.00007942468946
   14     0.00042915386995     0.00001240231923     0.00003847588487
   15     0.00383257493192     0.00000094249642     0.00000031579293
   16     0.00000000000000     0.00001099608934     0.00000969098208
   17     0.00001099608934     0.00000000000000     0.00046453874731
   18     0.00000969098208     0.00046453874731     0.00000000000000



  Atomic Valences: 

 #  #
 Irrep: 1
      1:  3.9853849
      2:  3.9911426
      3:  3.3606150
      4:  3.9596570
      5:  3.9764343
      6:  3.9820523
      7:  3.9782788
      8:  3.9789094
      9:  3.9801028
     10:  3.9644568
     11:  0.9582330
     12:  2.0779972
     13:  0.9920211
     14:  0.9915907
     15:  0.9904479
     16:  0.9925355
     17:  0.9906559
     18:  0.9884338


    Psi4 stopped on: Thursday, 04 November 2021 02:10PM
    Psi4 wall time for execution: 0:00:19.32

*** Psi4 exiting successfully. Buy a developer a beer!
