8
 energy: -14.443378147900 gnorm: 0.000066416323 xtb: 6.5.0 (97a52f5)
H           -2.16244499204004        0.26725566821413       -0.39701640582312
C           -1.40456579041645        0.21602362731500        0.38436044828216
O           -0.19866640741877        0.78295304238785       -0.12478436312157
C            0.87180747730853        0.01107457938319       -0.17109920368550
H           -1.23238617591904       -0.82116423358356        0.67675400263227
H           -1.72034111733967        0.80425974598381        1.24555868019477
O            0.95520326482963       -1.13116304330242        0.16952958514867
H            1.70633273099582        0.60085263360201       -0.58604075362767
