
    -----------------------------------------------------------------------
          Psi4: An Open-Source Ab Initio Electronic Structure Package
                               Psi4 1.6 release

                         Git: Rev {HEAD} 77475b5 


    D. G. A. Smith, L. A. Burns, A. C. Simmonett, R. M. Parrish,
    M. C. Schieber, R. Galvelis, P. Kraus, H. Kruse, R. Di Remigio,
    A. Alenaizan, A. M. James, S. Lehtola, J. P. Misiewicz, M. Scheurer,
    R. A. Shaw, J. B. Schriber, Y. Xie, Z. L. Glick, D. A. Sirianni,
    J. S. O'Brien, J. M. Waldrop, A. Kumar, E. G. Hohenstein,
    B. P. Pritchard, B. R. Brooks, H. F. Schaefer III, A. Yu. Sokolov,
    K. Patkowski, A. E. DePrince III, U. Bozkaya, R. A. King,
    F. A. Evangelista, J. M. Turney, T. D. Crawford, C. D. Sherrill,
    J. Chem. Phys. 152(18) 184108 (2020). https://doi.org/10.1063/5.0006002

                            Additional Code Authors
    E. T. Seidl, C. L. Janssen, E. F. Valeev, M. L. Leininger,
    J. F. Gonthier, R. M. Richard, H. R. McAlexander, M. Saitow, X. Wang,
    P. Verma, M. H. Lechner, and A. Jiang

             Previous Authors, Complete List of Code Contributors,
                       and Citations for Specific Modules
    https://github.com/psi4/psi4/blob/master/codemeta.json
    https://github.com/psi4/psi4/graphs/contributors
    http://psicode.org/psi4manual/master/introduction.html#citing-psifour

    -----------------------------------------------------------------------


    Psi4 started on: Saturday, 18 November 2023 08:09AM

    Process ID: 1113621
    Host:       node165.bme.utexas.edu
    PSIDATADIR: /home/liuchw/anaconda3/envs/poltype2022/share/psi4
    Memory:     500.0 MiB
    Threads:    1
    
  ==> Input File <==

--------------------------------------------------------------------------
molecule { 
0 1
 H   -1.607668   -1.034936    0.569324
 C   -1.308983    0.012562    0.637523
 O    0.110642    0.099472    0.738893
 C    0.789231    0.189235   -0.390895
 H   -1.718057    0.459750    1.540476
 H   -1.654284    0.544423   -0.250720
 O    0.340546    0.205903   -1.498064
 H    1.863513    0.253684   -0.149275
}
memory 20GB
set_num_threads(5)
psi4_io.set_default_path("/scratch/liuchw/Psi4-35_38_Index_0-farH_in17")
set freeze_core True
E, wfn = energy('wb97x-d/6-311+G*',return_wfn=True)
oeprop(wfn,"WIBERG_LOWDIN_INDICES")
clean()
--------------------------------------------------------------------------

  Memory set to  18.626 GiB by Python driver.
  Threads set to 5 by Python driver.

Scratch directory: /scratch/liuchw/Psi4-35_38_Index_0-farH_in17/

*** tstart() called on node165.bme.utexas.edu
*** at Sat Nov 18 08:09:29 2023

   => Loading Basis Set <=

    Name: 6-311+G*
    Role: ORBITAL
    Keyword: BASIS
    atoms 1, 5-6, 8 entry H          line    47 file /home/liuchw/anaconda3/envs/poltype2022/share/psi4/basis/6-311pgs.gbs 
    atoms 2, 4      entry C          line   130 file /home/liuchw/anaconda3/envs/poltype2022/share/psi4/basis/6-311pgs.gbs 
    atoms 3, 7      entry O          line   172 file /home/liuchw/anaconda3/envs/poltype2022/share/psi4/basis/6-311pgs.gbs 

   => WB97X-D: Empirical Dispersion <=

    Chai and Head-Gordon Dispersion Correction
    Chai, J.-D.; Head-Gordon, M. (2010), J. Chem. Phys., 132: 6615-6620

        s6 =       1.000000


         ---------------------------------------------------------
                                   SCF
               by Justin Turney, Rob Parrish, Andy Simmonett
                          and Daniel G. A. Smith
                              RKS Reference
                        5 Threads,  19073 MiB Core
         ---------------------------------------------------------

  ==> Geometry <==

    Molecular point group: c1
    Full point group: C1

    Geometry (in Angstrom), charge = 0, multiplicity = 1:

       Center              X                  Y                   Z               Mass       
    ------------   -----------------  -----------------  -----------------  -----------------
         H           -1.571660794420    -1.160403089594     0.693616147215     1.007825032230
         C           -1.272975794420    -0.112905089594     0.761815147215    12.000000000000
         O            0.146649205580    -0.025995089594     0.863185147215    15.994914619570
         C            0.825238205580     0.063767910406    -0.266602852785    12.000000000000
         H           -1.682049794420     0.334282910406     1.664768147215     1.007825032230
         H           -1.618276794420     0.418955910406    -0.126427852785     1.007825032230
         O            0.376553205580     0.080435910406    -1.373771852785    15.994914619570
         H            1.899520205580     0.128216910406    -0.024982852785     1.007825032230

  Running in c1 symmetry.

  Rotational constants: A =      0.69675  B =      0.22645  C =      0.17662 [cm^-1]
  Rotational constants: A =  20887.89522  B =   6788.92480  C =   5294.88016 [MHz]
  Nuclear repulsion =  122.861294881110226

  Charge       = 0
  Multiplicity = 1
  Electrons    = 32
  Nalpha       = 16
  Nbeta        = 16

  ==> Algorithm <==

  SCF Algorithm Type is DF.
  DIIS enabled.
  MOM disabled.
  Fractional occupation disabled.
  Guess Type is SAD.
  Energy threshold   = 1.00e-06
  Density threshold  = 1.00e-06
  Integral threshold = 1.00e-12

  ==> Primary Basis <==

  Basis Set: 6-311+G*
    Blend: 6-311+G*
    Number of shells: 52
    Number of basis functions: 100
    Number of Cartesian functions: 104
    Spherical Harmonics?: true
    Max angular momentum: 2

  ==> DFT Potential <==

   => LibXC <=

    Version 5.1.5
    S. Lehtola, C. Steigemann, M. J. Oliveira, and M. A. Marques, SoftwareX 7, 1 (2018) (10.1016/j.softx.2017.11.002)

   => Composite Functional: WB97X-D <= 

    wB97X-D Hyb-GGA Exchange-Correlation Functional

    J.-D. Chai and M. Head-Gordon, Phys. Chem. Chem. Phys. 10, 6615 (2008) (10.1039/B810189B)

    Deriv               =              1
    GGA                 =           TRUE
    Meta                =          FALSE

    Exchange Hybrid     =           TRUE
    MP2 Hybrid          =          FALSE

   => Exchange-Correlation Functionals <=

    1.0000   wB97X-D range-separated functional

   => Exact (HF) Exchange <=

    0.7780            HF,LR [omega = 0.2000]
    0.2220               HF 

   => LibXC Density Thresholds  <==

    XC_HYB_GGA_XC_WB97X_D:  1.00E-14 

   => Molecular Quadrature <=

    Radial Scheme          =       TREUTLER
    Pruning Scheme         =           NONE
    Nuclear Scheme         =       TREUTLER

    Blocking Scheme        =         OCTREE
    BS radius alpha        =              1
    Pruning alpha          =              1
    Radial Points          =             75
    Spherical Points       =            302
    Total Points           =         174109
    Total Blocks           =           1350
    Max Points             =            256
    Max Functions          =            100
    Weights Tolerance      =       1.00E-15

   => Loading Basis Set <=

    Name: (6-311+G* AUX)
    Role: JKFIT
    Keyword: DF_BASIS_SCF
    atoms 1, 5-6, 8 entry H          line   116 file /home/liuchw/anaconda3/envs/poltype2022/share/psi4/basis/heavy-aug-cc-pvtz-jkfit.gbs 
    atoms 2, 4      entry C          line   200 file /home/liuchw/anaconda3/envs/poltype2022/share/psi4/basis/heavy-aug-cc-pvtz-jkfit.gbs 
    atoms 3, 7      entry O          line   324 file /home/liuchw/anaconda3/envs/poltype2022/share/psi4/basis/heavy-aug-cc-pvtz-jkfit.gbs 

  ==> Integral Setup <==

  DFHelper Memory: AOs need 0.123 GiB; user supplied 13.550 GiB. Using in-core AOs.

  ==> MemDFJK: Density-Fitted J/K Matrices <==

    J tasked:                   Yes
    K tasked:                   Yes
    wK tasked:                  Yes
    Omega:                2.000E-01
    OpenMP threads:               5
    Memory [MiB]:             13874
    Algorithm:                 Core
    Schwarz Cutoff:           1E-12
    Mask sparsity (%):       0.8200
    Fitting Condition:        1E-10

   => Auxiliary Basis Set <=

  Basis Set: (6-311+G* AUX)
    Blend: HEAVY-AUG-CC-PVTZ-JKFIT
    Number of shells: 160
    Number of basis functions: 536
    Number of Cartesian functions: 664
    Spherical Harmonics?: true
    Max angular momentum: 4

  Cached 100.0% of DFT collocation blocks in 0.420 [GiB].

  Minimum eigenvalue in the overlap matrix is 1.1176748297E-03.
  Reciprocal condition number of the overlap matrix is 1.2867296161E-04.
    Using symmetric orthogonalization.

  ==> Pre-Iterations <==

  SCF Guess: Superposition of Atomic Densities via on-the-fly atomic UHF (no occupation information).

   -------------------------
    Irrep   Nso     Nmo    
   -------------------------
     A        100     100 
   -------------------------
    Total     100     100
   -------------------------

  ==> Iterations <==

                           Total Energy        Delta E     RMS |[F,P]|

   @DF-RKS iter SAD:  -228.36566249725686   -2.28366e+02   0.00000e+00 
   @DF-RKS iter   1:  -228.87662410749505   -5.10962e-01   6.77945e-03 ADIIS/DIIS
   @DF-RKS iter   2:  -228.85794608443405    1.86780e-02   7.55776e-03 ADIIS/DIIS
   @DF-RKS iter   3:  -229.04628672523964   -1.88341e-01   1.27558e-03 ADIIS/DIIS
   @DF-RKS iter   4:  -229.05189944223878   -5.61272e-03   4.14954e-04 ADIIS/DIIS
   @DF-RKS iter   5:  -229.05245098389506   -5.51542e-04   1.41585e-04 ADIIS/DIIS
   @DF-RKS iter   6:  -229.05252545048876   -7.44666e-05   2.82635e-05 DIIS
   @DF-RKS iter   7:  -229.05252928411980   -3.83363e-06   5.75196e-06 DIIS
   @DF-RKS iter   8:  -229.05252954792337   -2.63804e-07   2.39197e-06 DIIS
   @DF-RKS iter   9:  -229.05252958972295   -4.17996e-08   5.26165e-07 DIIS
  Energy and wave function converged.


  ==> Post-Iterations <==

   Electrons on quadrature grid:
      Ntotal   =   32.0000050834 ; deviation = 5.083e-06 

    Orbital Energies [Eh]
    ---------------------

    Doubly Occupied:                                                      

       1A    -19.311298     2A    -19.248101     3A    -10.421229  
       4A    -10.345223     5A     -1.233463     6A     -1.142484  
       7A     -0.852822     8A     -0.698018     9A     -0.637994  
      10A     -0.589715    11A     -0.577033    12A     -0.521204  
      13A     -0.498720    14A     -0.455424    15A     -0.404727  
      16A     -0.380840  

    Virtual:                                                              

      17A      0.066664    18A      0.068136    19A      0.081563  
      20A      0.098593    21A      0.101379    22A      0.108027  
      23A      0.128291    24A      0.137800    25A      0.176616  
      26A      0.213454    27A      0.220975    28A      0.234816  
      29A      0.256607    30A      0.260310    31A      0.292380  
      32A      0.296566    33A      0.308501    34A      0.327129  
      35A      0.346833    36A      0.360611    37A      0.377420  
      38A      0.390301    39A      0.417976    40A      0.507290  
      41A      0.518537    42A      0.542307    43A      0.588233  
      44A      0.626962    45A      0.634113    46A      0.654375  
      47A      0.697071    48A      0.744911    49A      0.757072  
      50A      0.803263    51A      0.933800    52A      0.988694  
      53A      1.106786    54A      1.122139    55A      1.167600  
      56A      1.186402    57A      1.223282    58A      1.258088  
      59A      1.311920    60A      1.362554    61A      1.469616  
      62A      1.524563    63A      1.589289    64A      1.627483  
      65A      1.640756    66A      1.688325    67A      1.711463  
      68A      1.793936    69A      1.895693    70A      2.066655  
      71A      2.444853    72A      2.496394    73A      2.504738  
      74A      2.564238    75A      2.675843    76A      2.892064  
      77A      2.918545    78A      2.961137    79A      3.034342  
      80A      3.083133    81A      3.136144    82A      3.249144  
      83A      3.257673    84A      3.312340    85A      3.360023  
      86A      3.468162    87A      3.682594    88A      3.794253  
      89A      3.978354    90A      4.086163    91A      5.051729  
      92A      5.110082    93A      5.187349    94A      5.338852  
      95A      5.641611    96A      5.922221    97A     23.612454  
      98A     23.923466    99A     49.968887   100A     50.078833  

    Final Occupation by Irrep:
              A 
    DOCC [    16 ]

  @DF-RKS Final Energy:  -229.05252958972295

   => Energetics <=

    Nuclear Repulsion Energy =            122.8612948811102257
    One-Electron Energy =                -555.2585588827917036
    Two-Electron Energy =                 223.8363217966884235
    DFT Exchange-Correlation Energy =     -20.4900216449971708
    Empirical Dispersion Energy =          -0.0015657397327173
    VV10 Nonlocal Energy =                  0.0000000000000000
    Total Energy =                       -229.0525295897229512

Computation Completed


Properties will be evaluated at   0.000000,   0.000000,   0.000000 [a0]

Properties computed using the SCF density matrix


 Multipole Moments:

 ------------------------------------------------------------------------------------
     Multipole            Electronic (a.u.)      Nuclear  (a.u.)        Total (a.u.)
 ------------------------------------------------------------------------------------

 L = 1.  Multiply by 2.5417464519 to convert [e a0] to [Debye]
 Dipole X            :          2.5155402           -2.7840833           -0.2685431
 Dipole Y            :          0.2207430           -0.2612430           -0.0405001
 Dipole Z            :         -1.2974338            2.0665170            0.7690832
 Magnitude           :                                                    0.8156253

 ------------------------------------------------------------------------------------

*** tstop() called on node165.bme.utexas.edu at Sat Nov 18 08:09:37 2023
Module time:
	user time   =      16.53 seconds =       0.28 minutes
	system time =       1.50 seconds =       0.03 minutes
	total time  =          8 seconds =       0.13 minutes
Total time:
	user time   =      16.53 seconds =       0.28 minutes
	system time =       1.50 seconds =       0.03 minutes
	total time  =          8 seconds =       0.13 minutes


Properties will be evaluated at   0.000000,   0.000000,   0.000000 [a0]
OEProp: No title given, name of density matrix used for the following properties is 'SCF density'


  Wiberg Bond Indices using Orthogonal Lowdin Orbitals:

  Irrep: 1 Size: 8 x 8

                 1                   2                   3                   4                   5

    1     0.00000000000000     0.90338244555678     0.05044374162830     0.01801019744137     0.00923498852877
    2     0.90338244555678     0.00000000000000     1.24637886591879     0.13144947231597     0.90680710561997
    3     0.05044374162830     1.24637886591879     0.00000000000000     1.57557231303341     0.05575239247054
    4     0.01801019744137     0.13144947231597     1.57557231303341     0.00000000000000     0.01428970534893
    5     0.00923498852877     0.90680710561997     0.05575239247054     0.01428970534893     0.00000000000000
    6     0.00852010076131     0.88853731369285     0.04539212669835     0.02328914425562     0.00984940491870
    7     0.00490590559452     0.08765455596339     0.24991542463864     2.40628857585462     0.00190460522074
    8     0.00008285744523     0.02585637763936     0.07583995227151     0.79918246087826     0.00018022802075

                 6                   7                   8

    1     0.00852010076131     0.00490590559452     0.00008285744523
    2     0.88853731369285     0.08765455596339     0.02585637763936
    3     0.04539212669835     0.24991542463864     0.07583995227151
    4     0.02328914425562     2.40628857585462     0.79918246087826
    5     0.00984940491870     0.00190460522074     0.00018022802075
    6     0.00000000000000     0.02179057392420     0.00077084458637
    7     0.02179057392420     0.00000000000000     0.08505313103579
    8     0.00077084458637     0.08505313103579     0.00000000000000



  Atomic Valences: 

 #  #
 Irrep: 1
      1:    0.994580236956277
      2:    4.190066136707115
      3:    3.299294816659541
      4:    4.968081869128184
      5:    0.998018430128410
      6:    0.998149508837402
      7:    2.857512772231907
      8:    0.986965851877274


    Psi4 stopped on: Saturday, 18 November 2023 08:09AM
    Psi4 wall time for execution: 0:00:08.91

*** Psi4 exiting successfully. Buy a developer a beer!
