8
 energy: -14.443367303587 gnorm: 0.000272183048 xtb: 6.5.0 (97a52f5)
H           -1.46450844537382       -0.79951811718448        0.04527769884252
C           -1.32464336387058        0.12206684682989        0.61289667570248
O            0.05896280403441        0.46383292935232        0.65785598465900
C            0.80268500130324        0.09487023224370       -0.36958004316419
H           -1.65273798918834       -0.00323734436044        1.64214670089442
H           -1.88532694017386        0.92795102906497        0.13615774339746
O            0.44083555633518       -0.49904875978116       -1.34104797050550
H            1.83967336693377        0.42317617383521       -0.18644377982620
