      -----------------------------------------------------------      
     |                   =====================                   |     
     |                           x T B                           |     
     |                   =====================                   |     
     |                         S. Grimme                         |     
     |          Mulliken Center for Theoretical Chemistry        |     
     |                    University of Bonn                     |     
      -----------------------------------------------------------      

   * xtb version 6.5.0 (97a52f5) compiled by 'conda@d2599ee0d4f4' on 2022-05-15

   xtb is free software: you can redistribute it and/or modify it under
   the terms of the GNU Lesser General Public License as published by
   the Free Software Foundation, either version 3 of the License, or
   (at your option) any later version.
   
   xtb is distributed in the hope that it will be useful,
   but WITHOUT ANY WARRANTY; without even the implied warranty of
   MERCHANTABILITY or FITNESS FOR A PARTICULAR PURPOSE.  See the
   GNU Lesser General Public License for more details.
   
   Cite this work as:
   * C. Bannwarth, E. Caldeweyher, S. Ehlert, A. Hansen, P. Pracht,
     J. Seibert, S. Spicher, S. Grimme, WIREs Comput. Mol. Sci., 2020, 11,
     e01493. DOI: 10.1002/wcms.1493
   
   for GFN2-xTB:
   * C. Bannwarth, S. Ehlert and S. Grimme., J. Chem. Theory Comput., 2019,
     15, 1652-1671. DOI: 10.1021/acs.jctc.8b01176
   for GFN1-xTB:
   * S. Grimme, C. Bannwarth, P. Shushkov, J. Chem. Theory Comput., 2017,
     13, 1989-2009. DOI: 10.1021/acs.jctc.7b00118
   for GFN0-xTB:
   * P. Pracht, E. Caldeweyher, S. Ehlert, S. Grimme, ChemRxiv, 2019, preprint.
     DOI: 10.26434/chemrxiv.8326202.v1
   for GFN-FF:
   * S. Spicher and S. Grimme, Angew. Chem. Int. Ed., 2020, 59, 15665-15673.
     DOI: 10.1002/anie.202004239
   
   for ALPB and GBSA implicit solvation:
   * S. Ehlert, M. Stahn, S. Spicher, S. Grimme, J. Chem. Theory Comput.,
     2021, 17, 4250-4261. DOI: 10.1021/acs.jctc.1c00471
   
   for DFT-D4:
   * E. Caldeweyher, C. Bannwarth and S. Grimme, J. Chem. Phys., 2017,
     147, 034112. DOI: 10.1063/1.4993215
   * E. Caldeweyher, S. Ehlert, A. Hansen, H. Neugebauer, S. Spicher,
     C. Bannwarth and S. Grimme, J. Chem. Phys., 2019, 150, 154122.
     DOI: 10.1063/1.5090222
   * E. Caldeweyher, J.-M. Mewes, S. Ehlert and S. Grimme, Phys. Chem. Chem. Phys.
     2020, 22, 8499-8512. DOI: 10.1039/D0CP00502A
   
   for sTDA-xTB:
   * S. Grimme and C. Bannwarth, J. Chem. Phys., 2016, 145, 054103.
     DOI: 10.1063/1.4959605
   
   in the mass-spec context:
   * V. Asgeirsson, C. Bauer and S. Grimme, Chem. Sci., 2017, 8, 4879.
     DOI: 10.1039/c7sc00601b
   * J. Koopman and S. Grimme, ACS Omega 2019, 4, 12, 15120-15133.
     DOI: 10.1021/acsomega.9b02011
   
   for metadynamics refer to:
   * S. Grimme, J. Chem. Theory Comput., 2019, 155, 2847-2862
     DOI: 10.1021/acs.jctc.9b00143
   
   for SPH calculations refer to:
   * S. Spicher and S. Grimme, J. Chem. Theory Comput., 2021, 17, 1701-1714
     DOI: 10.1021/acs.jctc.0c01306
   
   with help from (in alphabetical order)
   P. Atkinson, C. Bannwarth, F. Bohle, G. Brandenburg, E. Caldeweyher
   M. Checinski, S. Dohm, S. Ehlert, S. Ehrlich, I. Gerasimov, C. Hölzer
   A. Katbashev, J. Koopman, C. Lavigne, S. Lehtola, F. März, M. Müller,
   F. Musil, H. Neugebauer, J. Pisarek, C. Plett, P. Pracht, F. Pultar,
   J. Seibert, P. Shushkov, S. Spicher, M. Stahn, M. Steiner, T. Strunk,
   J. Stückrath, T. Rose, and J. Unsleber
   
 * started run on 2023/11/18 at 08:07:57.257     

           -------------------------------------------------
          |                Calculation Setup                |
           -------------------------------------------------

          program call               : /home/liuchw/anaconda3/envs/xtbenv/bin/xtb --gfn 2 --chrg 0 --uhf 0 35_38_Index_0-opt-2-3-150_preQMOPTprefit_xyzformat.xyz --opt --input xtb-opt-2-3-150_constr.txt
          hostname                   : node165.bme.utexas.edu
          coordinate file            : 35_38_Index_0-opt-2-3-150_preQMOPTprefit_xyzformat.xyz
          omp threads                :                    64

   ID    Z sym.   atoms
    1    1 H      1, 5, 6, 8
    2    6 C      2, 4
    3    8 O      3, 7
constraining angle 1 2 3 4 to  150.0118619°, actual value:  150.0118619°
constraining angle 2 3 4 7 to  359.9972247°, actual value:   -0.0027753°

           -------------------------------------------------
          |                 G F N 2 - x T B                 |
           -------------------------------------------------

        Reference                      10.1021/acs.jctc.8b01176
      * Hamiltonian:
        H0-scaling (s, p, d)           1.850000    2.230000    2.230000
        zeta-weighting                 0.500000
      * Dispersion:
        s8                             2.700000
        a1                             0.520000
        a2                             5.000000
        s9                             5.000000
      * Repulsion:
        kExp                           1.500000    1.000000
        rExp                           1.000000
      * Coulomb:
        alpha                          2.000000
        third order                    shell-resolved
        anisotropic                    true
        a3                             3.000000
        a5                             4.000000
        cn-shift                       1.200000
        cn-exp                         4.000000
        max-rad                        5.000000

q/qsh data taken from xtbrestart
CAMM data taken from xtbrestart

          ...................................................
          :                      SETUP                      :
          :.................................................:
          :  # basis functions                  20          :
          :  # atomic orbitals                  20          :
          :  # shells                           12          :
          :  # electrons                        24          :
          :  max. iterations                   250          :
          :  Hamiltonian                  GFN2-xTB          :
          :  restarted?                       true          :
          :  GBSA solvation                  false          :
          :  PC potential                    false          :
          :  electronic temp.          300.0000000     K    :
          :  accuracy                    1.0000000          :
          :  -> integral cutoff          0.2500000E+02      :
          :  -> integral neglect         0.1000000E-07      :
          :  -> SCF convergence          0.1000000E-05 Eh   :
          :  -> wf. convergence          0.1000000E-03 e    :
          :  Broyden damping             0.4000000          :
          ...................................................

 iter      E             dE          RMSdq      gap      omega  full diag
   1    -14.5557633 -0.145558E+02  0.144E+00    4.81       0.0  T
   2    -14.5563782 -0.614913E-03  0.852E-01    4.91       1.0  T
   3    -14.5562990  0.791990E-04  0.225E-01    4.83       1.0  T
   4    -14.5564507 -0.151754E-03  0.412E-02    4.89       1.0  T
   5    -14.5564556 -0.487179E-05  0.214E-02    4.88       1.7  T
   6    -14.5564558 -0.240909E-06  0.435E-03    4.88       8.1  T
   7    -14.5564559 -0.154047E-07  0.509E-04    4.88      69.4  T
   8    -14.5564559 -0.233660E-09  0.232E-04    4.88     152.6  T

   *** convergence criteria satisfied after 8 iterations ***

         #    Occupation            Energy/Eh            Energy/eV
      -------------------------------------------------------------
         1        2.0000           -0.7479092             -20.3516
       ...           ...                  ...                  ...
         6        2.0000           -0.5896188             -16.0443
         7        2.0000           -0.5717350             -15.5577
         8        2.0000           -0.5276868             -14.3591
         9        2.0000           -0.5219658             -14.2034
        10        2.0000           -0.4886294             -13.2963
        11        2.0000           -0.4613905             -12.5551
        12        2.0000           -0.4391727             -11.9505 (HOMO)
        13                         -0.2598561              -7.0710 (LUMO)
        14                         -0.0326529              -0.8885
        15                          0.1086181               2.9556
        16                          0.1236384               3.3644
        17                          0.1689583               4.5976
       ...                                ...                  ...
        20                          0.5763782              15.6840
      -------------------------------------------------------------
                  HL-Gap            0.1793166 Eh            4.8795 eV
             Fermi-level           -0.3495144 Eh           -9.5108 eV

 SCC (total)                   0 d,  0 h,  0 min,  1.950 sec
 SCC setup                      ...        0 min,  0.036 sec (  1.869%)
 Dispersion                     ...        0 min,  0.109 sec (  5.574%)
 classical contributions        ...        0 min,  0.202 sec ( 10.369%)
 integral evaluation            ...        0 min,  0.140 sec (  7.171%)
 iterations                     ...        0 min,  1.123 sec ( 57.565%)
 molecular gradient             ...        0 min,  0.340 sec ( 17.427%)
 printout                       ...        0 min,  0.000 sec (  0.008%)

         :::::::::::::::::::::::::::::::::::::::::::::::::::::
         ::                     SUMMARY                     ::
         :::::::::::::::::::::::::::::::::::::::::::::::::::::
         :: total energy             -14.439870522500 Eh    ::
         :: gradient norm              0.057230132362 Eh/a0 ::
         :: HOMO-LUMO gap              4.879452956836 eV    ::
         ::.................................................::
         :: SCC energy               -14.556455856205 Eh    ::
         :: -> isotropic ES            0.038321027070 Eh    ::
         :: -> anisotropic ES          0.001944700508 Eh    ::
         :: -> anisotropic XC          0.001728051561 Eh    ::
         :: -> dispersion             -0.002836768582 Eh    ::
         :: repulsion energy           0.116584940333 Eh    ::
         :: add. restraining           0.000000000000 Eh    ::
         :: total charge              -0.000000000000 e     ::
         :::::::::::::::::::::::::::::::::::::::::::::::::::::

      ----------------------------------------------------------- 
     |                   =====================                   |
     |                        A N C O P T                        |
     |                   =====================                   |
     |               Approximate Normal Coordinate               |
     |                Rational Function Optimizer                |
      ----------------------------------------------------------- 

          ...................................................
          :                      SETUP                      :
          :.................................................:
          :   optimization level            normal          :
          :   max. optcycles                   200          :
          :   ANC micro-cycles                  20          :
          :   degrees of freedom                18          :
          :.................................................:
          :   RF solver                   davidson          :
          :   write xtbopt.log                true          :
          :   linear?                        false          :
          :   energy convergence         0.5000000E-05 Eh   :
          :   grad. convergence          0.1000000E-02 Eh/α :
          :   maximium RF displ.         1.0000000          :
          :   Hlow (freq-cutoff)         0.1000000E-01      :
          :   Hmax (freq-cutoff)         5.0000000          :
          :   S6 in model hess.         20.0000000          :
          ...................................................

generating ANC from model Hessian ...
Using Lindh-Hessian (1995)
 Shifting diagonal of input Hessian by    8.7434332183701155E-004
 Lowest  eigenvalues of input Hessian
    0.000000    0.000000    0.000000    0.000000    0.000000    0.000000
    0.010000    0.023121    0.054626    0.076249    0.088640    0.097654
    0.129843    0.216057    0.335917    0.475776    0.614509    0.675406
 Highest eigenvalues
    1.117768    1.164805    1.600488    2.296374    3.665925   13.200677


........................................................................
.............................. CYCLE    1 ..............................
........................................................................
   1    -14.5564559 -0.145565E+02  0.443E-05    4.88       0.0  T
   2    -14.5564559 -0.824230E-12  0.265E-05    4.88    1335.1  T
   3    -14.5564559 -0.337508E-12  0.672E-06    4.88    5260.0  T
     SCC iter.                  ...        0 min,  0.399 sec
     gradient                   ...        0 min,  0.308 sec
 * total energy  :   -14.4398705 Eh     change       -0.3695888E-10 Eh
   gradient norm :     0.0572302 Eh/α   predicted     0.0000000E+00 (-100.00%)
   displ. norm   :     0.1600767 α      lambda       -0.4840889E-02
   maximum displ.:     0.1135355 α      in ANC's #4, #2, #12, ...

........................................................................
.............................. CYCLE    2 ..............................
........................................................................
   1    -14.5692090 -0.145692E+02  0.268E-01    5.18       0.0  T
   2    -14.5693626 -0.153667E-03  0.171E-01    5.11       1.0  T
   3    -14.5693764 -0.137623E-04  0.947E-02    5.13       1.0  T
   4    -14.5693787 -0.225789E-05  0.125E-02    5.12       2.8  T
   5    -14.5693791 -0.481418E-06  0.501E-03    5.13       7.1  T
   6    -14.5693792 -0.258016E-07  0.131E-03    5.12      27.0  T
   7    -14.5693792 -0.596717E-09  0.964E-05    5.12     366.8  T
   8    -14.5693792 -0.727063E-11  0.511E-05    5.12     691.4  T
     SCC iter.                  ...        0 min,  0.981 sec
     gradient                   ...        0 min,  0.271 sec
 * total energy  :   -14.4429418 Eh     change       -0.3071278E-02 Eh
   gradient norm :     0.0221449 Eh/α   predicted    -0.2482466E-02 ( -19.17%)
   displ. norm   :     0.0667250 α      lambda       -0.7418395E-03
   maximum displ.:     0.0389709 α      in ANC's #1, #4, #8, ...

........................................................................
.............................. CYCLE    3 ..............................
........................................................................
   1    -14.5724943 -0.145725E+02  0.152E-01    5.23       0.0  T
   2    -14.5725892 -0.948698E-04  0.929E-02    5.19       1.0  T
   3    -14.5725946 -0.546409E-05  0.542E-02    5.20       1.0  T
   4    -14.5725945  0.179863E-06  0.122E-02    5.19       2.9  T
   5    -14.5725949 -0.423816E-06  0.212E-03    5.19      16.7  T
   6    -14.5725949 -0.268366E-08  0.505E-04    5.19      70.0  T
   7    -14.5725949 -0.741061E-10  0.167E-04    5.19     212.2  T
     SCC iter.                  ...        0 min,  0.993 sec
     gradient                   ...        0 min,  0.416 sec
 * total energy  :   -14.4433109 Eh     change       -0.3691261E-03 Eh
   gradient norm :     0.0090871 Eh/α   predicted    -0.3725695E-03 (   0.93%)
   displ. norm   :     0.1083686 α      lambda       -0.1937329E-03
   maximum displ.:     0.1061893 α      in ANC's #1, #2, #5, ...

........................................................................
.............................. CYCLE    4 ..............................
........................................................................
   1    -14.5722439 -0.145722E+02  0.198E-01    5.19       0.0  T
   2    -14.5722565 -0.125888E-04  0.118E-01    5.18       1.0  T
   3    -14.5722559  0.668669E-06  0.286E-02    5.19       1.2  T
   4    -14.5722573 -0.140886E-05  0.460E-03    5.18       7.7  T
   5    -14.5722573 -0.741975E-07  0.219E-03    5.18      16.1  T
   6    -14.5722573 -0.113777E-08  0.260E-04    5.18     136.1  T
   7    -14.5722573 -0.388791E-10  0.104E-04    5.18     340.4  T
     SCC iter.                  ...        0 min,  1.010 sec
     gradient                   ...        0 min,  0.411 sec
 * total energy  :   -14.4432029 Eh     change        0.1080196E-03 Eh
   gradient norm :     0.0072064 Eh/α   predicted    -0.9800147E-04 (-190.73%)
   displ. norm   :     0.0770272 α      lambda       -0.3181134E-03
   maximum displ.:     0.0753462 α      in ANC's #1, #5, #4, ...

........................................................................
.............................. CYCLE    5 ..............................
........................................................................
   1    -14.5716604 -0.145717E+02  0.140E-01    5.17       0.0  T
   2    -14.5716628 -0.239816E-05  0.839E-02    5.17       1.0  T
   3    -14.5716623  0.451870E-06  0.143E-02    5.17       2.5  T
   4    -14.5716631 -0.794789E-06  0.262E-03    5.17      13.5  T
   5    -14.5716631 -0.785738E-08  0.152E-03    5.17      23.2  T
   6    -14.5716631 -0.708548E-09  0.227E-04    5.17     156.0  T
   7    -14.5716631 -0.440465E-10  0.417E-05    5.17     848.7  T
     SCC iter.                  ...        0 min,  1.000 sec
     gradient                   ...        0 min,  0.392 sec
 * total energy  :   -14.4433630 Eh     change       -0.1600719E-03 Eh
   gradient norm :     0.0067090 Eh/α   predicted    -0.1600018E-03 (  -0.04%)
   displ. norm   :     0.0037923 α      lambda       -0.1145453E-04
   maximum displ.:     0.0016350 α      in ANC's #4, #2, #9, ...

........................................................................
.............................. CYCLE    6 ..............................
........................................................................
   1    -14.5715281 -0.145715E+02  0.788E-03    5.17       0.0  T
   2    -14.5715281 -0.117978E-07  0.448E-03    5.17       7.9  T
   3    -14.5715281 -0.668505E-09  0.676E-04    5.17      52.3  T
   4    -14.5715281 -0.119977E-09  0.168E-04    5.17     209.9  T
     SCC iter.                  ...        0 min,  0.576 sec
     gradient                   ...        0 min,  0.438 sec
 * total energy  :   -14.4433615 Eh     change        0.1502156E-05 Eh
   gradient norm :     0.0121230 Eh/α   predicted    -0.5728583E-05 (-481.36%)
   displ. norm   :     0.0015553 α      lambda       -0.1049563E-04
   maximum displ.:     0.0008028 α      in ANC's #18, #9, #3, ...

........................................................................
.............................. CYCLE    7 ..............................
........................................................................
   1    -14.5715104 -0.145715E+02  0.403E-03    5.17       0.0  T
   2    -14.5715104 -0.360629E-07  0.206E-03    5.17      17.2  T
   3    -14.5715104 -0.131189E-08  0.113E-03    5.17      31.3  T
   4    -14.5715104 -0.281878E-09  0.238E-04    5.17     148.7  T
   5    -14.5715104 -0.175774E-09  0.583E-05    5.17     606.4  T
     SCC iter.                  ...        0 min,  0.773 sec
     gradient                   ...        0 min,  0.426 sec
 * total energy  :   -14.4433671 Eh     change       -0.5670798E-05 Eh
   gradient norm :     0.0007185 Eh/α   predicted    -0.5249236E-05 (  -7.43%)
   displ. norm   :     0.0018712 α      lambda       -0.4072227E-06
   maximum displ.:     0.0011386 α      in ANC's #9, #8, #4, ...

........................................................................
.............................. CYCLE    8 ..............................
........................................................................
   1    -14.5715065 -0.145715E+02  0.515E-03    5.17       0.0  T
   2    -14.5715065 -0.121152E-07  0.280E-03    5.17      12.6  T
   3    -14.5715065  0.239181E-09  0.947E-04    5.17      37.3  T
   4    -14.5715065 -0.975751E-09  0.153E-04    5.17     231.8  T
     SCC iter.                  ...        0 min,  0.683 sec
     gradient                   ...        0 min,  0.362 sec
 * total energy  :   -14.4433674 Eh     change       -0.2985743E-06 Eh
   gradient norm :     0.0005326 Eh/α   predicted    -0.2032987E-06 ( -31.91%)
   displ. norm   :     0.0004044 α      lambda       -0.2805336E-07
   maximum displ.:     0.0003087 α      in ANC's #2, #8, #3, ...

   *** GEOMETRY OPTIMIZATION CONVERGED AFTER 8 ITERATIONS ***

------------------------------------------------------------------------
 total energy gain   :        -0.0034969 Eh       -2.1944 kcal/mol
 total RMSD          :         0.0683078 a0        0.0361 Å
 total power (kW/mol):        -1.1476464 (step)   -0.7611 (real)
------------------------------------------------------------------------

 ANCopt (total)                0 d,  0 h,  0 min, 12.064 sec
 optimizer setup                ...        0 min,  0.009 sec (  0.076%)
 model hessian                  ...        0 min,  0.011 sec (  0.091%)
 ANC generation                 ...        0 min,  0.000 sec (  0.002%)
 coordinate transformation      ...        0 min,  0.000 sec (  0.001%)
 single point calculation       ...        0 min, 11.750 sec ( 97.401%)
 optimization log               ...        0 min,  0.005 sec (  0.038%)
 hessian update                 ...        0 min,  0.286 sec (  2.372%)
 rational function              ...        0 min,  0.001 sec (  0.008%)

================
 final structure:
================
8
 xtb: 6.5.0 (97a52f5)
H           -2.19626001087900        0.84069124818015        0.04172364593533
C           -1.42833568994567        0.10296563435784        0.26270812229160
O           -0.29927831740435        0.42444382041963       -0.54666717463728
C            0.89182660410266        0.11303245410711       -0.06799923642876
H           -1.78584547868334       -0.89697449143359        0.01090538375003
H           -1.15293269911410        0.13259439273844        1.31833026370014
O            1.13022144860369       -0.41297174392082        0.97790602227920
H            1.65554314332011        0.42631167555123       -0.79964501689026

 Bond Distances (Angstroems)
 ---------------------------
H1-C2=1.0876         C2-H1=1.0876         C2-O3=1.4259         C2-H5=1.0914         C2-H6=1.0914         O3-C2=1.4259         
O3-C4=1.3209         C4-O3=1.3209         C4-O7=1.1948         C4-H8=1.1030         H5-C2=1.0914         H6-C2=1.0914         
O7-C4=1.1948         H8-C4=1.1030         
 C  H  Rav=1.0933 sigma=0.0058  Rmin=1.0876  Rmax=1.1030     4
 O  C  Rav=1.3139 sigma=0.0945  Rmin=1.1948  Rmax=1.4259     3

 selected bond angles (degree)
 --------------------
O3-C2-H1=106.91                H5-C2-H1=110.08                H5-C2-O3=109.57                H6-C2-H1=110.87                
H6-C2-O3=110.07                H6-C2-H5=109.31                C4-O3-C2=117.08                O7-C4-O3=126.94                
H8-C4-O3=108.48                H8-C4-O7=124.58                

 selected dihedral angles (degree)
 ---------------------------------
C4-O3-C2-H1=150.01            C4-O3-C2-H5=269.28            C4-O3-C2-H6= 29.52            O7-C4-O3-C2=  0.00            
H8-C4-O3-C2=180.29            
           -------------------------------------------------
          |                Final Singlepoint                |
           -------------------------------------------------

          ...................................................
          :                      SETUP                      :
          :.................................................:
          :  # basis functions                  20          :
          :  # atomic orbitals                  20          :
          :  # shells                           12          :
          :  # electrons                        24          :
          :  max. iterations                   250          :
          :  Hamiltonian                  GFN2-xTB          :
          :  restarted?                      false          :
          :  GBSA solvation                  false          :
          :  PC potential                    false          :
          :  electronic temp.          300.0000000     K    :
          :  accuracy                    1.0000000          :
          :  -> integral cutoff          0.2500000E+02      :
          :  -> integral neglect         0.1000000E-07      :
          :  -> SCF convergence          0.1000000E-05 Eh   :
          :  -> wf. convergence          0.1000000E-03 e    :
          :  Broyden damping             0.4000000          :
          ...................................................

 iter      E             dE          RMSdq      gap      omega  full diag
   1    -14.5715065 -0.145715E+02  0.612E-05    5.17       0.0  T
   2    -14.5715065 -0.136602E-11  0.370E-05    5.17     954.8  T
   3    -14.5715065 -0.515143E-12  0.866E-06    5.17    4084.5  T

   *** convergence criteria satisfied after 3 iterations ***

         #    Occupation            Energy/Eh            Energy/eV
      -------------------------------------------------------------
         1        2.0000           -0.7602241             -20.6868
       ...           ...                  ...                  ...
         6        2.0000           -0.6016021             -16.3704
         7        2.0000           -0.5734282             -15.6038
         8        2.0000           -0.5284351             -14.3795
         9        2.0000           -0.5206332             -14.1672
        10        2.0000           -0.4880863             -13.2815
        11        2.0000           -0.4619934             -12.5715
        12        2.0000           -0.4347398             -11.8299 (HOMO)
        13                         -0.2447767              -6.6607 (LUMO)
        14                          0.0076777               0.2089
        15                          0.1211608               3.2970
        16                          0.1449334               3.9438
        17                          0.1798628               4.8943
       ...                                ...                  ...
        20                          0.6478858              17.6299
      -------------------------------------------------------------
                  HL-Gap            0.1899631 Eh            5.1692 eV
             Fermi-level           -0.3397583 Eh           -9.2453 eV

 SCC (total)                   0 d,  0 h,  0 min,  1.044 sec
 SCC setup                      ...        0 min,  0.028 sec (  2.672%)
 Dispersion                     ...        0 min,  0.079 sec (  7.571%)
 classical contributions        ...        0 min,  0.037 sec (  3.510%)
 integral evaluation            ...        0 min,  0.123 sec ( 11.798%)
 iterations                     ...        0 min,  0.393 sec ( 37.629%)
 molecular gradient             ...        0 min,  0.384 sec ( 36.775%)
 printout                       ...        0 min,  0.000 sec (  0.015%)

         :::::::::::::::::::::::::::::::::::::::::::::::::::::
         ::                     SUMMARY                     ::
         :::::::::::::::::::::::::::::::::::::::::::::::::::::
         :: total energy             -14.443367446037 Eh    ::
         :: gradient norm              0.000532673255 Eh/a0 ::
         :: HOMO-LUMO gap              5.169157714752 eV    ::
         ::.................................................::
         :: SCC energy               -14.571506533962 Eh    ::
         :: -> isotropic ES            0.038155062549 Eh    ::
         :: -> anisotropic ES          0.001819651213 Eh    ::
         :: -> anisotropic XC          0.000736527051 Eh    ::
         :: -> dispersion             -0.002866575327 Eh    ::
         :: repulsion energy           0.128138688557 Eh    ::
         :: add. restraining           0.000000035783 Eh    ::
         :: total charge              -0.000000000000 e     ::
         :::::::::::::::::::::::::::::::::::::::::::::::::::::

           -------------------------------------------------
          |                Property Printout                |
           -------------------------------------------------

    * Orbital Energies and Occupations

         #    Occupation            Energy/Eh            Energy/eV
      -------------------------------------------------------------
         1        2.0000           -0.7602241             -20.6868
         2        2.0000           -0.7307170             -19.8838
         3        2.0000           -0.6874585             -18.7067
         4        2.0000           -0.6223913             -16.9361
         5        2.0000           -0.6041235             -16.4390
         6        2.0000           -0.6016021             -16.3704
         7        2.0000           -0.5734282             -15.6038
         8        2.0000           -0.5284351             -14.3795
         9        2.0000           -0.5206332             -14.1672
        10        2.0000           -0.4880863             -13.2815
        11        2.0000           -0.4619934             -12.5715
        12        2.0000           -0.4347398             -11.8299 (HOMO)
        13                         -0.2447767              -6.6607 (LUMO)
        14                          0.0076777               0.2089
        15                          0.1211608               3.2970
        16                          0.1449334               3.9438
        17                          0.1798628               4.8943
        18                          0.1866284               5.0784
        19                          0.2751922               7.4884
        20                          0.6478858              17.6299
      -------------------------------------------------------------
                  HL-Gap            0.1899631 Eh            5.1692 eV
             Fermi-level           -0.3397583 Eh           -9.2453 eV

     #   Z          covCN         q      C6AA      α(0)
     1   1 H        0.925     0.074     2.041     2.234
     2   6 C        3.655     0.023    20.490     6.498
     3   8 O        1.703    -0.237    17.933     5.717
     4   6 C        2.666     0.337    21.271     7.546
     5   1 H        0.924     0.067     2.115     2.274
     6   1 H        0.924     0.077     2.007     2.215
     7   8 O        0.856    -0.373    21.156     6.167
     8   1 H        0.923     0.032     2.558     2.501

 Mol. C6AA /au·bohr⁶  :        565.873708
 Mol. C8AA /au·bohr⁸  :      11876.894866
 Mol. α(0) /au        :         35.153560


Wiberg/Mayer (AO) data.
largest (>0.10) Wiberg bond orders for each atom

 ---------------------------------------------------------------------------
     #   Z sym  total        # sym  WBO       # sym  WBO       # sym  WBO
 ---------------------------------------------------------------------------
     1   1 H    0.995 --     2 C    0.980
     2   6 C    3.918 --     1 H    0.980     6 H    0.976     5 H    0.976
                             3 O    0.948
     3   8 O    2.344 --     4 C    1.179     2 C    0.948     7 O    0.197
     4   6 C    3.922 --     7 O    1.800     3 O    1.179     8 H    0.915
     5   1 H    0.995 --     2 C    0.976
     6   1 H    0.994 --     2 C    0.976
     7   8 O    2.070 --     4 C    1.800     3 O    0.197
     8   1 H    0.999 --     4 C    0.915
 ---------------------------------------------------------------------------

Topologies differ in total number of bonds
Writing topology from bond orders to xtbtopo.mol

molecular dipole:
                 x           y           z       tot (Debye)
 q only:       -0.759       0.226      -0.325
   full:       -0.747       0.277      -0.453       2.329
molecular quadrupole (traceless):
                xx          xy          yy          xz          yz          zz
 q only:        2.528       1.162      -0.510      -3.473       1.116      -2.018
  q+dip:        1.841       1.637       0.437      -4.055       1.845      -2.278
   full:        1.993       1.719       0.622      -4.248       2.202      -2.614

           -------------------------------------------------
          |                Geometry Summary                 |
           -------------------------------------------------

      molecular mass/u    :       60.0520446
   center of mass at/Å    :        0.0556784       0.0546935       0.1634251
  moments of inertia/u·Å² :        0.2419360E+02   0.7451822E+02   0.9552113E+02
rotational constants/cm⁻¹ :        0.6967808E+00   0.2262216E+00   0.1764807E+00

 * 7 selected distances

     #   Z          #   Z                                           value/Å
     1   1 H        2   6 C                                       1.0875574 (min)
     2   6 C        3   8 O                                       1.4259059 (max)
     3   8 O        4   6 C                                       1.3209206
     2   6 C        5   1 H                                       1.0913745
     2   6 C        6   1 H                                       1.0913583
     4   6 C        7   8 O                                       1.1947513
     4   6 C        8   1 H                                       1.1030470

 * 2 distinct bonds (by element types)

   Z      Z             #   av. dist./Å        max./Å        min./Å
   1 H    6 C           4     1.0933343     1.1030470     1.0875574
   6 C    8 O           3     1.3138593     1.4259059     1.1947513


optimized geometry written to: xtbopt.xyz


           -------------------------------------------------
          | TOTAL ENERGY              -14.443367446037 Eh   |
          | GRADIENT NORM               0.000532673255 Eh/α |
          | HOMO-LUMO GAP               5.169157714752 eV   |
           -------------------------------------------------
########################################################################
[WARNING] Runtime exception occurred
-1- restart_readRestart: Number of electron missmatch in restart file.
########################################################################

------------------------------------------------------------------------
 * finished run on 2023/11/18 at 08:08:12.930     
------------------------------------------------------------------------
 total:
 * wall-time:     0 d,  0 h,  0 min, 15.673 sec
 *  cpu-time:     0 d,  0 h,  3 min, 58.222 sec
 * ratio c/w:    15.200 speedup
 SCF:
 * wall-time:     0 d,  0 h,  0 min,  1.950 sec
 *  cpu-time:     0 d,  0 h,  0 min, 27.844 sec
 * ratio c/w:    14.277 speedup
 ANC optimizer:
 * wall-time:     0 d,  0 h,  0 min, 13.141 sec
 *  cpu-time:     0 d,  0 h,  3 min, 25.777 sec
 * ratio c/w:    15.659 speedup

