8
 energy: -14.439870522537 gnorm: 0.057230166420 xtb: 6.5.0 (97a52f5)
H           -2.24571876000000        0.83183479000000        0.06811644000000
C           -1.45604791000000        0.10621311000000        0.26342867000000
O           -0.30577876000000        0.43911162000000       -0.57306406000000
C            0.93105334000000        0.11111166000000       -0.07377859000000
H           -1.79373300000000       -0.89865804000000        0.00867022000000
H           -1.17500936000000        0.14775485000000        1.31663237000000
O            1.16213987000000       -0.42480033000000        0.98743475000000
H            1.69803358000000        0.41752533000000       -0.80017779000000
8
 energy: -14.442941800405 gnorm: 0.022144947646 xtb: 6.5.0 (97a52f5)
H           -2.20594596743138        0.83855537305871        0.04977453336810
C           -1.43620161797992        0.10078487186974        0.26638806918966
O           -0.30583534199601        0.43275762256031       -0.55858224374930
C            0.90212497408332        0.11370108473155       -0.06824666679556
H           -1.78144453353867       -0.89999720514352        0.00791875100122
H           -1.14785285266461        0.13850960722995        1.31721104831544
O            1.12489844765894       -0.41440867995967        0.97853978237340
H            1.66519589186834        0.42019031565293       -0.79574126370296
8
 energy: -14.443310926461 gnorm: 0.009087236497 xtb: 6.5.0 (97a52f5)
H           -2.19234149659195        0.84173852521128        0.04060982360843
C           -1.42775612368776        0.10186796347246        0.26429360750648
O           -0.30066688722617        0.42029006606638       -0.55125214520718
C            0.89190283568361        0.10696369602627       -0.07033867928533
H           -1.78450185118476       -0.89762993892880        0.01454061829670
H           -1.14536882021173        0.13603398146805        1.31683156637022
O            1.12014508508412       -0.41549433309138        0.97630445612069
H            1.65352625813465        0.43632302977574       -0.79372723741001
8
 energy: -14.443202906889 gnorm: 0.007206811866 xtb: 6.5.0 (97a52f5)
H           -2.19545073247030        0.83818176882597        0.04311365203202
C           -1.42641424754276        0.10204738102945        0.26233614806445
O           -0.29698155271569        0.43754285449750       -0.53785888715080
C            0.89192268080478        0.12896785763084       -0.05950491663692
H           -1.77926421573998       -0.89687545207795        0.00237867430839
H           -1.15433695226351        0.12389500766120        1.31872289915537
O            1.12595894952009       -0.40568224327186        0.98182977188154
H            1.64950507040737        0.40201581570485       -0.81375533165406
8
 energy: -14.443362978748 gnorm: 0.006709142518 xtb: 6.5.0 (97a52f5)
H           -2.19549065986481        0.84072038830828        0.04135203198664
C           -1.42812874582474        0.10282339116410        0.26282727889651
O           -0.29883591257381        0.42449529991945       -0.54637373438154
C            0.89276342584077        0.11278950074933       -0.06776045995217
H           -1.78547271221905       -0.89684711020498        0.01101754035819
H           -1.15229118275729        0.13231560522258        1.31813031158649
O            1.12841943206908       -0.41307982561656        0.97864152014959
H            1.65397535532985        0.42687574045780       -0.80057247864371
8
 energy: -14.443361476592 gnorm: 0.012123283659 xtb: 6.5.0 (97a52f5)
H           -2.19594229405119        0.84079511973673        0.04157781615596
C           -1.42831162141301        0.10303547345108        0.26285987248676
O           -0.29912351653744        0.42387826717295       -0.54679785455860
C            0.89251189878107        0.11304078153838       -0.06779986498099
H           -1.78586055043560       -0.89680320476525        0.01084589637093
H           -1.15275247699744        0.13242819006738        1.31840235488851
O            1.12955265826377       -0.41311298081808        0.97827518092525
H            1.65486490238983        0.42683134361680       -0.80010139128781
8
 energy: -14.443367147390 gnorm: 0.000718490077 xtb: 6.5.0 (97a52f5)
H           -2.19603708436971        0.84075698356009        0.04155583028403
C           -1.42828357797217        0.10297614485501        0.26273158811706
O           -0.29911761177242        0.42422365704850       -0.54655520907628
C            0.89221830456413        0.11289071434262       -0.06793702270361
H           -1.78591101571318       -0.89692511263647        0.01093712075743
H           -1.15296756185843        0.13254344479128        1.31837637899579
O            1.12994406893290       -0.41307895318537        0.97813938762225
H            1.65509347818888        0.42670611122433       -0.79998606399666
8
 energy: -14.443367445964 gnorm: 0.000532592375 xtb: 6.5.0 (97a52f5)
H           -2.19626001087900        0.84069124818015        0.04172364593533
C           -1.42833568994567        0.10296563435784        0.26270812229160
O           -0.29927831740435        0.42444382041963       -0.54666717463728
C            0.89182660410266        0.11303245410711       -0.06799923642876
H           -1.78584547868334       -0.89697449143359        0.01090538375003
H           -1.15293269911410        0.13259439273844        1.31833026370014
O            1.13022144860369       -0.41297174392082        0.97790602227920
H            1.65554314332011        0.42631167555123       -0.79964501689026
