Generated by Psi4
        SP                        DF-MP2                      6-311G**
Number of atoms                            I                8
Charge                                     I                0
Multiplicity                               I                1
Number of electrons                        I               32
Number of alpha electrons                  I               16
Number of beta electrons                   I               16
Number of basis functions                  I               96
Number of independent functions            I               96
Atomic numbers                             I   N=           8
           1           6           8           6           1           1
           8           1
Nuclear charges                            R   N=           8
  1.00000000e+00  6.00000000e+00  8.00000000e+00  6.00000000e+00  1.00000000e+00
  1.00000000e+00  8.00000000e+00  1.00000000e+00
Current cartesian coordinates              R   N=          24
 -3.35132334e+00 -3.08327363e-01 -8.26568745e-01 -2.57921647e+00  4.31500509e-01
  9.34861284e-01 -1.77888329e-01  1.63884341e+00  4.81647750e-01  1.59140882e+00
  9.08189421e-02 -4.84906225e-01 -2.36063490e+00 -1.11126693e+00  2.28330206e+00
 -3.78573385e+00  1.90768698e+00  1.70042725e+00  1.30654251e+00 -2.13445059e+00
 -9.69821303e-01  3.34678770e+00  1.15838461e+00 -7.67029827e-01
Integer atomic weights                     I   N=           8
           1          12          16          12           1           1
          16           1
Real atomic weights                        R   N=           8
  1.00782503e+00  1.20000000e+01  1.59949146e+01  1.20000000e+01  1.00782503e+00
  1.00782503e+00  1.59949146e+01  1.00782503e+00
Number of primitive shells                 I               92
Number of contracted shells                I               48
Pure/Cartesian d shells                    I                0
Pure/Cartesian f shells                    I                0
Highest angular momentum                   I                2
Largest degree of contraction              I                6
Shell types                                I   N=          48
           0           0           0           1           0           0
           1           0           1           0           1          -2
           0           0           1           0           1           0
           1          -2           0           0           1           0
           1           0           1          -2           0           0
           0           1           0           0           0           1
           0           0           1           0           1           0
           1          -2           0           0           0           1
Number of primitives per shell             I   N=          48
           3           1           1           1           6           3
           3           1           1           1           1           1
           6           3           3           1           1           1
           1           1           6           3           3           1
           1           1           1           1           3           1
           1           1           3           1           1           1
           6           3           3           1           1           1
           1           1           3           1           1           1
Shell to atom map                          I   N=          48
           1           1           1           1           2           2
           2           2           2           2           2           2
           3           3           3           3           3           3
           3           3           4           4           4           4
           4           4           4           4           5           5
           5           5           6           6           6           6
           7           7           7           7           7           7
           7           7           8           8           8           8
Primitive exponents                        R   N=          92
  3.38650000e+01  5.09479000e+00  1.15879000e+00  3.25840000e-01  1.02741000e-01
  7.50000000e-01  4.56324000e+03  6.82024000e+02  1.54973000e+02  4.44553000e+01
  1.30290000e+01  1.82773000e+00  2.09642000e+01  4.80331000e+00  1.45933000e+00
  2.09642000e+01  4.80331000e+00  1.45933000e+00  4.83456000e-01  4.83456000e-01
  1.45585000e-01  1.45585000e-01  6.26000000e-01  8.58850000e+03  1.29723000e+03
  2.99296000e+02  8.73771000e+01  2.56789000e+01  3.74004000e+00  4.21175000e+01
  9.62837000e+00  2.85332000e+00  4.21175000e+01  9.62837000e+00  2.85332000e+00
  9.05661000e-01  9.05661000e-01  2.55611000e-01  2.55611000e-01  1.29200000e+00
  4.56324000e+03  6.82024000e+02  1.54973000e+02  4.44553000e+01  1.30290000e+01
  1.82773000e+00  2.09642000e+01  4.80331000e+00  1.45933000e+00  2.09642000e+01
  4.80331000e+00  1.45933000e+00  4.83456000e-01  4.83456000e-01  1.45585000e-01
  1.45585000e-01  6.26000000e-01  3.38650000e+01  5.09479000e+00  1.15879000e+00
  3.25840000e-01  1.02741000e-01  7.50000000e-01  3.38650000e+01  5.09479000e+00
  1.15879000e+00  3.25840000e-01  1.02741000e-01  7.50000000e-01  8.58850000e+03
  1.29723000e+03  2.99296000e+02  8.73771000e+01  2.56789000e+01  3.74004000e+00
  4.21175000e+01  9.62837000e+00  2.85332000e+00  4.21175000e+01  9.62837000e+00
  2.85332000e+00  9.05661000e-01  9.05661000e-01  2.55611000e-01  2.55611000e-01
  1.29200000e+00  3.38650000e+01  5.09479000e+00  1.15879000e+00  3.25840000e-01
  1.02741000e-01  7.50000000e-01
Contraction coefficients                   R   N=          92
  2.54938145e-02  1.90373109e-01  8.52161486e-01  1.00000000e+00  1.00000000e+00
  1.00000000e+00  1.96665025e-03  1.52306019e-02  7.61269097e-02  2.60801033e-01
  6.16462078e-01  2.21006028e-01  1.14660081e-01  9.19999648e-01 -3.03068213e-03
  4.02486927e-02  2.37593957e-01  8.15853851e-01  1.00000000e+00  1.00000000e+00
  1.00000000e+00  1.00000000e+00  1.00000000e+00  1.89515008e-03  1.43859006e-02
  7.07320031e-02  2.40001011e-01  5.94797026e-01  2.80802012e-01  1.13889012e-01
  9.20811101e-01 -3.27447036e-03  3.65113974e-02  2.37152983e-01  8.19701941e-01
  1.00000000e+00  1.00000000e+00  1.00000000e+00  1.00000000e+00  1.00000000e+00
  1.96665025e-03  1.52306019e-02  7.61269097e-02  2.60801033e-01  6.16462078e-01
  2.21006028e-01  1.14660081e-01  9.19999648e-01 -3.03068213e-03  4.02486927e-02
  2.37593957e-01  8.15853851e-01  1.00000000e+00  1.00000000e+00  1.00000000e+00
  1.00000000e+00  1.00000000e+00  2.54938145e-02  1.90373109e-01  8.52161486e-01
  1.00000000e+00  1.00000000e+00  1.00000000e+00  2.54938145e-02  1.90373109e-01
  8.52161486e-01  1.00000000e+00  1.00000000e+00  1.00000000e+00  1.89515008e-03
  1.43859006e-02  7.07320031e-02  2.40001011e-01  5.94797026e-01  2.80802012e-01
  1.13889012e-01  9.20811101e-01 -3.27447036e-03  3.65113974e-02  2.37152983e-01
  8.19701941e-01  1.00000000e+00  1.00000000e+00  1.00000000e+00  1.00000000e+00
  1.00000000e+00  2.54938145e-02  1.90373109e-01  8.52161486e-01  1.00000000e+00
  1.00000000e+00  1.00000000e+00
Coordinates of each shell                  R   N=         144
 -3.35132334e+00 -3.08327363e-01 -8.26568745e-01 -3.35132334e+00 -3.08327363e-01
 -8.26568745e-01 -3.35132334e+00 -3.08327363e-01 -8.26568745e-01 -3.35132334e+00
 -3.08327363e-01 -8.26568745e-01 -2.57921647e+00  4.31500509e-01  9.34861284e-01
 -2.57921647e+00  4.31500509e-01  9.34861284e-01 -2.57921647e+00  4.31500509e-01
  9.34861284e-01 -2.57921647e+00  4.31500509e-01  9.34861284e-01 -2.57921647e+00
  4.31500509e-01  9.34861284e-01 -2.57921647e+00  4.31500509e-01  9.34861284e-01
 -2.57921647e+00  4.31500509e-01  9.34861284e-01 -2.57921647e+00  4.31500509e-01
  9.34861284e-01 -1.77888329e-01  1.63884341e+00  4.81647750e-01 -1.77888329e-01
  1.63884341e+00  4.81647750e-01 -1.77888329e-01  1.63884341e+00  4.81647750e-01
 -1.77888329e-01  1.63884341e+00  4.81647750e-01 -1.77888329e-01  1.63884341e+00
  4.81647750e-01 -1.77888329e-01  1.63884341e+00  4.81647750e-01 -1.77888329e-01
  1.63884341e+00  4.81647750e-01 -1.77888329e-01  1.63884341e+00  4.81647750e-01
  1.59140882e+00  9.08189421e-02 -4.84906225e-01  1.59140882e+00  9.08189421e-02
 -4.84906225e-01  1.59140882e+00  9.08189421e-02 -4.84906225e-01  1.59140882e+00
  9.08189421e-02 -4.84906225e-01  1.59140882e+00  9.08189421e-02 -4.84906225e-01
  1.59140882e+00  9.08189421e-02 -4.84906225e-01  1.59140882e+00  9.08189421e-02
 -4.84906225e-01  1.59140882e+00  9.08189421e-02 -4.84906225e-01 -2.36063490e+00
 -1.11126693e+00  2.28330206e+00 -2.36063490e+00 -1.11126693e+00  2.28330206e+00
 -2.36063490e+00 -1.11126693e+00  2.28330206e+00 -2.36063490e+00 -1.11126693e+00
  2.28330206e+00 -3.78573385e+00  1.90768698e+00  1.70042725e+00 -3.78573385e+00
  1.90768698e+00  1.70042725e+00 -3.78573385e+00  1.90768698e+00  1.70042725e+00
 -3.78573385e+00  1.90768698e+00  1.70042725e+00  1.30654251e+00 -2.13445059e+00
 -9.69821303e-01  1.30654251e+00 -2.13445059e+00 -9.69821303e-01  1.30654251e+00
 -2.13445059e+00 -9.69821303e-01  1.30654251e+00 -2.13445059e+00 -9.69821303e-01
  1.30654251e+00 -2.13445059e+00 -9.69821303e-01  1.30654251e+00 -2.13445059e+00
 -9.69821303e-01  1.30654251e+00 -2.13445059e+00 -9.69821303e-01  1.30654251e+00
 -2.13445059e+00 -9.69821303e-01  3.34678770e+00  1.15838461e+00 -7.67029827e-01
  3.34678770e+00  1.15838461e+00 -7.67029827e-01  3.34678770e+00  1.15838461e+00
 -7.67029827e-01  3.34678770e+00  1.15838461e+00 -7.67029827e-01
Total Energy                               R     -2.285281433447383e+02
Alpha Orbital Energies                     R   N=          96
 -2.06098943e+01 -2.05521621e+01 -1.13873510e+01 -1.12924489e+01 -1.46295130e+00
 -1.36339738e+00 -9.88040201e-01 -8.20201610e-01 -7.35116551e-01 -6.76788555e-01
 -6.72540143e-01 -5.93010975e-01 -5.50547831e-01 -5.37725377e-01 -4.66699558e-01
 -4.62460236e-01  1.63781736e-01  1.67697673e-01  1.79452942e-01  2.17178800e-01
  2.30223789e-01  2.74394232e-01  3.81444030e-01  4.35173704e-01  4.53365146e-01
  4.90653565e-01  5.76313162e-01  5.96936915e-01  6.71004192e-01  6.98513315e-01
  7.40615763e-01  7.70686010e-01  7.89542879e-01  8.08064991e-01  8.57839634e-01
  8.98837138e-01  9.84284669e-01  1.07580767e+00  1.08880580e+00  1.11119316e+00
  1.15964373e+00  1.24599180e+00  1.33045719e+00  1.37841256e+00  1.47291242e+00
  1.61167781e+00  1.61703270e+00  1.66255019e+00  1.68863196e+00  1.71504685e+00
  1.73335279e+00  1.80392776e+00  1.81333136e+00  1.85460421e+00  1.93047620e+00
  2.01267818e+00  2.07031162e+00  2.07363304e+00  2.24172856e+00  2.35325356e+00
  2.36498271e+00  2.48731998e+00  2.58888501e+00  2.64335956e+00  2.70459399e+00
  2.77501744e+00  2.80124953e+00  2.83296884e+00  2.86069848e+00  2.89471480e+00
  3.13082705e+00  3.21312241e+00  3.22479852e+00  3.33171518e+00  3.38081868e+00
  3.40780797e+00  3.57052261e+00  3.58280281e+00  3.74626288e+00  3.80940068e+00
  3.93705329e+00  4.14229392e+00  4.14451470e+00  4.20342807e+00  4.38888498e+00
  4.41770803e+00  5.39193022e+00  5.44818544e+00  5.54365096e+00  5.73861408e+00
  6.09583380e+00  6.29416456e+00  2.49307044e+01  2.50062940e+01  5.15493073e+01
  5.16386869e+01
Alpha MO coefficients                      R   N=        9216
  1.44797697e-05 -1.05768279e-04 -2.69954010e-06 -2.60021361e-05 -1.57932460e-05
  4.77370543e-06 -2.16056188e-06 -2.64726287e-05  1.63130973e-05  2.56141767e-05
  1.43607658e-06  6.15939961e-05  2.17889030e-04  3.51040730e-05 -6.03895313e-05
  4.52470386e-04  1.62299245e-04  7.29339701e-05 -3.27719335e-05 -3.28411229e-05
 -3.07478601e-05 -3.08089772e-05  9.32327194e-05  6.85695459e-05  5.51466246e-01
  4.71663305e-01 -2.05763223e-04 -1.59691804e-03 -3.49013892e-04  5.63701619e-03
  1.06429008e-04  5.91061882e-04  1.19548229e-04 -1.07890496e-03 -1.54404389e-05
  3.79778383e-05  1.46940779e-05  7.47033187e-05  7.22286517e-05 -2.01393743e-05
 -7.31588441e-05 -5.86156172e-06 -3.44680640e-06 -3.55094417e-05 -2.08515877e-05
  3.04824443e-05  1.45628610e-05  1.55224872e-04 -2.31192162e-04  1.32992746e-04
  1.08260581e-04  3.01269581e-04 -9.58091320e-05  2.61167724e-04  9.84207361e-05
 -2.23522014e-06 -6.64902220e-05  2.16806019e-05  8.59380762e-05 -1.12719335e-04
  1.44659790e-05 -1.05815175e-04 -2.78731364e-06 -2.62844201e-05 -1.55382436e-05
  3.82120574e-06  2.45672078e-05 -4.82796300e-05 -5.62761637e-06  1.51328821e-05
 -2.17057463e-05 -1.04260981e-05 -1.59085580e-04 -1.39896633e-04  9.90318774e-06
 -1.25609084e-05 -6.41827101e-06  2.62780574e-05 -1.30189148e-05  4.18621603e-05
  1.50107497e-05  7.17084551e-05  9.43941739e-05 -2.03944033e-05 -3.55269181e-05
 -4.11355782e-06  4.89504716e-06  1.23895548e-06 -1.23916471e-05  1.08752256e-05
  1.60046321e-05 -5.74485310e-05 -2.58639442e-05 -1.47733263e-05 -1.82235971e-05
 -3.40093832e-08  1.33132564e-05 -9.06712638e-05 -1.16108465e-05 -1.87584064e-05
  2.37110330e-06 -1.00496570e-05  1.23949294e-06 -3.48166664e-06 -5.41768079e-06
 -6.61429208e-06  8.85860922e-09  1.73081259e-05  3.39245017e-05  1.90477793e-05
 -5.81850269e-06  1.69769116e-04  3.68539550e-05 -5.15262663e-05 -2.48941143e-05
  5.13172080e-06  1.16413014e-05 -1.03134583e-05 -3.07454906e-06  2.23841328e-05
  1.61921145e-04  1.35546071e-04  1.82583189e-06  1.32660174e-05  2.84589160e-06
  3.35278774e-05 -1.84674179e-05 -2.66460113e-05 -9.85204415e-07 -9.60564273e-05
  1.47788277e-04  1.43898619e-04 -9.98910568e-06  3.45957885e-06 -2.34207800e-06
  2.59712806e-06  1.39014063e-06 -1.29521589e-05  4.78307876e-06 -7.21389274e-05
 -1.41617036e-05 -7.57005681e-05 -1.50774945e-05  2.89066260e-04 -6.73228428e-05
 -3.82321007e-04 -7.75006936e-05  4.17097063e-04 -1.78000692e-04 -4.67535188e-04
 -6.42675610e-05 -4.97977151e-05  2.92571110e-05  5.66779743e-05 -1.61260598e-04
  2.73292887e-05  1.33216289e-05 -9.07747729e-05 -1.17431582e-05 -9.66395408e-06
 -5.03173818e-06  1.84851320e-05  2.98967656e-07  1.89883356e-05  2.77138532e-06
  6.47454846e-06 -7.18203883e-06 -3.93440467e-06  5.51478714e-01  4.71695953e-01
  1.42958367e-04  1.69776424e-03  3.93382163e-04  5.42939243e-03 -5.69584896e-05
 -5.95663608e-04 -1.35810335e-04 -9.79216713e-04  2.02440680e-05 -1.06285921e-04
 -3.40031360e-05 -1.04072312e-04 -8.74348897e-05  3.67951036e-05  6.41160726e-05
  9.59652955e-06 -5.58478558e-06  1.21982123e-04  5.91447341e-05 -4.12282341e-05
  4.22555033e-06  1.41899897e-05 -4.91606559e-06  5.00870522e-05 -8.69988742e-06
  1.28450205e-06  4.60948299e-06  6.45037291e-06 -5.89149739e-05 -4.55890999e-05
 -5.44142447e-06 -4.01527232e-06  6.91633650e-07  2.36552944e-06 -3.14938170e-05
  1.99245286e-06  1.05760994e-05 -3.41425392e-04 -1.36869579e-04 -2.83669128e-05
  3.62730246e-05 -7.36811381e-07  4.27808701e-06 -8.61742237e-07 -6.69219462e-06
  7.85283621e-06 -9.54325049e-05 -1.69521344e-04  9.76704237e-05 -8.57402623e-05
 -5.34097646e-05  4.10713284e-04  3.98347963e-04 -3.89634632e-04 -2.28296405e-04
  1.94366850e-04 -1.45977647e-04 -2.71410025e-05  3.96086121e-05 -3.85936986e-05
 -7.54090816e-05  9.55299048e-05 -2.78556983e-05 -1.82470602e-04  5.63547134e-01
  4.66645798e-01 -8.20975189e-04  3.19841017e-04  3.43803419e-04  3.41758516e-03
  5.01269141e-04 -5.41203732e-04 -2.99236239e-04  2.09378091e-04 -3.78240835e-04
 -1.96599368e-04  6.94428898e-05 -3.74238250e-04 -6.65928646e-05  1.78600181e-04
 -2.94903873e-04  2.60641671e-04 -4.91729828e-06  5.01126858e-05 -8.53609827e-06
 -1.76818955e-06  7.12103664e-06 -3.25655681e-06  1.83500849e-06  4.71366459e-05
  4.78473186e-06  6.15830284e-06 -4.49468216e-06 -3.12597607e-06 -1.88274685e-04
 -2.82500621e-04  4.42405989e-05  2.90499019e-04  6.11069915e-05  5.66377721e-04
  5.89285890e-05  4.45058898e-04  9.64155131e-05 -5.70186001e-04 -5.23657679e-06
 -3.07441650e-04 -7.77774914e-05 -4.59295963e-05  3.86327384e-05  5.56699875e-05
 -1.75238903e-04  3.39259915e-05  3.33009413e-04 -3.23252152e-05  2.94101687e-04
  9.13013076e-06 -2.20396045e-05 -8.67779273e-06  3.32102123e-04  9.79906745e-05
  2.76935345e-04  3.14735318e-05  1.26374013e-05 -3.55950781e-05  5.63461017e-01
  4.66567805e-01  1.10953076e-03  5.43115264e-04 -2.13136431e-04  4.07377752e-03
 -8.19407154e-04 -4.13977912e-04  1.53991105e-04 -1.40693418e-03  5.86919617e-05
  8.95108639e-05  4.44812319e-06  1.65004344e-04  1.03746929e-04  5.44272868e-05
 -2.16889137e-04 -2.41769527e-04 -6.28611342e-05 -1.12447645e-04 -6.64944655e-05
 -4.02194067e-05  1.07870424e-05  2.17511822e-04 -4.88457007e-04 -2.41205250e-04
  9.33240238e-05  6.04678114e-04 -1.66808217e-04 -1.66810145e-04  9.99570587e-06
 -1.13428819e-04 -5.40830118e-05 -2.97585863e-05  1.05560140e-04  1.74864609e-04
  6.24867087e-05  5.88834103e-05  4.80422252e-06 -8.99839184e-06 -3.86134433e-06
 -6.93853335e-05  4.35044118e-05  1.56907031e-05 -9.84529992e-06 -1.16437988e-04
 -3.73148792e-05 -5.61226832e-05 -2.69609962e-06 -6.51856767e-06 -5.74629292e-06
  1.05203491e-05 -8.54382980e-06 -1.31316423e-05  3.32104413e-04  9.81579073e-05
  2.76872045e-04  4.72255175e-05 -5.89093715e-08  1.36922873e-05  3.43417669e-04
  7.86763257e-05  2.48926624e-04  3.11335696e-05  3.47347370e-05 -9.57710728e-07
  1.07772016e-06  3.30808172e-06 -1.40284607e-06 -1.24263200e-07  4.21085582e-07
 -2.15554289e-05  1.02100001e-05 -8.55082658e-06 -5.48272138e-06  2.88380356e-05
 -2.06265467e-05  4.15245709e-05  1.73940131e-05 -2.59886462e-06 -2.29200140e-06
  4.13971584e-06 -3.30715225e-06 -5.15330057e-06 -5.00594111e-06  6.27938722e-05
  3.88480253e-05 -1.13197138e-05 -1.22802108e-06  3.29297846e-06  8.90270256e-03
  2.47740456e-02  3.96841483e-04  3.42965181e-03  2.17686849e-03  5.19559040e-03
 -2.33201422e-02 -3.79421258e-02  2.36026130e-02  9.20965924e-03 -5.14435856e-03
  9.40985107e-02  4.73883917e-02  1.84311480e-02 -1.03473948e-02 -1.93726126e-02
 -8.80024365e-03  5.38425277e-05  2.81281812e-03 -9.09115904e-03 -6.34713517e-03
 -1.91400810e-03  1.13841184e-02  1.07903175e-02 -8.81221248e-02 -1.47180670e-01
  6.95725104e-03 -3.15065129e-02 -1.03940076e-02  4.17093548e-01  1.06051915e-02
 -5.61726221e-02 -1.79597628e-02  3.27358115e-01 -6.17566155e-03 -3.55183711e-02
 -7.23966301e-03 -5.08219207e-03 -4.45448707e-03  3.67613395e-03  4.83664458e-04
 -2.82163708e-03 -5.89945628e-02 -9.60024127e-02 -3.57925054e-02 -1.47197876e-02
  7.63666510e-03  2.46626755e-01 -6.25336381e-02 -1.31262663e-02  1.65854268e-02
  3.18656069e-02  7.53920526e-03  4.16762047e-03 -1.33722434e-03 -1.21086594e-02
 -9.62239409e-03  1.42255059e-02 -9.35884675e-03 -1.44668721e-02  8.89892798e-03
  2.47738402e-02  4.02030799e-04  3.06236994e-04  4.70982743e-03 -4.61028841e-03
  8.32154031e-03  1.92242243e-02 -7.14103111e-04  3.69414199e-03 -3.48516750e-03
 -2.07684732e-03 -5.35853805e-02 -8.93414608e-02 -6.26662382e-05  3.49491694e-02
  9.06853009e-03  2.50961867e-01 -1.30636559e-04  5.75143318e-02  1.49312570e-02
  1.79313421e-01 -5.01340589e-03  2.58831124e-02  8.30534597e-03 -4.08694808e-03
  1.65406439e-04  4.55219988e-03 -8.98256116e-03 -3.23268757e-04  1.79925702e-02
  2.39191263e-02 -6.69762407e-03 -6.86671753e-03 -4.83840804e-03  9.34096387e-04
  7.20692298e-03  1.38119368e-02 -1.90570719e-03  1.61508761e-03  1.98482285e-03
  3.75549934e-03 -1.90254460e-02 -3.12246736e-02  1.75062103e-02  9.73204923e-03
 -3.06344735e-03  7.78908007e-02  3.84788459e-02  2.07385193e-02 -6.90061011e-03
  1.11391808e-02 -1.40701191e-03  6.65261947e-04  6.21934481e-04 -7.19291707e-03
 -4.15507738e-03 -2.14309428e-03  8.42056323e-03  1.06188442e-02 -6.45660864e-02
 -1.08030189e-01 -3.44103106e-03 -1.07070970e-02 -1.68428698e-03  3.08309533e-01
 -9.46173389e-03 -1.94764888e-02 -2.04085998e-03  2.48660443e-01  2.02571811e-03
 -9.39370559e-03 -3.09286832e-03 -2.72818526e-03 -2.81542906e-03  3.03886879e-04
  3.67944993e-03  6.98455240e-04  2.89781238e-02  4.66358284e-02 -1.42237416e-02
  9.47177117e-02  2.90661142e-02 -1.23746836e-01 -2.38508584e-02  1.38591456e-01
  4.35026962e-02 -2.85832051e-02 -1.16536054e-03 -1.28956639e-02 -2.97087578e-03
  8.55479362e-03 -1.03704278e-02 -3.72268168e-03  2.78752105e-02 -2.10319228e-02
  7.20967463e-03  1.38117996e-02 -1.90309740e-03 -4.33092483e-04  3.64418882e-03
 -2.67705996e-03  8.91090529e-03  1.53659133e-02 -9.44640827e-04  2.85007674e-03
 -3.27179274e-03 -1.75290825e-03  9.20152069e-02  1.53526135e-01 -9.21197944e-03
 -4.78312442e-02 -9.43894219e-03 -4.31957550e-01 -1.46306029e-02 -7.18305718e-02
 -1.39212149e-02 -3.17456359e-01 -6.65030168e-03 -3.09899499e-02 -5.89415912e-03
  6.19464411e-03 -7.20025824e-04 -4.27675734e-03  1.03170060e-02 -4.37350764e-03
 -5.27832663e-03 -2.16740623e-03  4.67580072e-03 -1.55734987e-03  4.10186460e-03
  1.55782884e-03  6.75345735e-02  9.34884178e-02  2.49490330e-04  6.04489235e-03
  7.18235870e-03  1.57158783e-02 -8.74811505e-02 -1.45354655e-01 -3.25028942e-03
  5.19787037e-03  2.38365782e-03  3.77178876e-01  1.49909717e-02  1.87962734e-02
  8.69878354e-05  2.11550578e-01 -4.07811610e-03 -6.17211492e-03 -3.02905088e-04
 -5.01666245e-03 -1.96863443e-03 -5.03919970e-04  2.60812197e-03  6.92086947e-03
  1.11442769e-02  1.87689435e-02 -1.10931656e-01 -6.94957738e-04  3.52261144e-02
 -5.59223308e-02 -1.79697500e-01 -1.95600536e-03  5.68482256e-02 -4.24904644e-02
 -9.68984522e-02 -9.45539869e-03  2.84729341e-02 -2.88807281e-03  2.34612688e-03
 -4.73325581e-03  2.21625406e-03  1.54841641e-02  4.22874330e-02  7.12160206e-02
  4.38888933e-03 -5.67875693e-02 -1.61396918e-02 -2.00334855e-01  1.75842476e-02
 -9.03736789e-02 -2.90624467e-02 -9.59909511e-02  1.85594246e-03 -1.42822405e-02
 -4.29518884e-03  4.90772521e-03  7.72785268e-03 -8.67631515e-03  1.41977464e-03
  1.52734178e-02  6.75380698e-02  9.34983563e-02  2.52410880e-04 -2.56775116e-03
  1.41614658e-02 -1.13141026e-02  7.29497313e-02  1.03318632e-01  3.44974521e-03
  9.52120570e-03 -1.43162574e-02 -6.72904996e-03 -1.60707065e-02 -2.70213479e-02
 -5.20660750e-03 -1.09663887e-02 -1.18524060e-03  7.71545452e-02 -6.77829012e-03
 -1.73009207e-02 -2.32899912e-03  8.13549849e-02 -6.18220265e-03 -1.01345712e-02
 -6.61542407e-04 -2.18967765e-04 -3.96732899e-04 -4.28027790e-04  1.31916137e-03
  5.82009866e-04 -4.54620377e-02 -6.81910548e-02  1.65176300e-03  1.10260164e-02
  6.19491166e-03 -1.90169981e-03  6.12875561e-02  8.79608877e-02  5.39008138e-03
  1.86032743e-03  2.59906743e-03  1.03921335e-02 -4.38704376e-02 -7.28539647e-02
 -5.76419732e-02 -4.27453886e-02  7.30910265e-03  1.91820532e-01 -9.26710095e-02
 -7.09809903e-02  1.11648465e-02  1.46863804e-01 -4.49695420e-02 -2.14021711e-02
  8.78631020e-03  1.29139281e-02  5.95474667e-03  2.44688939e-03 -1.01543971e-02
 -1.85971529e-02  3.70167180e-02  6.27020299e-02  6.39129562e-02 -4.47823335e-02
 -3.20123569e-02 -1.87388862e-01  1.02040725e-01 -6.61695915e-02 -4.97288150e-02
 -2.09268349e-01  6.00907470e-02 -5.70308815e-02 -3.39618264e-02 -1.68530599e-03
 -3.01112476e-03  3.41119261e-03 -5.24177933e-04 -6.38680464e-03 -6.45318665e-02
 -1.08926147e-01  5.35637175e-02  4.69086483e-02 -4.90201962e-03  3.10804883e-01
  7.43291136e-02  7.09204702e-02 -5.29570920e-03  1.78819826e-01  3.72853226e-02
  3.02249623e-02 -4.06370458e-03 -6.89086080e-03 -4.40201771e-03  1.05601442e-03
  3.92534174e-03  4.57627046e-03  6.12723466e-02  8.79435944e-02  5.39880440e-03
 -3.76262316e-03  7.15523458e-03 -7.26813660e-03  4.63712881e-02  6.32617625e-02
  2.33271610e-03  3.70172172e-03 -7.75444799e-03 -3.18297465e-03  3.45225460e-02
  5.83560388e-02  2.28094782e-02  5.57948435e-02  7.17676866e-03 -1.72026520e-01
  3.69849611e-02  8.27094631e-02  9.62766916e-03 -1.94500395e-01  1.99595627e-02
  5.61716201e-02  8.18855876e-03 -2.37651560e-03  1.21152179e-03  7.10619841e-04
 -4.18157336e-03  4.34897163e-03  1.06771619e-01  1.65238784e-01  7.73414356e-03
 -1.87723440e-02 -1.08311933e-02  3.16462469e-03  3.17714933e-02  4.38505922e-02
  6.55692731e-03  1.77447664e-03 -1.85732139e-03  3.43271203e-03 -1.53201805e-03
 -2.37649613e-03  1.20002838e-02 -7.10198832e-02 -2.22760367e-02  4.92831614e-03
  2.13322523e-02 -1.20694699e-01 -3.81582095e-02  2.62960052e-03  7.39303480e-03
 -6.19703767e-02 -1.84538665e-02  9.54984897e-03  1.31066693e-03 -4.15091438e-03
  7.60740728e-03 -7.69328803e-03  1.95924403e-02  3.32157129e-02  5.39712817e-02
 -1.38171107e-01 -5.31061348e-02 -1.02136558e-01  8.65913056e-02 -2.14980492e-01
 -8.34674459e-02 -1.23248086e-01  5.30716136e-02 -1.64903114e-01 -5.97622934e-02
 -4.60545436e-03 -8.41136189e-04  8.19707938e-03 -1.30979574e-02 -6.58071858e-03
  1.15618053e-03  1.44540875e-03 -1.40643148e-01 -8.75507373e-03  4.25758890e-02
  2.84457908e-03 -2.30596684e-01 -8.18078070e-03  7.14063620e-02 -4.43299920e-02
 -8.97643977e-02 -2.96952520e-02  2.09076557e-02 -2.49801358e-03 -8.53515315e-03
  1.06599402e-03  1.29425657e-02 -7.89902342e-03  3.16372757e-02  4.36701449e-02
  6.51473985e-03 -6.66125128e-04  1.10631491e-04 -4.23201581e-03 -4.76798132e-02
 -6.13286503e-02 -1.78305647e-02 -1.90678081e-03  3.05007068e-03  1.38834949e-03
  6.06759202e-03  1.00718371e-02 -9.31436135e-02  1.91277265e-02  3.46495013e-02
 -2.80680611e-02 -1.45947794e-01  3.07598232e-02  5.44938002e-02 -4.32929655e-02
 -1.05776012e-01  2.21561680e-02  3.94631798e-02  3.53335271e-04 -2.40092639e-03
  5.41895559e-03 -4.09685578e-03 -1.24141578e-02 -9.23849727e-02 -1.24886644e-01
 -2.69460037e-02  1.09705909e-02  8.33647732e-03 -1.32493900e-03  3.51832970e-02
  4.37587588e-02  2.28924106e-02 -8.09448011e-04 -4.92589224e-04  4.22874309e-03
 -8.70766965e-03 -1.42532013e-02 -6.48691310e-02 -4.01182285e-02  1.02400299e-02
  3.73009664e-02 -1.11110593e-01 -6.75983356e-02  1.78339066e-02  6.05100162e-02
 -3.35748115e-02 -2.62234247e-02  3.89098322e-03  1.30154822e-02  8.58695090e-03
  2.02342069e-03 -1.42488835e-02 -1.48471045e-02 -3.94858219e-03 -6.78024930e-03
  1.09479363e-01  4.34343485e-02 -2.37784937e-02  2.28427347e-02  1.70580870e-01
  6.83540342e-02 -3.68741464e-02  6.77811658e-03  1.38255508e-01  7.20530384e-02
 -2.55849954e-02  3.23397746e-03 -2.07157973e-03  9.12314096e-04  3.47931911e-03
 -9.47848558e-03  2.75516363e-02  4.63032576e-02 -2.76136295e-03  1.25077436e-01
  3.32508198e-02 -1.46002554e-01 -4.37494223e-03  2.04601667e-01  5.43497769e-02
 -4.27525522e-02 -5.72233870e-03  2.42601158e-02  8.09033467e-03  4.07119399e-03
 -4.34126519e-03  1.50627847e-03  7.01361269e-03 -1.46496886e-02  3.51019578e-02
  4.36339980e-02  2.28122357e-02 -3.04592034e-03  1.30949094e-03 -2.78336952e-03
  2.17441444e-02  3.21372961e-02  5.82228003e-03 -8.16669811e-04 -3.90507176e-03
 -7.52642451e-04 -4.24071335e-02 -7.17243079e-02 -3.35031472e-02 -1.88559657e-01
 -3.81318375e-02  2.15256834e-01 -5.25491986e-02 -2.78090913e-01 -5.52373184e-02
  3.05310913e-01 -3.73692927e-02 -2.01585343e-01 -4.02749570e-02  9.10137683e-03
 -1.74086048e-03 -6.95622536e-03  1.74695236e-02 -6.16200481e-03  8.14015385e-03
  7.63717693e-03  1.78067765e-02 -1.83480653e-03  3.75186720e-03  1.55235650e-03
  7.87767132e-02  1.11757480e-01  3.69006698e-02  1.67895680e-03  5.97586899e-03
  5.66789486e-03  4.98390155e-06  8.29826917e-06 -3.62770507e-02  2.95418562e-02
 -1.13736479e-01 -2.07455645e-05 -5.99245923e-02  4.88011440e-02 -1.87881834e-01
 -4.24795005e-05 -3.25715452e-02  2.65214190e-02 -1.02028925e-01  1.20112647e-02
 -9.17794335e-03  1.10737332e-02 -3.16914061e-04  7.04198487e-03  3.11444190e-06
  5.54407234e-06 -5.33713912e-02  4.33511363e-02 -1.66996038e-01 -2.10373323e-05
 -8.46723995e-02  6.87746079e-02 -2.64935476e-01 -5.58198816e-06 -7.21215157e-02
  5.85766788e-02 -2.25694671e-01  6.11300580e-03  1.91704739e-03  1.36527180e-02
  4.03218559e-03  4.45075483e-03 -2.98989169e-05 -5.06314893e-05 -2.32054852e-02
  1.88164159e-02 -7.28215585e-02  1.45494786e-04 -4.02292219e-02  3.26171534e-02
 -1.26227893e-01  1.16686525e-04 -2.32578495e-02  1.88607697e-02 -7.28509416e-02
 -1.09690420e-02  1.76880957e-02  1.52170859e-03  6.24150833e-03 -5.14938589e-03
 -7.89308722e-02 -1.11947250e-01 -3.69668557e-02  8.67503579e-04 -8.03567500e-03
  2.32916922e-03  1.12335211e-04  1.46839742e-04  3.94287451e-05 -1.98368803e-03
  1.60645257e-03 -6.24857146e-03  1.93450262e-05  3.29842535e-05 -1.88545412e-02
  1.54028546e-02 -5.92154139e-02 -1.01859602e-04 -3.03174505e-02  2.47492927e-02
 -9.52011240e-02 -1.44415869e-04 -2.32139795e-02  1.89517545e-02 -7.29114577e-02
 -3.97225048e-03 -1.43971687e-03 -9.13599333e-03 -2.75064660e-03 -2.91728550e-03
  2.90562064e-06  2.83468134e-05  7.51888524e-06 -1.33723646e-03  1.08419825e-03
 -4.19332226e-03  2.71829009e-02  4.15999647e-02  1.47089052e-02  6.95441264e-03
 -1.94920394e-03  3.08865828e-03 -9.29336346e-04 -2.19587954e-03  1.16777805e-01
 -7.86718596e-02 -5.76894801e-02  7.37620316e-03  2.00679565e-01 -1.20514681e-01
 -9.53296554e-02 -7.69678847e-03  1.07749758e-01 -8.79494921e-02 -5.72169518e-02
 -1.39953838e-03  2.25561260e-03 -1.43795445e-02  1.82597683e-02  2.87945044e-02
  6.09815564e-03  1.05100888e-02 -1.00475223e-01 -8.38657012e-02  1.03120209e-02
 -3.56344349e-02 -1.60623481e-01 -1.31011101e-01  1.72798669e-02 -2.40903087e-02
 -1.18430250e-01 -1.23983328e-01  5.63301415e-03 -4.87322002e-03  2.33213895e-03
 -2.12556775e-03 -2.59537365e-03  1.45829144e-02  4.72784486e-03  8.40558381e-03
  8.31173492e-02  5.45965941e-02 -1.23753077e-02 -3.55076016e-02  1.32900442e-01
  8.02441543e-02 -2.16177961e-02  3.93512436e-03  7.79873633e-02  3.16019836e-03
 -2.40723459e-02  3.40172473e-03 -5.21116640e-03 -1.05123962e-02  2.74294472e-02
  5.02969168e-03  2.69615810e-02  4.12677765e-02  1.45858604e-02  3.78818372e-03
  5.92564619e-04 -6.84574468e-03 -1.29252323e-01 -1.93534776e-01 -7.02619280e-02
 -5.17087750e-03  9.45657235e-03  4.07977429e-03 -7.34366213e-03 -1.25925704e-02
  4.57780835e-02 -8.84220198e-02 -3.74875854e-02  4.11941638e-02  7.44169165e-02
 -1.29276420e-01 -5.71981803e-02  6.42095929e-02  5.91233110e-02 -1.03792623e-01
 -4.57218736e-02  2.51001966e-03  5.99224600e-04 -6.06832015e-03  9.43491032e-03
  6.41599590e-03  7.63120170e-02  1.27051463e-01  3.71830457e-02 -1.04895716e-02