
    -----------------------------------------------------------------------
          Psi4: An Open-Source Ab Initio Electronic Structure Package
                               Psi4 1.6 release

                         Git: Rev {HEAD} 77475b5 


    D. G. A. Smith, L. A. Burns, A. C. Simmonett, R. M. Parrish,
    M. C. Schieber, R. Galvelis, P. Kraus, H. Kruse, R. Di Remigio,
    A. Alenaizan, A. M. James, S. Lehtola, J. P. Misiewicz, M. Scheurer,
    R. A. Shaw, J. B. Schriber, Y. Xie, Z. L. Glick, D. A. Sirianni,
    J. S. O'Brien, J. M. Waldrop, A. Kumar, E. G. Hohenstein,
    B. P. Pritchard, B. R. Brooks, H. F. Schaefer III, A. Yu. Sokolov,
    K. Patkowski, A. E. DePrince III, U. Bozkaya, R. A. King,
    F. A. Evangelista, J. M. Turney, T. D. Crawford, C. D. Sherrill,
    J. Chem. Phys. 152(18) 184108 (2020). https://doi.org/10.1063/5.0006002

                            Additional Code Authors
    E. T. Seidl, C. L. Janssen, E. F. Valeev, M. L. Leininger,
    J. F. Gonthier, R. M. Richard, H. R. McAlexander, M. Saitow, X. Wang,
    P. Verma, M. H. Lechner, and A. Jiang

             Previous Authors, Complete List of Code Contributors,
                       and Citations for Specific Modules
    https://github.com/psi4/psi4/blob/master/codemeta.json
    https://github.com/psi4/psi4/graphs/contributors
    http://psicode.org/psi4manual/master/introduction.html#citing-psifour

    -----------------------------------------------------------------------


    Psi4 started on: Saturday, 18 November 2023 08:01AM

    Process ID: 1106831
    Host:       node165.bme.utexas.edu
    PSIDATADIR: /home/liuchw/anaconda3/envs/poltype2022/share/psi4
    Memory:     500.0 MiB
    Threads:    1
    
  ==> Input File <==

--------------------------------------------------------------------------
molecule { 
0 1
H        -11.04720        0.23360        0.38820
C        -10.63610        0.61180        1.32950
O         -9.38670        1.26690        1.10250
C         -8.42780        0.45910        0.58570
H        -10.51740       -0.19870        2.05550
H        -11.33340        1.34640        1.74150
C         -7.16190        1.21630        0.37150
C         -4.88910        1.21140       -0.43690
C         -4.78720        2.54830       -0.03700
C         -6.08150        0.53520       -0.22350
C         -5.82480        3.24840        0.54820
C         -7.02720        2.56920        0.75100
O         -8.55770       -0.72530        0.32190
H         -6.20520       -0.50650       -0.49970
H         -5.71760        4.28610        0.84440
H         -7.85720        3.10110        1.21180
H         -4.08960        0.73570       -0.88370
H         -3.89060        3.03680       -0.18690
}
memory 208GB
set_num_threads(51)
psi4_io.set_default_path("/scratch/liuchw/Psi4-farH_in17")
set maxiter 500
set freeze_core True
set PROPERTIES_ORIGIN ["COM"]
set cubeprop_tasks ['esp']
set basis MINIX 
E, wfn = properties('hf',properties=['dipole','WIBERG_LOWDIN_INDICES','MULLIKEN_CHARGES'],return_wfn=True)
cubeprop(wfn)
fchk(wfn, "farH_in17-esp_frag.fchk")
clean()
--------------------------------------------------------------------------

  Memory set to 193.715 GiB by Python driver.
  Threads set to 51 by Python driver.

*** tstart() called on node165.bme.utexas.edu
*** at Sat Nov 18 08:01:34 2023

   => Loading Basis Set <=

    Name: MINIX
    Role: ORBITAL
    Keyword: BASIS
    atoms 1, 5-6, 14-18 entry H          line    24 file /home/liuchw/anaconda3/envs/poltype2022/share/psi4/basis/minix.gbs 
    atoms 2, 4, 7-12    entry C          line    74 file /home/liuchw/anaconda3/envs/poltype2022/share/psi4/basis/minix.gbs 
    atoms 3, 13         entry O          line   102 file /home/liuchw/anaconda3/envs/poltype2022/share/psi4/basis/minix.gbs 


         ---------------------------------------------------------
                                   SCF
               by Justin Turney, Rob Parrish, Andy Simmonett
                          and Daniel G. A. Smith
                              RHF Reference
                       51 Threads, 198364 MiB Core
         ---------------------------------------------------------

  ==> Geometry <==

    Molecular point group: c1
    Full point group: C1

    Geometry (in Angstrom), charge = 0, multiplicity = 1:

       Center              X                  Y                   Z               Mass       
    ------------   -----------------  -----------------  -----------------  -----------------
         H           -3.651674598583    -1.012889435987    -0.068629827457     1.007825032230
         C           -3.240574598583    -0.634689435987     0.872670172543    12.000000000000
         O           -1.991174598583     0.020410564013     0.645670172543    15.994914619570
         C           -1.032274598583    -0.787389435987     0.128870172543    12.000000000000
         H           -3.121874598583    -1.445189435987     1.598670172543     1.007825032230
         H           -3.937874598583     0.099910564013     1.284670172543     1.007825032230
         C            0.233625401417    -0.030189435987    -0.085329827457    12.000000000000
         C            2.506425401417    -0.035089435987    -0.893729827457    12.000000000000
         C            2.608325401417     1.301810564013    -0.493829827457    12.000000000000
         C            1.314025401417    -0.711289435987    -0.680329827457    12.000000000000
         C            1.570725401417     2.001910564013     0.091370172543    12.000000000000
         C            0.368325401417     1.322710564013     0.294170172543    12.000000000000
         O           -1.162174598583    -1.971789435987    -0.134929827457    15.994914619570
         H            1.190325401417    -1.752989435987    -0.956529827457     1.007825032230
         H            1.677925401417     3.039610564013     0.387570172543     1.007825032230
         H           -0.461674598583     1.854610564013     0.754970172543     1.007825032230
         H            3.305925401417    -0.510789435987    -1.340529827457     1.007825032230
         H            3.504925401417     1.790310564013    -0.643729827457     1.007825032230

  Running in c1 symmetry.

  Rotational constants: A =      0.11422  B =      0.02854  C =      0.02295 [cm^-1]
  Rotational constants: A =   3424.15054  B =    855.70402  C =    687.88753 [MHz]
  Nuclear repulsion =  489.625358805780024

  Charge       = 0
  Multiplicity = 1
  Electrons    = 72
  Nalpha       = 36
  Nbeta        = 36

  ==> Algorithm <==

  SCF Algorithm Type is DF.
  DIIS enabled.
  MOM disabled.
  Fractional occupation disabled.
  Guess Type is SAD.
  Energy threshold   = 1.00e-06
  Density threshold  = 1.00e-06
  Integral threshold = 1.00e-12

  ==> Primary Basis <==

  Basis Set: MINIX
    Blend: MINIX
    Number of shells: 38
    Number of basis functions: 58
    Number of Cartesian functions: 58
    Spherical Harmonics?: true
    Max angular momentum: 1

   => Loading Basis Set <=

    Name: (MINIX AUX)
    Role: JKFIT
    Keyword: DF_BASIS_SCF
    atoms 1, 5-6, 14-18 entry H          line    18 file /home/liuchw/anaconda3/envs/poltype2022/share/psi4/basis/def2-universal-jkfit.gbs 
    atoms 2, 4, 7-12    entry C          line   198 file /home/liuchw/anaconda3/envs/poltype2022/share/psi4/basis/def2-universal-jkfit.gbs 
    atoms 3, 13         entry O          line   318 file /home/liuchw/anaconda3/envs/poltype2022/share/psi4/basis/def2-universal-jkfit.gbs 

  ==> Integral Setup <==

  DFHelper Memory: AOs need 0.029 GiB; user supplied 145.286 GiB. Using in-core AOs.

  ==> MemDFJK: Density-Fitted J/K Matrices <==

    J tasked:                   Yes
    K tasked:                   Yes
    wK tasked:                   No
    OpenMP threads:              51
    Memory [MiB]:            148773
    Algorithm:                 Core
    Schwarz Cutoff:           1E-12
    Mask sparsity (%):       4.3995
    Fitting Condition:        1E-10

   => Auxiliary Basis Set <=

  Basis Set: (MINIX AUX)
    Blend: DEF2-UNIVERSAL-JKFIT
    Number of shells: 298
    Number of basis functions: 898
    Number of Cartesian functions: 1058
    Spherical Harmonics?: true
    Max angular momentum: 4

  Minimum eigenvalue in the overlap matrix is 1.7215145523E-01.
  Reciprocal condition number of the overlap matrix is 6.3602669568E-02.
    Using symmetric orthogonalization.

  ==> Pre-Iterations <==

  SCF Guess: Superposition of Atomic Densities via on-the-fly atomic UHF (no occupation information).

   -------------------------
    Irrep   Nso     Nmo    
   -------------------------
     A         58      58 
   -------------------------
    Total      58      58
   -------------------------

  ==> Iterations <==

                           Total Energy        Delta E     RMS |[F,P]|

   @DF-RHF iter SAD:  -449.57686261645483   -4.49577e+02   0.00000e+00 
   @DF-RHF iter   1:  -454.01635985491259   -4.43950e+00   8.65236e-03 DIIS/ADIIS
   @DF-RHF iter   2:  -454.13966927556623   -1.23309e-01   5.26134e-03 DIIS/ADIIS
   @DF-RHF iter   3:  -454.18599446467579   -4.63252e-02   8.12365e-04 DIIS/ADIIS
   @DF-RHF iter   4:  -454.18794874045216   -1.95428e-03   3.24111e-04 DIIS/ADIIS
   @DF-RHF iter   5:  -454.18836042945156   -4.11689e-04   9.55823e-05 DIIS
   @DF-RHF iter   6:  -454.18841106387288   -5.06344e-05   4.00002e-05 DIIS
   @DF-RHF iter   7:  -454.18841885476888   -7.79090e-06   1.27269e-05 DIIS
   @DF-RHF iter   8:  -454.18841961776923   -7.63000e-07   2.90463e-06 DIIS
   @DF-RHF iter   9:  -454.18841964943704   -3.16678e-08   6.77692e-07 DIIS
  Energy and wave function converged.


  ==> Post-Iterations <==

    Orbital Energies [Eh]
    ---------------------

    Doubly Occupied:                                                      

       1A    -20.378470     2A    -20.330147     3A    -11.361328  
       4A    -11.237390     5A    -11.201918     6A    -11.195940  
       7A    -11.195551     8A    -11.195381     9A    -11.188577  
      10A    -11.187734    11A     -1.456424    12A     -1.352257  
      13A     -1.175595    14A     -1.054238    15A     -1.037122  
      16A     -0.970217    17A     -0.867713    18A     -0.838593  
      19A     -0.771977    20A     -0.733966    21A     -0.682925  
      22A     -0.673778    23A     -0.652915    24A     -0.634320  
      25A     -0.611872    26A     -0.604700    27A     -0.576364  
      28A     -0.568526    29A     -0.519817    30A     -0.518756  
      31A     -0.505932    32A     -0.491139    33A     -0.431644  
      34A     -0.426196    35A     -0.362345    36A     -0.356761  

    Virtual:                                                              

      37A      0.121759    38A      0.175949    39A      0.269882  
      40A      0.431006    41A      0.455975    42A      0.546598  
      43A      0.590574    44A      0.622178    45A      0.639418  
      46A      0.652246    47A      0.676803    48A      0.677474  
      49A      0.686917    50A      0.701674    51A      0.723350  
      52A      0.806848    53A      0.865396    54A      0.881931  
      55A      0.892218    56A      0.959059    57A      1.054835  
      58A      1.115341  

    Final Occupation by Irrep:
              A 
    DOCC [    36 ]

  @DF-RHF Final Energy:  -454.18841964943704

   => Energetics <=

    Nuclear Repulsion Energy =            489.6253588057800243
    One-Electron Energy =               -1588.9305620698996790
    Two-Electron Energy =                 645.1167836146826176
    Total Energy =                       -454.1884196494370372

Computation Completed


Properties will be evaluated at  -0.000000,   0.000000,   0.000000 [a0]

Properties computed using the HF density matrix


 Multipole Moments:

 ------------------------------------------------------------------------------------
     Multipole            Electronic (a.u.)      Nuclear  (a.u.)        Total (a.u.)
 ------------------------------------------------------------------------------------

 L = 1.  Multiply by 2.5417464519 to convert [e a0] to [Debye]
 Dipole X            :          1.3688202           -1.4157282           -0.0469080
 Dipole Y            :         -1.3069532            1.9242337            0.6172805
 Dipole Z            :         -0.7783606            0.9553556            0.1769950
 Magnitude           :                                                    0.6438655

 ------------------------------------------------------------------------------------
  Mulliken Charges: (a.u.)
   Center  Symbol    Alpha    Beta     Spin     Total
       1     H     0.42567  0.42567  0.00000  0.14865
       2     C     3.08365  3.08365  0.00000 -0.16729
       3     O     4.21280  4.21280  0.00000 -0.42561
       4     C     2.75840  2.75840  0.00000  0.48320
       5     H     0.42568  0.42568  0.00000  0.14864
       6     H     0.42552  0.42552  0.00000  0.14896
       7     C     3.02444  3.02444  0.00000 -0.04888
       8     C     3.07616  3.07616  0.00000 -0.15232
       9     C     3.06378  3.06378  0.00000 -0.12756
      10     C     3.05329  3.05329  0.00000 -0.10658
      11     C     3.07306  3.07306  0.00000 -0.14612
      12     C     3.05285  3.05285  0.00000 -0.10570
      13     O     4.20651  4.20651  0.00000 -0.41302
      14     H     0.41773  0.41773  0.00000  0.16453
      15     H     0.42604  0.42604  0.00000  0.14791
      16     H     0.41899  0.41899  0.00000  0.16201
      17     H     0.42710  0.42710  0.00000  0.14579
      18     H     0.42831  0.42831  0.00000  0.14338

   Total alpha = 36.00000, Total beta = 36.00000, Total charge = -0.00000



  Wiberg Bond Indices using Orthogonal Lowdin Orbitals:

  Irrep: 1 Size: 18 x 18

                 1                   2                   3                   4                   5

    1     0.00000000000000     0.97530718541705     0.01150248836372     0.00113727798242     0.00028756887220
    2     0.97530718541705     0.00000000000000     0.95617945304946     0.00268796086848     0.97530694469808
    3     0.01150248836372     0.95617945304946     0.00000000000000     1.05498735637207     0.01151872535337
    4     0.00113727798242     0.00268796086848     1.05498735637207     0.00000000000000     0.00113513527046
    5     0.00028756887220     0.97530694469808     0.01151872535337     0.00113513527046     0.00000000000000
    6     0.00070564066331     0.97671558907108     0.00520610357998     0.00692529653443     0.00070413025810
    7     0.00002813827874     0.01181500337542     0.00907211872642     1.00358721488600     0.00002698904574
    8     0.00000381713333     0.00027840143667     0.00056816599517     0.00699583470272     0.00000491324510
    9     0.00005456540716     0.00005593549408     0.00174491435767     0.00266322031374     0.00005446253666
   10     0.00009376704454     0.00092786484843     0.00791819428908     0.00571304360361     0.00009639607086
   11     0.00000765647855     0.00000768758921     0.00022447948089     0.00692354110711     0.00000609531009
   12     0.00008517282862     0.00042971485919     0.00372160256025     0.00483436129290     0.00007800081434
   13     0.00214888557640     0.00436091245334     0.15713171652497     1.83241088861629     0.00214538540335
   14     0.00000013621365     0.00006751853738     0.00036023057046     0.00281171523299     0.00000010745306
   15     0.00000002185581     0.00000417153743     0.00001342557659     0.00037932249296     0.00000003059280
   16     0.00000003407417     0.00001008938809     0.00089683833235     0.00291921173722     0.00000000279391
   17     0.00000000634590     0.00006897209974     0.00017506629669     0.00035507989665     0.00000002697517
   18     0.00000042514653     0.00000207347918     0.00000971816662     0.00008489044091     0.00000035228185

                 6                   7                   8                   9                  10

    1     0.00070564066331     0.00002813827874     0.00000381713333     0.00005456540716     0.00009376704454
    2     0.97671558907108     0.01181500337542     0.00027840143667     0.00005593549408     0.00092786484843
    3     0.00520610357998     0.00907211872642     0.00056816599517     0.00174491435767     0.00791819428908
    4     0.00692529653443     1.00358721488600     0.00699583470272     0.00266322031374     0.00571304360361
    5     0.00070413025810     0.00002698904574     0.00000491324510     0.00005446253666     0.00009639607086
    6     0.00000000000000     0.00028865884332     0.00002779513843     0.00000102530637     0.00010696310630
    7     0.00028865884332     0.00000000000000     0.00321021107394     0.10773046764200     1.38751494680191
    8     0.00002779513843     0.00321021107394     0.00000000000000     1.41494598757463     1.46251714209868
    9     0.00000102530637     0.10773046764200     1.41494598757463     0.00000000000000     0.00419378835669
   10     0.00010696310630     1.38751494680191     1.46251714209868     0.00419378835669     0.00000000000000
   11     0.00000620578279     0.00297480624844     0.00338600163637     1.45040843601580     0.10853619305368
   12     0.00002155192171     1.41048293553044     0.11256973945135     0.00473514149067     0.00349848373282
   13     0.00026832880430     0.04056928138216     0.00010404281064     0.01149904016667     0.01921057308278
   14     0.00001029131188     0.00049400997161     0.00090229504398     0.00746213155738     0.96433819546216
   15     0.00000001127339     0.00688928277076     0.00737014044320     0.00084687014885     0.00016568250916
   16     0.00000483070725     0.00041097600035     0.00029677684654     0.00701599625116     0.00688386200370
   17     0.00000585549446     0.00690147547530     0.96883726378335     0.00117229395461     0.00132112787234
   18     0.00000048706343     0.00031376642319     0.00127929201079     0.96798325771120     0.00676194096087

                11                  12                  13                  14                  15

    1     0.00000765647855     0.00008517282862     0.00214888557640     0.00000013621365     0.00000002185581
    2     0.00000768758921     0.00042971485919     0.00436091245334     0.00006751853738     0.00000417153743
    3     0.00022447948089     0.00372160256025     0.15713171652497     0.00036023057046     0.00001342557659
    4     0.00692354110711     0.00483436129290     1.83241088861629     0.00281171523299     0.00037932249296
    5     0.00000609531009     0.00007800081434     0.00214538540335     0.00000010745306     0.00000003059280
    6     0.00000620578279     0.00002155192171     0.00026832880430     0.00001029131188     0.00000001127339
    7     0.00297480624844     1.41048293553044     0.04056928138216     0.00049400997161     0.00688928277076
    8     0.00338600163637     0.11256973945135     0.00010404281064     0.00090229504398     0.00737014044320
    9     1.45040843601580     0.00473514149067     0.01149904016667     0.00746213155738     0.00084687014885
   10     0.10853619305368     0.00349848373282     0.01921057308278     0.96433819546216     0.00016568250916
   11     0.00000000000000     1.43417840530022     0.00119093881725     0.00023415811865     0.96714501414854
   12     1.43417840530022     0.00000000000000     0.02656067010676     0.00664588829480     0.00075668669177
   13     0.00119093881725     0.02656067010676     0.00000000000000     0.00119285157866     0.00026986830704
   14     0.00023415811865     0.00664588829480     0.00119285157866     0.00000000000000     0.00013629037066
   15     0.96714501414854     0.00075668669177     0.00026986830704     0.00013629037066     0.00000000000000
   16     0.00084399790922     0.96498729518284     0.00039688549829     0.00046066926100     0.00338273236174
   17     0.00640195720779     0.00018219304548     0.00004088682278     0.00319031481085     0.00032481863355
   18     0.00145010676368     0.00734702558359     0.00000699368178     0.00040356186455     0.00341019413639

                16                  17                  18

    1     0.00000003407417     0.00000000634590     0.00000042514653
    2     0.00001008938809     0.00006897209974     0.00000207347918
    3     0.00089683833235     0.00017506629669     0.00000971816662
    4     0.00291921173722     0.00035507989665     0.00008489044091
    5     0.00000000279391     0.00000002697517     0.00000035228185
    6     0.00000483070725     0.00000585549446     0.00000048706343
    7     0.00041097600035     0.00690147547530     0.00031376642319
    8     0.00029677684654     0.96883726378335     0.00127929201079
    9     0.00701599625116     0.00117229395461     0.96798325771120
   10     0.00688386200370     0.00132112787234     0.00676194096087
   11     0.00084399790922     0.00640195720779     0.00145010676368
   12     0.96498729518284     0.00018219304548     0.00734702558359
   13     0.00039688549829     0.00004088682278     0.00000699368178
   14     0.00046066926100     0.00319031481085     0.00040356186455
   15     0.00338273236174     0.00032481863355     0.00341019413639
   16     0.00000000000000     0.00009755585907     0.00044437121867
   17     0.00009755585907     0.00000000000000     0.00311225376812
   18     0.00044437121867     0.00311225376812     0.00000000000000



  Atomic Valences: 

 #  #
 Irrep: 1
      1:    0.991362787682081
      2:    3.904225478202292
      3:    2.221230597595752
      4:    3.936551351350968
      5:    0.991365266975136
      6:    0.990998764860534
      7:    3.992310282475727
      8:    3.983297820424892
      9:    3.982567534285315
     10:    3.979798164897619
     11:    3.983925680968302
     12:    3.981114868687734
     13:    2.099508149633457
     14:    0.988710365653708
     15:    0.991094563850623
     16:    0.989052125425568
     17:    0.992187148341833
     18:    0.992610710701349


*** tstop() called on node165.bme.utexas.edu at Sat Nov 18 08:01:35 2023
Module time:
	user time   =      35.80 seconds =       0.60 minutes
	system time =       1.39 seconds =       0.02 minutes
	total time  =          1 seconds =       0.02 minutes
Total time:
	user time   =      35.80 seconds =       0.60 minutes
	system time =       1.39 seconds =       0.02 minutes
	total time  =          1 seconds =       0.02 minutes
  ==> One Electron Grid Properties (v2.0) <==

  ==> CubicScalarGrid <==

    Filepath     = .
    Total Points =           687792
    XYZ Blocking =               10
    X Points     =              112
    Y Points     =               89
    Z Points     =               69
    X Spacing    =        2.000E-01
    Y Spacing    =        2.000E-01
    Z Spacing    =        2.000E-01
    X Minimum    =       -1.151E+01
    Y Minimum    =       -7.791E+00
    Z Minimum    =       -6.556E+00
    X Maximum    =        1.069E+01
    Y Maximum    =        9.809E+00
    Z Maximum    =        7.044E+00

  Basis Set: MINIX
    Blend: MINIX
    Number of shells: 38
    Number of basis functions: 58
    Number of Cartesian functions: 58
    Spherical Harmonics?: true
    Max angular momentum: 1

*********************************************************************************************************************
When computing potential integrals with different bra and ket basis, the atom definition is taken from the bra basis.
*********************************************************************************************************************
*********************************************************************************************************************
When computing potential integrals with different bra and ket basis, the atom definition is taken from the bra basis.
*********************************************************************************************************************
*********************************************************************************************************************
When computing potential integrals with different bra and ket basis, the atom definition is taken from the bra basis.
*********************************************************************************************************************
*********************************************************************************************************************
When computing potential integrals with different bra and ket basis, the atom definition is taken from the bra basis.
*********************************************************************************************************************
*********************************************************************************************************************
When computing potential integrals with different bra and ket basis, the atom definition is taken from the bra basis.
*********************************************************************************************************************
*********************************************************************************************************************
When computing potential integrals with different bra and ket basis, the atom definition is taken from the bra basis.
*********************************************************************************************************************
*********************************************************************************************************************
When computing potential integrals with different bra and ket basis, the atom definition is taken from the bra basis.
*********************************************************************************************************************
*********************************************************************************************************************
When computing potential integrals with different bra and ket basis, the atom definition is taken from the bra basis.
*********************************************************************************************************************
*********************************************************************************************************************
When computing potential integrals with different bra and ket basis, the atom definition is taken from the bra basis.
*********************************************************************************************************************
*********************************************************************************************************************
When computing potential integrals with different bra and ket basis, the atom definition is taken from the bra basis.
*********************************************************************************************************************
*********************************************************************************************************************
When computing potential integrals with different bra and ket basis, the atom definition is taken from the bra basis.
*********************************************************************************************************************
*********************************************************************************************************************
When computing potential integrals with different bra and ket basis, the atom definition is taken from the bra basis.
*********************************************************************************************************************
*********************************************************************************************************************
When computing potential integrals with different bra and ket basis, the atom definition is taken from the bra basis.
*********************************************************************************************************************
*********************************************************************************************************************
When computing potential integrals with different bra and ket basis, the atom definition is taken from the bra basis.
*********************************************************************************************************************
*********************************************************************************************************************
When computing potential integrals with different bra and ket basis, the atom definition is taken from the bra basis.
*********************************************************************************************************************
*********************************************************************************************************************
When computing potential integrals with different bra and ket basis, the atom definition is taken from the bra basis.
*********************************************************************************************************************
*********************************************************************************************************************
When computing potential integrals with different bra and ket basis, the atom definition is taken from the bra basis.
*********************************************************************************************************************
*********************************************************************************************************************
When computing potential integrals with different bra and ket basis, the atom definition is taken from the bra basis.
*********************************************************************************************************************
*********************************************************************************************************************
When computing potential integrals with different bra and ket basis, the atom definition is taken from the bra basis.
*********************************************************************************************************************
*********************************************************************************************************************
When computing potential integrals with different bra and ket basis, the atom definition is taken from the bra basis.
*********************************************************************************************************************
*********************************************************************************************************************
When computing potential integrals with different bra and ket basis, the atom definition is taken from the bra basis.
*********************************************************************************************************************
*********************************************************************************************************************
When computing potential integrals with different bra and ket basis, the atom definition is taken from the bra basis.
*********************************************************************************************************************
*********************************************************************************************************************
When computing potential integrals with different bra and ket basis, the atom definition is taken from the bra basis.
*********************************************************************************************************************
*********************************************************************************************************************
When computing potential integrals with different bra and ket basis, the atom definition is taken from the bra basis.
*********************************************************************************************************************
*********************************************************************************************************************
When computing potential integrals with different bra and ket basis, the atom definition is taken from the bra basis.
*********************************************************************************************************************
*********************************************************************************************************************
When computing potential integrals with different bra and ket basis, the atom definition is taken from the bra basis.
*********************************************************************************************************************
*********************************************************************************************************************
When computing potential integrals with different bra and ket basis, the atom definition is taken from the bra basis.
*********************************************************************************************************************
*********************************************************************************************************************
When computing potential integrals with different bra and ket basis, the atom definition is taken from the bra basis.
*********************************************************************************************************************
*********************************************************************************************************************
When computing potential integrals with different bra and ket basis, the atom definition is taken from the bra basis.
*********************************************************************************************************************
*********************************************************************************************************************
When computing potential integrals with different bra and ket basis, the atom definition is taken from the bra basis.
*********************************************************************************************************************
*********************************************************************************************************************
When computing potential integrals with different bra and ket basis, the atom definition is taken from the bra basis.
*********************************************************************************************************************
*********************************************************************************************************************
When computing potential integrals with different bra and ket basis, the atom definition is taken from the bra basis.
*********************************************************************************************************************
*********************************************************************************************************************
When computing potential integrals with different bra and ket basis, the atom definition is taken from the bra basis.
*********************************************************************************************************************
*********************************************************************************************************************
When computing potential integrals with different bra and ket basis, the atom definition is taken from the bra basis.
*********************************************************************************************************************
*********************************************************************************************************************
When computing potential integrals with different bra and ket basis, the atom definition is taken from the bra basis.
*********************************************************************************************************************
*********************************************************************************************************************
When computing potential integrals with different bra and ket basis, the atom definition is taken from the bra basis.
*********************************************************************************************************************
*********************************************************************************************************************
When computing potential integrals with different bra and ket basis, the atom definition is taken from the bra basis.
*********************************************************************************************************************
*********************************************************************************************************************
When computing potential integrals with different bra and ket basis, the atom definition is taken from the bra basis.
*********************************************************************************************************************
*********************************************************************************************************************
When computing potential integrals with different bra and ket basis, the atom definition is taken from the bra basis.
*********************************************************************************************************************
*********************************************************************************************************************
When computing potential integrals with different bra and ket basis, the atom definition is taken from the bra basis.
*********************************************************************************************************************
*********************************************************************************************************************
When computing potential integrals with different bra and ket basis, the atom definition is taken from the bra basis.
*********************************************************************************************************************
*********************************************************************************************************************
When computing potential integrals with different bra and ket basis, the atom definition is taken from the bra basis.
*********************************************************************************************************************
*********************************************************************************************************************
When computing potential integrals with different bra and ket basis, the atom definition is taken from the bra basis.
*********************************************************************************************************************
*********************************************************************************************************************
When computing potential integrals with different bra and ket basis, the atom definition is taken from the bra basis.
*********************************************************************************************************************
*********************************************************************************************************************
When computing potential integrals with different bra and ket basis, the atom definition is taken from the bra basis.
*********************************************************************************************************************
*********************************************************************************************************************
When computing potential integrals with different bra and ket basis, the atom definition is taken from the bra basis.
*********************************************************************************************************************
*********************************************************************************************************************
When computing potential integrals with different bra and ket basis, the atom definition is taken from the bra basis.
*********************************************************************************************************************
*********************************************************************************************************************
When computing potential integrals with different bra and ket basis, the atom definition is taken from the bra basis.
*********************************************************************************************************************
*********************************************************************************************************************
When computing potential integrals with different bra and ket basis, the atom definition is taken from the bra basis.
*********************************************************************************************************************
*********************************************************************************************************************
When computing potential integrals with different bra and ket basis, the atom definition is taken from the bra basis.
*********************************************************************************************************************
*********************************************************************************************************************
When computing potential integrals with different bra and ket basis, the atom definition is taken from the bra basis.
*********************************************************************************************************************
FCHKWriter: !WARNING! method 'HF'' renamed to label 'HF'.
FCHKWriter: Writing farH_in17-esp_frag.fchk with label ' SCF Density'.

    Psi4 stopped on: Saturday, 18 November 2023 08:01AM
    Psi4 wall time for execution: 0:00:04.65

*** Psi4 exiting successfully. Buy a developer a beer!
