Generated by Psi4
        SP                           RHF                         MINIX
Number of atoms                            I               18
Charge                                     I                0
Multiplicity                               I                1
Number of electrons                        I               72
Number of alpha electrons                  I               36
Number of beta electrons                   I               36
Number of basis functions                  I               58
Number of independent functions            I               58
Atomic numbers                             I   N=          18
           1           6           8           6           1           1
           6           6           6           6           6           6
           8           1           1           1           1           1
Nuclear charges                            R   N=          18
  1.00000000e+00  6.00000000e+00  8.00000000e+00  6.00000000e+00  1.00000000e+00
  1.00000000e+00  6.00000000e+00  6.00000000e+00  6.00000000e+00  6.00000000e+00
  6.00000000e+00  6.00000000e+00  8.00000000e+00  1.00000000e+00  1.00000000e+00
  1.00000000e+00  1.00000000e+00  1.00000000e+00
Current cartesian coordinates              R   N=          54
 -6.90066489e+00 -1.91408363e+00 -1.29691578e-01 -6.12379848e+00 -1.19938921e+00
  1.64910762e+00 -3.76277466e+00  3.85703761e-02  1.22013979e+00 -1.95071628e+00
 -1.48795039e+00  2.43529332e-01 -5.89948799e+00 -2.73101223e+00  3.02104879e+00
 -7.44150451e+00  1.88803603e-01  2.42767479e+00  4.41488025e-01 -5.70497659e-02
 -1.61250004e-01  4.73645756e+00 -6.63094239e-02 -1.68890460e+00  4.92902065e+00
  2.46006543e+00 -9.33203126e-01  2.48314813e+00 -1.34414223e+00 -1.28563705e+00
  2.96824083e+00  3.78306269e+00  1.72664602e-01  6.96034134e-01  2.49956071e+00
  5.55901060e-01 -2.19619170e+00 -3.72614201e+00 -2.54980420e-01  2.24938901e+00
 -3.31266993e+00 -1.80757940e+00  3.17081947e+00  5.74403149e+00  7.32401481e-01
 -8.72438550e-01  3.50470604e+00  1.42668686e+00  6.24729360e+00 -9.65252142e-01
 -2.53323424e+00  6.62334910e+00  3.38319665e+00 -1.21647307e+00
Integer atomic weights                     I   N=          18
           1          12          16          12           1           1
          12          12          12          12          12          12
          16           1           1           1           1           1
Real atomic weights                        R   N=          18
  1.00782503e+00  1.20000000e+01  1.59949146e+01  1.20000000e+01  1.00782503e+00
  1.00782503e+00  1.20000000e+01  1.20000000e+01  1.20000000e+01  1.20000000e+01
  1.20000000e+01  1.20000000e+01  1.59949146e+01  1.00782503e+00  1.00782503e+00
  1.00782503e+00  1.00782503e+00  1.00782503e+00
Number of primitive shells                 I              114
Number of contracted shells                I               38
Pure/Cartesian d shells                    I                0
Pure/Cartesian f shells                    I                0
Highest angular momentum                   I                1
Largest degree of contraction              I                3
Shell types                                I   N=          38
           0           0           0           1           0           0
           1           0           0           1           0           0
           0           0           1           0           0           1
           0           0           1           0           0           1
           0           0           1           0           0           1
           0           0           1           0           0           0
           0           0
Number of primitives per shell             I   N=          38
           3           3           3           3           3           3
           3           3           3           3           3           3
           3           3           3           3           3           3
           3           3           3           3           3           3
           3           3           3           3           3           3
           3           3           3           3           3           3
           3           3
Shell to atom map                          I   N=          38
           1           2           2           2           3           3
           3           4           4           4           5           6
           7           7           7           8           8           8
           9           9           9          10          10          10
          11          11          11          12          12          12
          13          13          13          14          15          16
          17          18
Primitive exponents                        R   N=         114
  7.03406300e+00  1.06475600e+00  2.36559000e-01  1.53172260e+02  2.30730300e+01
  4.92329000e+00  6.61661200e+00  5.25856000e-01  1.69958000e-01  4.91292000e+00
  9.97616000e-01  2.32685000e-01  2.81866580e+02  4.24160000e+01  9.09562000e+00
  1.17893260e+01  9.12894000e-01  2.86661000e-01  8.27414000e+00  1.71546300e+00
  3.83013000e-01  1.53172260e+02  2.30730300e+01  4.92329000e+00  6.61661200e+00
  5.25856000e-01  1.69958000e-01  4.91292000e+00  9.97616000e-01  2.32685000e-01
  7.03406300e+00  1.06475600e+00  2.36559000e-01  7.03406300e+00  1.06475600e+00
  2.36559000e-01  1.53172260e+02  2.30730300e+01  4.92329000e+00  6.61661200e+00
  5.25856000e-01  1.69958000e-01  4.91292000e+00  9.97616000e-01  2.32685000e-01
  1.53172260e+02  2.30730300e+01  4.92329000e+00  6.61661200e+00  5.25856000e-01
  1.69958000e-01  4.91292000e+00  9.97616000e-01  2.32685000e-01  1.53172260e+02
  2.30730300e+01  4.92329000e+00  6.61661200e+00  5.25856000e-01  1.69958000e-01
  4.91292000e+00  9.97616000e-01  2.32685000e-01  1.53172260e+02  2.30730300e+01
  4.92329000e+00  6.61661200e+00  5.25856000e-01  1.69958000e-01  4.91292000e+00
  9.97616000e-01  2.32685000e-01  1.53172260e+02  2.30730300e+01  4.92329000e+00
  6.61661200e+00  5.25856000e-01  1.69958000e-01  4.91292000e+00  9.97616000e-01
  2.32685000e-01  1.53172260e+02  2.30730300e+01  4.92329000e+00  6.61661200e+00
  5.25856000e-01  1.69958000e-01  4.91292000e+00  9.97616000e-01  2.32685000e-01
  2.81866580e+02  4.24160000e+01  9.09562000e+00  1.17893260e+01  9.12894000e-01
  2.86661000e-01  8.27414000e+00  1.71546300e+00  3.83013000e-01  7.03406300e+00
  1.06475600e+00  2.36559000e-01  7.03406300e+00  1.06475600e+00  2.36559000e-01
  7.03406300e+00  1.06475600e+00  2.36559000e-01  7.03406300e+00  1.06475600e+00
  2.36559000e-01  7.03406300e+00  1.06475600e+00  2.36559000e-01
Contraction coefficients                   R   N=         114
  7.04520124e-02  4.07826072e-01  6.47752114e-01  7.07400095e-02  3.95380053e-01
  6.63311089e-01 -8.13799884e-02  5.74852918e-01  5.02412928e-01  1.09930928e-01
  4.62712695e-01  6.27513586e-01  6.90600291e-02  3.93159166e-01  6.65669281e-01
 -8.08199297e-02  5.82089494e-01  4.97159568e-01  1.24271003e-01  4.76594010e-01
  6.13044013e-01  7.07400095e-02  3.95380053e-01  6.63311089e-01 -8.13799884e-02
  5.74852918e-01  5.02412928e-01  1.09930928e-01  4.62712695e-01  6.27513586e-01
  7.04520124e-02  4.07826072e-01  6.47752114e-01  7.04520124e-02  4.07826072e-01
  6.47752114e-01  7.07400095e-02  3.95380053e-01  6.63311089e-01 -8.13799884e-02
  5.74852918e-01  5.02412928e-01  1.09930928e-01  4.62712695e-01  6.27513586e-01
  7.07400095e-02  3.95380053e-01  6.63311089e-01 -8.13799884e-02  5.74852918e-01
  5.02412928e-01  1.09930928e-01  4.62712695e-01  6.27513586e-01  7.07400095e-02
  3.95380053e-01  6.63311089e-01 -8.13799884e-02  5.74852918e-01  5.02412928e-01
  1.09930928e-01  4.62712695e-01  6.27513586e-01  7.07400095e-02  3.95380053e-01
  6.63311089e-01 -8.13799884e-02  5.74852918e-01  5.02412928e-01  1.09930928e-01
  4.62712695e-01  6.27513586e-01  7.07400095e-02  3.95380053e-01  6.63311089e-01
 -8.13799884e-02  5.74852918e-01  5.02412928e-01  1.09930928e-01  4.62712695e-01
  6.27513586e-01  7.07400095e-02  3.95380053e-01  6.63311089e-01 -8.13799884e-02
  5.74852918e-01  5.02412928e-01  1.09930928e-01  4.62712695e-01  6.27513586e-01
  6.90600291e-02  3.93159166e-01  6.65669281e-01 -8.08199297e-02  5.82089494e-01
  4.97159568e-01  1.24271003e-01  4.76594010e-01  6.13044013e-01  7.04520124e-02
  4.07826072e-01  6.47752114e-01  7.04520124e-02  4.07826072e-01  6.47752114e-01
  7.04520124e-02  4.07826072e-01  6.47752114e-01  7.04520124e-02  4.07826072e-01
  6.47752114e-01  7.04520124e-02  4.07826072e-01  6.47752114e-01
Coordinates of each shell                  R   N=         114
 -6.90066489e+00 -1.91408363e+00 -1.29691578e-01 -6.12379848e+00 -1.19938921e+00
  1.64910762e+00 -6.12379848e+00 -1.19938921e+00  1.64910762e+00 -6.12379848e+00
 -1.19938921e+00  1.64910762e+00 -3.76277466e+00  3.85703761e-02  1.22013979e+00
 -3.76277466e+00  3.85703761e-02  1.22013979e+00 -3.76277466e+00  3.85703761e-02
  1.22013979e+00 -1.95071628e+00 -1.48795039e+00  2.43529332e-01 -1.95071628e+00
 -1.48795039e+00  2.43529332e-01 -1.95071628e+00 -1.48795039e+00  2.43529332e-01
 -5.89948799e+00 -2.73101223e+00  3.02104879e+00 -7.44150451e+00  1.88803603e-01
  2.42767479e+00  4.41488025e-01 -5.70497659e-02 -1.61250004e-01  4.41488025e-01
 -5.70497659e-02 -1.61250004e-01  4.41488025e-01 -5.70497659e-02 -1.61250004e-01
  4.73645756e+00 -6.63094239e-02 -1.68890460e+00  4.73645756e+00 -6.63094239e-02
 -1.68890460e+00  4.73645756e+00 -6.63094239e-02 -1.68890460e+00  4.92902065e+00
  2.46006543e+00 -9.33203126e-01  4.92902065e+00  2.46006543e+00 -9.33203126e-01
  4.92902065e+00  2.46006543e+00 -9.33203126e-01  2.48314813e+00 -1.34414223e+00
 -1.28563705e+00  2.48314813e+00 -1.34414223e+00 -1.28563705e+00  2.48314813e+00
 -1.34414223e+00 -1.28563705e+00  2.96824083e+00  3.78306269e+00  1.72664602e-01
  2.96824083e+00  3.78306269e+00  1.72664602e-01  2.96824083e+00  3.78306269e+00
  1.72664602e-01  6.96034134e-01  2.49956071e+00  5.55901060e-01  6.96034134e-01
  2.49956071e+00  5.55901060e-01  6.96034134e-01  2.49956071e+00  5.55901060e-01
 -2.19619170e+00 -3.72614201e+00 -2.54980420e-01 -2.19619170e+00 -3.72614201e+00
 -2.54980420e-01 -2.19619170e+00 -3.72614201e+00 -2.54980420e-01  2.24938901e+00
 -3.31266993e+00 -1.80757940e+00  3.17081947e+00  5.74403149e+00  7.32401481e-01
 -8.72438550e-01  3.50470604e+00  1.42668686e+00  6.24729360e+00 -9.65252142e-01
 -2.53323424e+00  6.62334910e+00  3.38319665e+00 -1.21647307e+00
Total Energy                               R     -4.541884196494370e+02
Alpha Orbital Energies                     R   N=          58
 -2.03784703e+01 -2.03301473e+01 -1.13613275e+01 -1.12373898e+01 -1.12019181e+01
 -1.11959400e+01 -1.11955510e+01 -1.11953812e+01 -1.11885766e+01 -1.11877338e+01
 -1.45642437e+00 -1.35225720e+00 -1.17559499e+00 -1.05423756e+00 -1.03712237e+00
 -9.70216763e-01 -8.67712574e-01 -8.38593429e-01 -7.71976549e-01 -7.33966071e-01
 -6.82924606e-01 -6.73777801e-01 -6.52915075e-01 -6.34319867e-01 -6.11872299e-01
 -6.04700016e-01 -5.76364061e-01 -5.68525535e-01 -5.19816655e-01 -5.18756094e-01
 -5.05932457e-01 -4.91139320e-01 -4.31644275e-01 -4.26196242e-01 -3.62344848e-01
 -3.56761114e-01  1.21759309e-01  1.75948797e-01  2.69882303e-01  4.31005975e-01
  4.55975244e-01  5.46597801e-01  5.90573774e-01  6.22178485e-01  6.39418346e-01
  6.52245764e-01  6.76803257e-01  6.77474056e-01  6.86917117e-01  7.01673819e-01
  7.23349694e-01  8.06848233e-01  8.65396030e-01  8.81930884e-01  8.92217907e-01
  9.59059190e-01  1.05483460e+00  1.11534129e+00
Alpha MO coefficients                      R   N=        3364
 -3.09201060e-04 -7.59648995e-04  8.60446187e-03  7.29685759e-03  4.04707408e-03
 -1.26776062e-03 -9.90131407e-01 -4.99960382e-02  7.72674396e-06  7.25222340e-03
  1.88891151e-03 -7.50425027e-04  9.92994997e-03 -7.51557251e-03  6.43795047e-03
  4.07917663e-03 -3.08377790e-04 -4.33248363e-04  9.70474018e-06 -3.42680324e-04
  3.17749997e-04 -6.71409021e-04 -2.79893921e-04 -4.96336659e-06  1.59482056e-04
 -8.42255243e-05 -5.26334705e-05  1.11369159e-05  2.09849031e-07 -3.91216201e-06
  5.70765145e-06  2.33660659e-07 -2.59636465e-06 -2.31329050e-05 -6.58503811e-05
 -3.16417517e-04 -2.02111061e-04  5.59009803e-05 -4.86545825e-06  1.51452484e-04
 -7.91363814e-05 -4.87620488e-05  1.75246536e-05 -1.06358642e-05  4.62111351e-05
 -2.31814708e-04 -3.85628684e-04 -6.82479985e-05 -1.76591316e-04  3.03625318e-04
  1.36444476e-03 -1.45225586e-04 -4.75334988e-04  3.57058008e-05  1.46121823e-06
  5.46109699e-04 -2.36461582e-06  1.70116546e-06 -5.05726783e-05 -1.77222455e-05
  1.21724779e-04  1.91094174e-04 -1.62977394e-04 -1.01954617e-04  2.09849663e-04
  3.34412990e-04  8.98264733e-04  1.08465076e-03 -9.13782504e-06 -7.79872838e-04
  1.53402615e-02 -1.66076262e-03 -1.46560091e-02 -3.24816751e-03 -5.00503053e-05
  9.88333518e-05  2.27271766e-05  3.36974498e-04 -8.14050237e-04  1.06685765e-03
  5.46432023e-04 -1.20145224e-06  1.90248810e-05 -1.42926145e-05 -1.41360279e-05
 -2.78961733e-06 -1.08184716e-07 -9.36452700e-07  1.15659545e-06  1.43860862e-06
  8.49291392e-07  4.93075849e-06  1.35192062e-04 -1.66120402e-04  2.07860136e-04
  1.44869607e-04 -5.82766649e-06  1.57466675e-04 -8.52106819e-05 -5.72387392e-05
  1.20328338e-05 -1.55101389e-05 -3.10196017e-04 -3.03964409e-04 -8.47121093e-07
  1.10143055e-04 -9.90336201e-01 -4.97756206e-02 -1.15463046e-03 -1.10414950e-02
 -2.47565445e-03  3.88489431e-04  1.19921775e-06 -2.13090228e-05  3.23921317e-06
  2.02153381e-06  2.52339005e-04  3.14878368e-03  1.68576383e-03  2.31246537e-03
 -4.79510482e-04 -8.61807663e-04 -7.71316355e-04  7.97147191e-03  4.02394343e-03
 -2.49079154e-03 -1.93448031e-03 -9.89281779e-01 -5.42138217e-02 -9.71474602e-04
 -2.30858545e-04  2.68416312e-04  2.48984722e-04  5.48020289e-04  6.02543170e-03
  1.05337993e-02 -7.25033815e-03 -4.57365612e-03  1.16322116e-03  1.84755937e-04
  2.08463523e-04 -2.61121497e-04  5.17636943e-05  1.11150264e-04  7.62885288e-05
 -6.74325737e-05 -9.56060066e-05 -5.22669244e-05  1.66571342e-05  7.71533699e-04
  3.07926590e-04 -5.13584706e-04  1.02255689e-04  2.04515690e-04  1.20791930e-04
  5.10661112e-05 -3.34360945e-05 -1.88910035e-04 -5.16085022e-05  6.56082864e-04
  5.47882224e-04  6.93613724e-05 -4.44039661e-04 -1.57241931e-04 -6.06605431e-04
  1.04099494e-02  3.96670971e-04  3.78933663e-03  8.49812074e-04  3.85813851e-04
  8.13164807e-05  2.06301081e-04  9.39434769e-05  7.26564036e-05  1.26398100e-02
 -9.88488380e-01 -6.07737142e-02  8.87254756e-04  2.32789299e-04 -2.21809147e-04
 -8.96784263e-04  7.80820599e-03 -5.39023991e-03 -1.71369117e-03  1.26932863e-03
 -3.65866316e-03  1.70543787e-03 -2.25668263e-03 -1.54146629e-04  6.81643202e-04
  1.26404078e-02  1.27189225e-02  1.42129101e-03  5.38862965e-04 -2.75749521e-04
 -2.47556796e-04  2.65971492e-05  4.46104896e-05  2.52451421e-05 -1.75350307e-05
 -3.32756622e-06  4.77610749e-06  7.94604296e-06 -4.10962553e-06 -1.78928272e-06
 -1.26076558e-06  8.82924611e-08  1.38479381e-04 -1.22452369e-05 -4.39993926e-05
 -2.14892360e-05  1.02609048e-05  5.44405774e-05  2.96494698e-05 -1.46457111e-05
 -1.60049783e-05  7.68279453e-07  1.32838368e-04 -1.01702934e-05 -3.53512153e-05
 -4.93436601e-05 -7.09041337e-06 -4.09759126e-05 -1.91681413e-05 -3.23288178e-04
 -1.76263141e-04  5.76057905e-05  1.56103135e-05  2.76651092e-06  7.03850709e-05
  2.85966499e-06  2.60912512e-06  1.33260723e-06  1.39874376e-03 -9.40500018e-05
 -3.17231889e-04  2.05907222e-04  1.51746645e-04  1.86499260e-05 -2.66052779e-05
  7.66305876e-05 -2.06545317e-05 -1.42708884e-05  7.32055825e-03 -1.01744120e-02
 -6.83925562e-03 -4.13671114e-03  1.13556378e-03  2.41746744e-06 -1.38638498e-04
  9.70816176e-01  6.39884798e-02  2.17004325e-03  8.44792628e-04 -4.54462580e-04
 -6.92544203e-04  1.34975787e-03 -7.61041880e-04 -1.51929473e-04  2.26911312e-04
 -7.21044951e-03 -5.83013458e-04  3.75390769e-04  1.86506622e-04 -7.25409340e-05
 -1.29724054e-01 -1.99090179e-02  6.73976244e-03 -4.57293526e-03 -3.81853512e-03
  2.18738563e-04  1.36657933e-03 -5.19509755e-04 -6.60921206e-04 -2.90614239e-05
 -1.30577315e-01 -1.97281773e-02  6.26922711e-04  8.53760137e-03  2.46447888e-03
  1.46803177e-05 -2.58862224e-04  4.96609493e-04  1.35659006e-04 -1.33928842e-04
  1.15082229e-03 -3.00937727e-06  1.12478586e-03 -3.35089453e-05 -3.85280713e-05
  2.20245900e-06  1.29374172e-05 -7.13781890e-06 -7.18299911e-06  1.00525945e-05
  4.51846550e-06  2.80786425e-06  5.31118178e-06  1.19994312e-05 -7.66318982e-05
 -2.11920615e-05  7.15995329e-06 -1.19827930e-04 -7.52083891e-05 -4.05823778e-05
  1.55037857e-05  2.22017489e-06 -2.00975861e-06  8.10337483e-03 -3.68263654e-05
  4.12809580e-03 -9.39442439e-03 -4.42022643e-03  6.38549170e-02  1.27392507e-02
 -5.22877149e-03 -3.02130887e-03  9.21990652e-04 -1.61611324e-02 -8.30549435e-04
 -1.75812249e-04  4.28384079e-04  2.03637148e-04 -6.66774515e-01 -4.27234021e-02
 -3.53757655e-04 -2.14724734e-03 -5.51470519e-04 -7.72514154e-02 -1.37461043e-02
  5.93349911e-03  3.21477107e-03 -1.04775632e-03  7.22534614e-01  4.59238415e-02
  2.04834141e-03 -5.28891604e-04 -8.47341747e-04  5.18028018e-06 -3.60352748e-05
 -9.34051489e-06 -5.97673728e-05 -1.02982298e-05  7.71979343e-03  6.43206624e-04
 -8.38247740e-03 -5.95934005e-04  1.73784931e-04  5.64217430e-06  3.67985955e-04
 -7.68307433e-05 -1.02289744e-04  2.28935535e-05  3.85470204e-05  3.54063452e-05
 -1.50666543e-04 -2.28168416e-04 -1.21247301e-04  3.90346232e-05  2.03255773e-03
 -2.07066021e-03 -1.47395888e-03 -7.12954471e-04  2.94256813e-04  5.29976355e-06
 -2.25027863e-05  1.46087210e-01 -4.32123512e-03 -4.33299404e-03 -1.94650895e-03
  9.17682504e-04 -5.49173039e-03 -7.88167741e-04  5.39007398e-03  7.88516015e-03
  6.14725929e-04 -5.80436349e-01 -3.73173067e-02  1.00718997e-03  4.08583911e-04
 -2.16260454e-04  5.85584193e-01  3.47671545e-02  1.83669809e-03  1.02064472e-03
 -3.21216675e-04 -5.06435683e-03  3.60586626e-04  8.53039840e-03 -1.62771411e-04
 -3.03289520e-03  5.25765190e-01  3.08798750e-02  1.75875165e-03  1.22795380e-03
 -2.04222661e-04  1.46193785e-05 -4.72717604e-05 -1.36362595e-05  3.00130653e-05
  1.37479332e-05 -6.89985500e-03  8.50811811e-06 -6.16052018e-03 -3.49192910e-05
  7.26279474e-03  4.04239163e-06  2.68718535e-04 -5.35109572e-05 -7.49158718e-05
  2.03293732e-05  2.89709650e-05  2.33019524e-05 -9.61233560e-05 -1.49308325e-04
 -7.99001164e-05  2.60629219e-05  1.56682708e-03 -1.72174692e-03 -1.18744601e-03
 -6.04274851e-04  2.30601121e-04  3.83693886e-06 -1.80340186e-05  1.12306878e-01
 -2.62654937e-03 -3.47133989e-03 -1.79039161e-03  6.56174227e-04 -1.37768544e-01
 -2.37068447e-02  3.10014261e-03 -5.14905649e-03 -2.80912817e-03  7.83888610e-01
  5.30718866e-02 -1.96050652e-03 -7.17594974e-04  4.40421057e-04  4.02363434e-01
  2.49469603e-02  1.86930226e-03  1.13125202e-03 -3.07229319e-04 -1.45636158e-01
 -2.42004235e-02 -2.32331177e-03  5.97651223e-03  2.71176861e-03  3.84215367e-01
  2.37929362e-02  1.89757944e-03  1.23629546e-03 -2.56996970e-04  9.44421873e-06
 -3.43698245e-05  5.33383825e-06  2.25682562e-05  4.70669863e-06 -4.82634005e-03
  1.08210100e-03 -4.65545068e-03  1.10483788e-03 -1.02015734e-02  3.67927469e-06
  7.14270443e-05 -3.06539197e-05 -2.64463819e-05  1.55776716e-06  9.58644087e-06
  9.90886125e-06  1.51975556e-05 -7.83727429e-05 -1.04668932e-04 -4.76459054e-06
  2.47028993e-04 -1.88966483e-04 -1.01422828e-04 -2.85200260e-04 -4.86905930e-05
  3.51067411e-06 -1.83732193e-06  1.23406403e-02 -6.21508340e-04  2.27319976e-04
 -1.59292543e-03 -5.85629532e-04 -2.96575951e-01 -2.00543080e-02  4.38755112e-05
 -1.47444530e-03 -4.98837289e-04  7.71561081e-02 -3.64200656e-03  6.46373146e-03
 -7.37272603e-03 -4.62676232e-03 -2.03569116e-02  2.16967701e-03  2.50226718e-03
  9.31146316e-04 -6.00947652e-04  9.33261584e-01  5.64178660e-02  3.40155894e-04
 -2.04380460e-03 -7.55369346e-04  1.10408908e-01 -5.23309599e-03 -7.27357610e-03
 -4.42748840e-03  1.12773387e-03  8.43945234e-06 -9.97623708e-05  1.84621602e-06
 -5.17135893e-05 -1.20792689e-05  2.40372226e-04 -1.09991310e-02 -1.69742772e-03
  3.67071079e-03 -1.33013871e-03  1.01951602e-06  1.14923429e-04 -2.70479046e-05
 -3.69239379e-05  6.47683073e-06  1.37548429e-05  1.51298313e-05 -8.93686132e-05
 -9.32207189e-05 -1.46839958e-05  2.23958405e-05  5.80909358e-04 -4.59365447e-04
 -4.48751441e-04 -6.79894873e-05  1.33525747e-04  6.11762512e-07 -8.47401312e-06
  2.17250540e-02 -1.04796705e-03 -1.09979020e-03  1.81483936e-04  4.49625068e-04
  9.30667674e-01  5.59187596e-02 -9.45663584e-04 -1.27843934e-04  3.02021970e-04
  1.39818059e-01 -6.59785616e-03  2.35977080e-03  6.99639652e-03  1.46171144e-03
  1.03653038e-01 -5.99180282e-03 -7.53028424e-03 -4.09851880e-03  1.40158259e-03
  2.81229654e-01  1.47644194e-02 -1.18441815e-03 -2.68956426e-05  4.11588192e-04
  4.55783579e-02 -1.33938400e-03 -2.47643507e-03 -1.00795452e-03  5.48101163e-04
  6.68548077e-06  1.42303036e-05 -3.42706393e-05  1.96786751e-05  1.82282098e-05
 -1.71989469e-03 -3.43987721e-03 -8.39413599e-04 -1.20368342e-02 -2.40870770e-03
  1.35036898e-02 -4.60230369e-02  1.07138494e-01  5.15409682e-02  2.83049691e-02
 -9.02515670e-03 -1.59136327e-01  5.84906307e-01  2.06689198e-02 -1.09820976e-01
 -3.51649683e-02 -1.25409384e-01  2.80792568e-01 -7.21940342e-02 -3.52017010e-02
  1.40788471e-02  1.34997098e-02  1.09670286e-02 -2.04672045e-02  5.44851192e-02
 -2.74074197e-02 -1.39015520e-02  5.32615359e-03 -9.43624459e-04  2.10376577e-03
 -1.32408866e-03 -3.22869968e-04  3.77541903e-04 -5.10067573e-04  1.01543679e-03
 -4.41438530e-04 -2.27667448e-04  7.71953018e-05 -4.59633552e-03  1.13544488e-02
 -4.25085528e-03  3.20447338e-03  2.52407070e-03 -9.44018458e-04  2.34254370e-03
 -1.06753969e-03 -1.02449079e-03  4.52169326e-05 -5.10937495e-03  1.22089554e-02
 -1.09517558e-03 -6.11851937e-03 -1.59360977e-03 -1.14106818e-01  4.07422541e-01
  8.22116396e-03  1.19410116e-01  2.80861903e-02  1.82012907e-03  3.27716208e-04
  3.34476946e-03  3.60194114e-04  1.86656626e-04  1.52322079e-02 -4.76531303e-02
  1.19957153e-01  5.73227597e-02  3.00711413e-02 -1.04016564e-02 -1.38066720e-01
  5.10490916e-01 -2.45201164e-02 -6.44719699e-02 -8.93573349e-03  5.22207279e-02
 -1.15923912e-01 -4.75199764e-02  2.17534689e-01  7.15558196e-02  1.52271662e-02
  1.68850875e-02  7.25922177e-03 -2.66164445e-02  1.28126957e-02  3.39677187e-03
 -3.04283011e-03  1.19887605e-03 -1.82403684e-03  1.04970678e-03  2.09163951e-04
 -3.25006752e-04  4.03698583e-04 -9.21513035e-04  1.55499163e-04  4.42677248e-04
  9.53372246e-05  4.53731943e-03 -1.23460542e-02  6.45254904e-04 -3.21321185e-03
 -1.33211301e-03  7.74031690e-05 -8.24080930e-04  1.66553335e-04  2.87444007e-04
  3.63057014e-05 -5.50310983e-04  2.97075138e-03  3.82834412e-04  1.21025169e-03
  7.08410863e-05  1.68619204e-01 -6.07583519e-01 -1.88348322e-02 -1.39394861e-01
 -2.97830782e-02 -2.92628301e-03 -9.06363626e-06  2.90121442e-03 -4.89235857e-04
 -1.48314875e-04  6.08899627e-03 -1.09842307e-02  2.93042033e-02  7.03746902e-03
  3.86295322e-03 -1.23619367e-03 -9.21938852e-03  3.79978296e-02 -2.19666397e-02
 -9.91439343e-03  4.38542482e-03  1.41413852e-02 -4.59919998e-02 -5.46895232e-02
 -4.83763782e-02  5.20519185e-03  6.08914173e-03  5.33538099e-03  1.02798722e-01
 -2.63233763e-01 -4.45215205e-02 -2.20676140e-02  8.52672467e-03  9.68619542e-02
 -2.48842930e-01  4.99085881e-02 -2.88437333e-02 -2.75390327e-02  9.90977807e-02
 -2.53123747e-01  5.20720901e-02  2.60906463e-02 -9.50938340e-03  9.69788344e-02
 -2.51252259e-01 -5.57642435e-03 -6.44345684e-02 -1.80195074e-02  9.60559871e-02
 -2.47606529e-01  4.93590571e-03  6.59681150e-02  1.92533552e-02  9.57992719e-02
 -2.49000832e-01 -5.00167533e-02  3.08619206e-02  2.69334460e-02 -1.90706064e-02
  7.21175436e-02 -7.52845218e-03  7.67602047e-03  4.45055592e-03 -4.33529777e-02
 -4.41715871e-02 -4.27566892e-02 -4.82102780e-02 -4.93422221e-02  3.75631987e-02
 -5.26712663e-02  1.51652081e-01  1.47972973e-02  8.27780418e-03 -2.54387952e-03
 -9.23630598e-03  4.06947874e-02 -1.05831838e-01 -1.71141923e-02  2.92931520e-02
  5.50435527e-02 -1.66877189e-01 -1.06272038e-01 -1.19346758e-01  3.57130880e-03
  3.75708984e-02  3.71325115e-02  1.35387929e-01 -3.58315406e-01  1.29143497e-02
  1.43935760e-02 -3.22630802e-04 -6.39855483e-02  1.72399524e-01  3.52238591e-02
  9.25437462e-02  1.74205239e-02 -1.25804010e-01  3.38132873e-01 -3.70864935e-02
 -9.37904952e-03  9.72844140e-03  5.24067281e-02 -1.43894458e-01  1.04013771e-01
 -1.68512075e-02 -4.20765454e-02 -7.56379212e-02  2.02984084e-01  8.53287881e-02
 -3.35674223e-02 -4.04206649e-02  4.33627899e-02 -1.22055134e-01  5.60148428e-02
  1.05981937e-01  1.38588222e-02 -3.59941557e-02  1.40300104e-01 -2.52812838e-02
 -4.85142065e-03  6.96956757e-03 -3.58351354e-02  5.01944392e-02 -3.11681743e-02
  4.65263735e-02  9.21231502e-02  1.13684661e-02 -1.61011214e-02  4.71000176e-02
  4.56697486e-03  2.77748272e-03 -7.78101814e-04 -2.87496236e-03  1.25560953e-02
 -3.05065055e-02 -6.87296372e-03  7.49405813e-03  7.40284951e-03 -2.22132865e-02
  2.11182441e-03 -6.99302364e-03 -3.12039601e-03  1.13371058e-02  1.20667632e-02
  3.11015103e-03 -9.70076881e-03  6.25919604e-02 -1.18635269e-01 -5.95199121e-02
 -1.24568078e-01  3.33142008e-01 -6.96480837e-02 -4.29704020e-02  1.13346090e-02
  1.50811712e-03 -2.25983339e-03  5.92083306e-02 -1.25778662e-01 -6.13468859e-02
 -1.20162360e-01  3.25519569e-01  7.52561608e-02  4.36109694e-02 -1.32238832e-02
  1.19490096e-01 -3.21116576e-01  6.71275904e-02  4.44793679e-02 -9.34187266e-03
  1.18367752e-01 -3.22143752e-01 -7.08248028e-02 -3.87505504e-02  1.20352779e-02
  2.95242440e-03 -1.26332940e-02  4.75080537e-03 -2.71921221e-03 -2.62777673e-03
  8.26331353e-02 -8.42437711e-02 -8.21853563e-02  9.53557064e-02 -7.00966344e-04
  1.48714963e-01 -1.70595530e-01  5.16381692e-01 -3.12604063e-02 -7.92417161e-03
  7.92603766e-03  3.33019828e-02 -1.35433264e-01 -2.58756049e-01 -5.30696642e-03
  8.11473880e-02  6.38133214e-02 -1.86889805e-01  5.85308799e-02 -1.08860677e-01
 -4.71065852e-02  1.48719951e-01  1.57358699e-01 -3.37466822e-02  9.62875412e-02
  9.14277164e-02  4.19917782e-02 -1.85830276e-02  2.90228554e-02 -8.16762691e-02
 -4.14276198e-02 -6.14044224e-02 -5.00898945e-03  6.20568674e-02 -1.71271643e-01
 -1.22365290e-02  1.56301930e-02  9.37505188e-03 -4.08704344e-02  1.10429836e-01
 -4.07853943e-02  1.17642485e-02  1.83389408e-02 -1.36745335e-03  1.22179905e-03
 -7.85385293e-02 -2.36454468e-03  2.66789620e-02 -5.10067977e-02  1.40854265e-01
  1.54570342e-02 -1.87531432e-02 -1.09471748e-02 -2.11838490e-02  8.28084284e-02
 -2.07542242e-05 -2.43851418e-02 -6.47314143e-03  3.26003011e-02 -6.18045931e-04
  3.18045725e-02 -2.97301477e-02 -6.18654947e-02  8.05111876e-02 -6.60157015e-02
  2.11245636e-01 -8.05444333e-02 -4.00783008e-02  1.49517799e-02  4.00039178e-02
 -1.73662734e-01  9.85818169e-03 -1.78355477e-02 -8.87669717e-03 -6.34598782e-02
  1.96161707e-01  1.87606406e-01  9.05503422e-02 -3.79158406e-02  8.03278347e-02
  8.47699751e-02 -7.76467524e-02  2.04081894e-01 -1.19266679e-01 -1.24271777e-01
  3.63230519e-03  5.19863817e-02 -1.38201215e-01  7.33754052e-02  1.46887733e-01
  2.13090307e-02 -1.00511911e-01  2.79786254e-01  4.76881713e-02  7.13084357e-02
  6.58704570e-03  4.55407865e-02 -1.26299418e-01 -1.53255242e-01 -6.21401607e-03
  5.26585742e-02  1.66244098e-02 -4.45063885e-02  1.91575533e-01 -1.02200976e-03
 -6.70453055e-02  7.99294072e-02 -2.20337273e-01 -4.46942739e-02 -1.01668688e-01
 -1.66260499e-02  3.81661408e-02 -1.64177716e-01  6.19646415e-02  4.81795447e-02
 -7.86538539e-03 -4.37021830e-02 -1.70564231e-02 -9.40380899e-02 -6.65274167e-02
  1.47515659e-01  4.16010364e-02 -2.78211087e-02  9.04233682e-02 -5.24088494e-02
 -3.04323840e-02  9.38552751e-03  2.21438561e-02 -9.74598941e-02  3.09999753e-02
  6.12124466e-03 -5.67878131e-03 -1.10709578e-02  3.68275785e-02  2.09696238e-02
  1.52470703e-02  4.68472736e-04  4.20692950e-02  3.94761099e-02 -1.55072624e-02
  4.40378932e-02 -1.20642010e-01  2.03770689e-01  1.07125507e-01 -8.53676082e-02
  2.33486437e-01  1.38820743e-01  9.22803767e-02 -2.02391376e-02 -1.24145763e-02
  3.57888713e-02  1.07612527e-01 -1.97208485e-01 -1.01521027e-01  1.03407418e-01
 -2.88854140e-01  9.86073848e-02  6.32919704e-02 -1.53142944e-02  9.50191691e-02
 -2.61014026e-01 -9.68552106e-02 -5.44289923e-02  1.61663102e-02 -8.43650132e-02
  2.36653758e-01 -1.23585465e-01 -9.50839244e-02  1.35681603e-02 -4.66487011e-03
  2.11191045e-02 -2.32779022e-02 -2.90932391e-04  9.59360338e-03 -1.44160677e-01
 -1.34674786e-01  1.17109031e-01  1.37180674e-01  2.29196644e-02  9.75354953e-02
 -4.08190265e-02  1.34844872e-01 -1.34211194e-01 -1.30304482e-01  8.42943442e-03
  5.12809251e-02 -2.37072027e-01  1.97074159e-01 -1.29569629e-01 -9.72544933e-02
 -9.55845469e-02  2.88603389e-01  2.12032581e-02  8.72470945e-02  1.49546344e-02
  9.71806483e-02  5.29284209e-02  4.60680099e-02 -1.17276115e-01 -1.98992866e-01
 -1.25339573e-01  3.05751630e-02 -4.77430040e-02  1.49344158e-01  5.22115433e-02
 -1.54810552e-01 -6.92512142e-02  4.72309701e-02 -1.20909430e-01 -1.29418319e-02
  1.77455990e-02  9.93042605e-03 -6.21380936e-03  2.81916051e-02  1.32621937e-01
 -1.07449872e-01 -8.14279783e-02 -6.00340195e-02  1.85057745e-01 -6.61931318e-02
  1.31266612e-01  6.50522933e-02  5.12511181e-03 -3.13073819e-03  1.78263804e-02
  1.86905585e-01  5.33559064e-02  5.24880545e-02 -2.39524630e-01  1.12630220e-02
  1.31092557e-01  2.97061964e-02  6.31579935e-02  1.49033205e-01  4.31031079e-02
  1.40507808e-01 -6.10968090e-02  8.41967476e-02 -1.12310141e-02  3.13687456e-02
 -3.42966093e-02 -1.97890930e-01 -4.13165211e-02  4.62125998e-02 -2.34440180e-01
  1.82159058e-01 -2.99969286e-01 -1.37842812e-01 -3.97783288e-02  1.22016122e-01
 -2.55856411e-01  5.99960255e-04  8.21264207e-02  8.34719115e-02 -5.52574544e-02
  3.58587539e-03 -3.90675280e-03  1.04713811e-01  7.32805615e-02 -1.53160669e-02
  8.75887550e-03 -4.47685076e-02 -1.48641349e-01  5.74681489e-02  7.17637924e-02
  7.03545805e-03 -4.05067821e-02 -1.57008778e-01 -5.93412288e-02  3.52795953e-02