
    -----------------------------------------------------------------------
          Psi4: An Open-Source Ab Initio Electronic Structure Package
                               Psi4 1.5 release

                         Git: Rev {HEAD} e9f4d6d 


    D. G. A. Smith, L. A. Burns, A. C. Simmonett, R. M. Parrish,
    M. C. Schieber, R. Galvelis, P. Kraus, H. Kruse, R. Di Remigio,
    A. Alenaizan, A. M. James, S. Lehtola, J. P. Misiewicz, M. Scheurer,
    R. A. Shaw, J. B. Schriber, Y. Xie, Z. L. Glick, D. A. Sirianni,
    J. S. O'Brien, J. M. Waldrop, A. Kumar, E. G. Hohenstein,
    B. P. Pritchard, B. R. Brooks, H. F. Schaefer III, A. Yu. Sokolov,
    K. Patkowski, A. E. DePrince III, U. Bozkaya, R. A. King,
    F. A. Evangelista, J. M. Turney, T. D. Crawford, C. D. Sherrill,
    J. Chem. Phys. 152(18) 184108 (2020). https://doi.org/10.1063/5.0006002

                            Additional Code Authors
    E. T. Seidl, C. L. Janssen, E. F. Valeev, M. L. Leininger,
    J. F. Gonthier, R. M. Richard, H. R. McAlexander, M. Saitow, X. Wang,
    P. Verma, M. H. Lechner, and A. Jiang

             Previous Authors, Complete List of Code Contributors,
                       and Citations for Specific Modules
    https://github.com/psi4/psi4/blob/master/codemeta.json
    https://github.com/psi4/psi4/graphs/contributors
    http://psicode.org/psi4manual/master/introduction.html#citing-psifour

    -----------------------------------------------------------------------


    Psi4 started on: Wednesday, 08 June 2022 10:01AM

    Process ID: 1078016
    Host:       node74.bme.utexas.edu
    PSIDATADIR: /home/bdw2292/miniconda3/envs/newamoebamdpoltype/share/psi4
    Memory:     500.0 MiB
    Threads:    1
    
  ==> Input File <==

--------------------------------------------------------------------------
molecule { 
0 1
C         -0.79870       -0.46170        0.40860
N         -2.06780       -0.69620        0.96370
C         -3.34440       -0.17000        0.77570
C         -4.40600       -0.53170        1.53860
H         -2.03740       -1.38700        1.72220
C         -3.57440        0.75960       -0.34700
C         -5.84450       -0.19140        1.51590
N         -5.46230       -1.60290        3.28930
C         -4.21840       -1.48060        2.70320
C         -6.41730       -0.86260        2.60460
C         -3.69970        2.13940       -0.11620
C         -3.69150        0.26880       -1.65490
C         -3.94510        3.01080       -1.17870
C         -3.93630        1.14370       -2.71460
C         -4.06530        2.51180       -2.47540
C          0.17590       -1.45560        0.57390
C         -0.43520        0.64590       -0.34920
C          1.46150       -1.33920        0.02120
C          0.85060        0.76730       -0.90610
C          1.83080       -0.22030       -0.72870
H         -5.63160       -2.18680        4.09440
O         -3.18700       -2.02820        3.05110
H         -3.60970        2.53610        0.89250
H         -3.59150       -0.79670       -1.84880
H         -4.05260        4.07670       -0.99460
H         -4.03330        0.75700       -3.72580
H         -4.26760        3.18990       -3.30100
H         -0.06130       -2.35900        1.13380
H         -1.12070        1.46840       -0.50880
H          2.13470       -2.17740        0.17120
H          1.05380        1.68270       -1.45390
N          3.14360       -0.07970       -1.31840
H         -6.32830        0.41660        0.83670
H         -7.41520       -0.81340        2.86300
H          3.82100       -0.78160       -1.18490
H          3.36000        0.71790       -1.85340
}
memory 49GB
set_num_threads(12)
psi4_io.set_default_path("/scratch/bdw2292/Psi4-farH_in17")
set maxiter 500
set freeze_core True
set PROPERTIES_ORIGIN ["COM"]
set cubeprop_tasks ['esp']
set basis MINIX 
E, wfn = properties('hf',properties=['dipole'],return_wfn=True)
cubeprop(wfn)
fchk(wfn, "farH_in17-esp_frag.fchk")
oeprop(wfn,"WIBERG_LOWDIN_INDICES","MULLIKEN_CHARGES")
clean()
--------------------------------------------------------------------------

  Memory set to  45.635 GiB by Python driver.
  Threads set to 12 by Python driver.

*** tstart() called on node74.bme.utexas.edu
*** at Wed Jun  8 10:01:57 2022

   => Loading Basis Set <=

    Name: MINIX
    Role: ORBITAL
    Keyword: BASIS
    atoms 1, 3-4, 6-7, 9-20   entry C          line    74 file /home/bdw2292/miniconda3/envs/newamoebamdpoltype/share/psi4/basis/minix.gbs 
    atoms 2, 8, 32            entry N          line    88 file /home/bdw2292/miniconda3/envs/newamoebamdpoltype/share/psi4/basis/minix.gbs 
    atoms 5, 21, 23-31, 33-36 entry H          line    24 file /home/bdw2292/miniconda3/envs/newamoebamdpoltype/share/psi4/basis/minix.gbs 
    atoms 22                  entry O          line   102 file /home/bdw2292/miniconda3/envs/newamoebamdpoltype/share/psi4/basis/minix.gbs 


         ---------------------------------------------------------
                                   SCF
               by Justin Turney, Rob Parrish, Andy Simmonett
                          and Daniel G. A. Smith
                              RHF Reference
                       12 Threads,  46730 MiB Core
         ---------------------------------------------------------

  ==> Geometry <==

    Molecular point group: c1
    Full point group: C1

    Geometry (in Angstrom), charge = 0, multiplicity = 1:

       Center              X                  Y                   Z               Mass       
    ------------   -----------------  -----------------  -----------------  -----------------
         C            1.630287374705    -0.436571633115     0.109943293127    12.000000000000
         N            0.361187374705    -0.671071633115     0.665043293127    14.003074004430
         C           -0.915412625295    -0.144871633115     0.477043293127    12.000000000000
         C           -1.977012625295    -0.506571633115     1.239943293127    12.000000000000
         H            0.391587374705    -1.361871633115     1.423543293127     1.007825032230
         C           -1.145412625295     0.784728366885    -0.645656706873    12.000000000000
         C           -3.415512625295    -0.166271633115     1.217243293127    12.000000000000
         N           -3.033312625295    -1.577771633115     2.990643293127    14.003074004430
         C           -1.789412625295    -1.455471633115     2.404543293127    12.000000000000
         C           -3.988312625295    -0.837471633115     2.305943293127    12.000000000000
         C           -1.270712625295     2.164528366885    -0.414856706873    12.000000000000
         C           -1.262512625295     0.293928366885    -1.953556706873    12.000000000000
         C           -1.516112625295     3.035928366885    -1.477356706873    12.000000000000
         C           -1.507312625295     1.168828366885    -3.013256706873    12.000000000000
         C           -1.636312625295     2.536928366885    -2.774056706873    12.000000000000
         C            2.604887374705    -1.430471633115     0.275243293127    12.000000000000
         C            1.993787374705     0.671028366885    -0.647856706873    12.000000000000
         C            3.890487374705    -1.314071633115    -0.277456706873    12.000000000000
         C            3.279587374705     0.792428366885    -1.204756706873    12.000000000000
         C            4.259787374705    -0.195171633115    -1.027356706873    12.000000000000
         H           -3.202612625295    -2.161671633115     3.795743293127     1.007825032230
         O           -0.758012625295    -2.003071633115     2.752443293127    15.994914619570
         H           -1.180712625295     2.561228366885     0.593843293127     1.007825032230
         H           -1.162512625295    -0.771571633115    -2.147456706873     1.007825032230
         H           -1.623612625295     4.101828366885    -1.293256706873     1.007825032230
         H           -1.604312625295     0.782128366885    -4.024456706873     1.007825032230
         H           -1.838612625295     3.215028366885    -3.599656706873     1.007825032230
         H            2.367687374705    -2.333871633115     0.835143293127     1.007825032230
         H            1.308287374705     1.493528366885    -0.807456706873     1.007825032230
         H            4.563687374705    -2.152271633115    -0.127456706873     1.007825032230
         H            3.482787374705     1.707828366885    -1.752556706873     1.007825032230
         N            5.572587374705    -0.054571633115    -1.617056706873    14.003074004430
         H           -3.899312625295     0.441728366885     0.538043293127     1.007825032230
         H           -4.986212625295    -0.788271633115     2.564343293127     1.007825032230
         H            6.249987374705    -0.756471633115    -1.483556706873     1.007825032230
         H            5.788987374705     0.743028366885    -2.152056706873     1.007825032230

  Running in c1 symmetry.

  Rotational constants: A =      0.01419  B =      0.00733  C =      0.00512 [cm^-1]
  Rotational constants: A =    425.40313  B =    219.70377  C =    153.60231 [MHz]
  Nuclear repulsion = 1531.684135911941439

  Charge       = 0
  Multiplicity = 1
  Electrons    = 146
  Nalpha       = 73
  Nbeta        = 73

  ==> Algorithm <==

  SCF Algorithm Type is DF.
  DIIS enabled.
  MOM disabled.
  Fractional occupation disabled.
  Guess Type is SAD.
  Energy threshold   = 1.00e-06
  Density threshold  = 1.00e-06
  Integral threshold = 1.00e-12

  ==> Primary Basis <==

  Basis Set: MINIX
    Blend: MINIX
    Number of shells: 78
    Number of basis functions: 120
    Number of Cartesian functions: 120
    Spherical Harmonics?: true
    Max angular momentum: 1

   => Loading Basis Set <=

    Name: (MINIX AUX)
    Role: JKFIT
    Keyword: DF_BASIS_SCF
    atoms 1, 3-4, 6-7, 9-20   entry C          line   198 file /home/bdw2292/miniconda3/envs/newamoebamdpoltype/share/psi4/basis/def2-universal-jkfit.gbs 
    atoms 2, 8, 32            entry N          line   258 file /home/bdw2292/miniconda3/envs/newamoebamdpoltype/share/psi4/basis/def2-universal-jkfit.gbs 
    atoms 5, 21, 23-31, 33-36 entry H          line    18 file /home/bdw2292/miniconda3/envs/newamoebamdpoltype/share/psi4/basis/def2-universal-jkfit.gbs 
    atoms 22                  entry O          line   318 file /home/bdw2292/miniconda3/envs/newamoebamdpoltype/share/psi4/basis/def2-universal-jkfit.gbs 

  ==> Integral Setup <==

  DFHelper Memory: AOs need 0.200 GiB; user supplied 34.226 GiB. Using in-core AOs.

  ==> MemDFJK: Density-Fitted J/K Matrices <==

    J tasked:                   Yes
    K tasked:                   Yes
    wK tasked:                   No
    OpenMP threads:              12
    Memory [MiB]:             35047
    Algorithm:                 Core
    Schwarz Cutoff:           1E-12
    Mask sparsity (%):      14.3611
    Fitting Condition:        1E-10

   => Auxiliary Basis Set <=

  Basis Set: (MINIX AUX)
    Blend: DEF2-UNIVERSAL-JKFIT
    Number of shells: 615
    Number of basis functions: 1853
    Number of Cartesian functions: 2185
    Spherical Harmonics?: true
    Max angular momentum: 4

  Minimum eigenvalue in the overlap matrix is 1.7219056765E-01.
  Reciprocal condition number of the overlap matrix is 6.3604692207E-02.
    Using symmetric orthogonalization.

  ==> Pre-Iterations <==

  SCF Guess: Superposition of Atomic Densities via on-the-fly atomic UHF (no occupation information).

   -------------------------
    Irrep   Nso     Nmo    
   -------------------------
     A        120     120 
   -------------------------
    Total     120     120
   -------------------------

  ==> Iterations <==

                           Total Energy        Delta E     RMS |[F,P]|

   @DF-RHF iter SAD:  -875.49764033240365   -8.75498e+02   0.00000e+00 
   @DF-RHF iter   1:  -884.35563594593373   -8.85800e+00   3.99987e-03 DIIS
   @DF-RHF iter   2:  -884.48381691729128   -1.28181e-01   2.49224e-03 DIIS
   @DF-RHF iter   3:  -884.53228489765911   -4.84680e-02   3.75754e-04 DIIS
   @DF-RHF iter   4:  -884.53559730843688   -3.31241e-03   1.64414e-04 DIIS
   @DF-RHF iter   5:  -884.53618969520073   -5.92387e-04   6.80177e-05 DIIS
   @DF-RHF iter   6:  -884.53632761426172   -1.37919e-04   2.08133e-05 DIIS
   @DF-RHF iter   7:  -884.53633812115368   -1.05069e-05   9.37336e-06 DIIS
   @DF-RHF iter   8:  -884.53634028771990   -2.16657e-06   3.24941e-06 DIIS
   @DF-RHF iter   9:  -884.53634054483439   -2.57114e-07   1.25737e-06 DIIS
   @DF-RHF iter  10:  -884.53634057857266   -3.37383e-08   4.25437e-07 DIIS
  Energy and wave function converged.


  ==> Post-Iterations <==

    Orbital Energies [Eh]
    ---------------------

    Doubly Occupied:                                                      

       1A    -20.274475     2A    -15.453925     3A    -15.439716  
       4A    -15.382611     5A    -11.310283     6A    -11.263849  
       7A    -11.227840     8A    -11.226458     9A    -11.206509  
      10A    -11.202583    11A    -11.185970    12A    -11.185408  
      13A    -11.184753    14A    -11.183310    15A    -11.182188  
      16A    -11.167422    17A    -11.165799    18A    -11.161948  
      19A    -11.159260    20A    -11.150557    21A    -11.147422  
      22A     -1.376853    23A     -1.255247    24A     -1.250674  
      25A     -1.187782    26A     -1.169193    27A     -1.121392  
      28A     -1.072227    29A     -1.031292    30A     -1.026507  
      31A     -1.009039    32A     -0.995050    33A     -0.958389  
      34A     -0.893253    35A     -0.835190    36A     -0.833082  
      37A     -0.829034    38A     -0.798654    39A     -0.786874  
      40A     -0.753982    41A     -0.717841    42A     -0.695869  
      43A     -0.690085    44A     -0.678171    45A     -0.664040  
      46A     -0.645536    47A     -0.635755    48A     -0.629606  
      49A     -0.606244    50A     -0.605160    51A     -0.594081  
      52A     -0.592550    53A     -0.587742    54A     -0.577475  
      55A     -0.570609    56A     -0.559761    57A     -0.550669  
      58A     -0.543207    59A     -0.524855    60A     -0.516193  
      61A     -0.509913    62A     -0.496801    63A     -0.492272  
      64A     -0.476989    65A     -0.451505    66A     -0.435518  
      67A     -0.378738    68A     -0.373727    69A     -0.356011  
      70A     -0.352167    71A     -0.341604    72A     -0.291953  
      73A     -0.238048  

    Virtual:                                                              

      74A      0.124913    75A      0.171788    76A      0.177897  
      77A      0.189204    78A      0.225734    79A      0.274389  
      80A      0.366271    81A      0.408547    82A      0.441784  
      83A      0.473044    84A      0.520969    85A      0.530809  
      86A      0.561204    87A      0.586896    88A      0.603324  
      89A      0.611499    90A      0.628762    91A      0.633567  
      92A      0.634692    93A      0.647067    94A      0.652766  
      95A      0.660932    96A      0.675342    97A      0.678158  
      98A      0.685311    99A      0.697268   100A      0.707410  
     101A      0.730865   102A      0.765791   103A      0.793981  
     104A      0.806062   105A      0.840957   106A      0.859284  
     107A      0.863265   108A      0.864166   109A      0.872042  
     110A      0.878388   111A      0.883500   112A      0.896864  
     113A      0.932447   114A      0.956191   115A      1.039695  
     116A      1.045360   117A      1.071773   118A      1.103728  
     119A      1.105672   120A      1.121366  

    Final Occupation by Irrep:
              A 
    DOCC [    73 ]

  @DF-RHF Final Energy:  -884.53634057857266

   => Energetics <=

    Nuclear Repulsion Energy =           1531.6841359119414392
    One-Electron Energy =               -4245.5875382940539566
    Two-Electron Energy =                1829.3670618035396274
    Total Energy =                       -884.5363405785726627

Computation Completed


Properties will be evaluated at  -0.000000,   0.000000,   0.000000 [a0]

Properties computed using the HF density matrix

  Nuclear Dipole Moment: [e a0]
     X:     4.3520      Y:     4.4222      Z:    -7.1524

  Electronic Dipole Moment: [e a0]
     X:    -4.4671      Y:    -3.9287      Z:     6.5198

  Dipole Moment: [e a0]
     X:    -0.1152      Y:     0.4935      Z:    -0.6326     Total:     0.8106

  Dipole Moment: [D]
     X:    -0.2927      Y:     1.2544      Z:    -1.6080     Total:     2.0603


*** tstop() called on node74.bme.utexas.edu at Wed Jun  8 10:02:01 2022
Module time:
	user time   =      36.09 seconds =       0.60 minutes
	system time =       1.40 seconds =       0.02 minutes
	total time  =          4 seconds =       0.07 minutes
Total time:
	user time   =      36.09 seconds =       0.60 minutes
	system time =       1.40 seconds =       0.02 minutes
	total time  =          4 seconds =       0.07 minutes
  ==> One Electron Grid Properties (v2.0) <==

  ==> CubicScalarGrid <==

    Filepath     = .
    Total Points =          1736040
    XYZ Blocking =               10
    X Points     =              148
    Y Points     =              102
    Z Points     =              115
    X Spacing    =        2.000E-01
    Y Spacing    =        2.000E-01
    Z Spacing    =        2.000E-01
    X Minimum    =       -1.351E+01
    Y Minimum    =       -8.430E+00
    Z Minimum    =       -1.162E+01
    X Maximum    =        1.589E+01
    Y Maximum    =        1.177E+01
    Z Maximum    =        1.118E+01

  Basis Set: MINIX
    Blend: MINIX
    Number of shells: 78
    Number of basis functions: 120
    Number of Cartesian functions: 120
    Spherical Harmonics?: true
    Max angular momentum: 1

FCHKWriter: !WARNING! method 'HF'' renamed to label 'HF'.
FCHKWriter: Writing farH_in17-esp_frag.fchk with label ' SCF Density'.


Properties will be evaluated at  -0.000000,   0.000000,   0.000000 [a0]
OEProp: No title given, name of density matrix used for the following properties is 'SCF density'
  Mulliken Charges: (a.u.)
   Center  Symbol    Alpha    Beta     Spin     Total
       1     C     2.95940  2.95940  0.00000  0.08120
       2     N     3.69683  3.69683  0.00000 -0.39366
       3     C     2.91939  2.91939  0.00000  0.16122
       4     C     3.04995  3.04995  0.00000 -0.09991
       5     H     0.34513  0.34513  0.00000  0.30974
       6     C     3.01148  3.01148  0.00000 -0.02297
       7     C     3.08857  3.08857  0.00000 -0.17714
       8     N     3.70725  3.70725  0.00000 -0.41450
       9     C     2.80447  2.80447  0.00000  0.39106
      10     C     3.01440  3.01440  0.00000 -0.02881
      11     C     3.06373  3.06373  0.00000 -0.12747
      12     C     3.06132  3.06132  0.00000 -0.12265
      13     C     3.07026  3.07026  0.00000 -0.14052
      14     C     3.06900  3.06900  0.00000 -0.13801
      15     C     3.06808  3.06808  0.00000 -0.13616
      16     C     3.06684  3.06684  0.00000 -0.13368
      17     C     3.07071  3.07071  0.00000 -0.14142
      18     C     3.07882  3.07882  0.00000 -0.15764
      19     C     3.07709  3.07709  0.00000 -0.15419
      20     C     2.95114  2.95114  0.00000  0.09773
      21     H     0.36016  0.36016  0.00000  0.27968
      22     O     4.23421  4.23421  0.00000 -0.46841
      23     H     0.42629  0.42629  0.00000  0.14743
      24     H     0.42550  0.42550  0.00000  0.14899
      25     H     0.42849  0.42849  0.00000  0.14302
      26     H     0.42809  0.42809  0.00000  0.14383
      27     H     0.42886  0.42886  0.00000  0.14227
      28     H     0.42980  0.42980  0.00000  0.14041
      29     H     0.42607  0.42607  0.00000  0.14785
      30     H     0.43240  0.43240  0.00000  0.13519
      31     H     0.43359  0.43359  0.00000  0.13283
      32     N     3.75933  3.75933  0.00000 -0.51865
      33     H     0.42965  0.42965  0.00000  0.14070
      34     H     0.42551  0.42551  0.00000  0.14898
      35     H     0.37919  0.37919  0.00000  0.24163
      36     H     0.37899  0.37899  0.00000  0.24202

   Total alpha = 73.00000, Total beta = 73.00000, Total charge = -0.00000



  Wiberg Bond Indices using Orthogonal Lowdin Orbitals:

  Irrep: 1 Size: 36 x 36

                 1                   2                   3                   4                   5

    1     0.00000000000000     1.05989385152716     0.00329631133557     0.00702089150971     0.00031457952789
    2     1.05989385152716     0.00000000000000     1.18448327734817     0.07890839501405     0.89642763350859
    3     0.00329631133557     1.18448327734817     0.00000000000000     1.59326163284098     0.00019858129524
    4     0.00702089150971     0.07890839501405     1.59326163284098     0.00000000000000     0.00196585646554
    5     0.00031457952789     0.89642763350859     0.00019858129524     0.00196585646554     0.00000000000000
    6     0.00136218972354     0.00375126305031     1.00175265475454     0.00467124926446     0.00679752540939
    7     0.00104673492893     0.00948093784732     0.00313193810709     1.10307973900369     0.00009149291386
    8     0.00004781179369     0.00064539175206     0.00325276813689     0.01173544357763     0.00063653200772
    9     0.00022693193473     0.01444312186600     0.01621498600341     1.02950448346380     0.00075061723168
   10     0.00027728889257     0.01869965837874     0.06330095256400     0.01112593147884     0.00003589019827
   11     0.00019449851674     0.00754028997176     0.00308677374384     0.01137572222724     0.00046123008432
   12     0.00013264709784     0.00690296513060     0.00333863665864     0.01182562495331     0.00041601974630
   13     0.00006479432372     0.00026468353197     0.00664173620281     0.00072572223194     0.00011269200194
   14     0.00012535568523     0.00031776412642     0.00689440794613     0.00073659159417     0.00006392513534
   15     0.00005840517301     0.00236117152264     0.00037557962957     0.00214923949557     0.00021956923786
   16     1.37670317360574     0.02343318222329     0.01092159925182     0.00675188700187     0.00217351495499
   17     1.39243485492331     0.02691098835119     0.00573983785159     0.00716795930453     0.00619572819694
   18     0.00523141408034     0.00658087547708     0.00098922219719     0.00009177975775     0.00007748434701
   19     0.00523684485403     0.00718839840744     0.00051589288312     0.00008825566469     0.00029978921551
   20     0.08829755091686     0.00992362853270     0.00240505593722     0.00408591984828     0.00026850084280
   21     0.00000019013950     0.00005731675009     0.00035886249998     0.00786976985866     0.00000757181944
   22     0.00034462608426     0.03655964716595     0.05300817772378     0.05760987751032     0.03168643503331
   23     0.00001412946229     0.00005517267354     0.00273391425770     0.00002084638946     0.00006252938721
   24     0.00002036296230     0.00003370828636     0.00276961501717     0.00004555779272     0.00005848013882
   25     0.00000351505985     0.00009127215555     0.00042212389566     0.00018520685815     0.00001777969855
   26     0.00000446420932     0.00004846387096     0.00043073062956     0.00024477816071     0.00000921493731
   27     0.00000060697593     0.00000104448292     0.00010463564966     0.00000109922124     0.00000081631295
   28     0.00043698386716     0.00315163814199     0.00012696564411     0.00002209815758     0.00080372184736
   29     0.00064023689129     0.00312918410027     0.00016281798814     0.00000995843984     0.00004991094988
   30     0.00656683283854     0.00028696497155     0.00017487520158     0.00001871537125     0.00003134743195
   31     0.00636047125830     0.00037028733816     0.00000977467556     0.00001121077016     0.00014749742909
   32     0.01790932857990     0.00157788978954     0.00080792098488     0.00089770162047     0.00005678065016
   33     0.00000102342766     0.00000660037546     0.00071768760215     0.00046374773379     0.00000053068324
   34     0.00003492267624     0.00017703342341     0.00024145488212     0.00666958524964     0.00002844461276
   35     0.00001277964744     0.00000674652206     0.00000034542483     0.00000005725590     0.00000014078711
   36     0.00001514897560     0.00000537620894     0.00000094985155     0.00000009446836     0.00000050829925

                 6                   7                   8                   9                  10

    1     0.00136218972354     0.00104673492893     0.00004781179369     0.00022693193473     0.00027728889257
    2     0.00375126305031     0.00948093784732     0.00064539175206     0.01444312186600     0.01869965837874
    3     1.00175265475454     0.00313193810709     0.00325276813689     0.01621498600341     0.06330095256400
    4     0.00467124926446     1.10307973900369     0.01173544357763     1.02950448346380     0.01112593147884
    5     0.00679752540939     0.00009149291386     0.00063653200772     0.00075061723168     0.00003589019827
    6     0.00000000000000     0.00280599689498     0.00070134576521     0.00898735479594     0.00015709353152
    7     0.00280599689498     0.00000000000000     0.08111719635507     0.01241131893798     1.76872424764632
    8     0.00070134576521     0.08111719635507     0.00000000000000     1.11417582129689     1.10269080177465
    9     0.00898735479594     0.01241131893798     1.11417582129689     0.00000000000000     0.01041347338348
   10     0.00015709353152     1.76872424764632     1.10269080177465     0.01041347338348     0.00000000000000
   11     1.40975666167799     0.00018630690094     0.00011376427531     0.00110358678793     0.00116310671020
   12     1.41397304703104     0.00023698790546     0.00013903641267     0.00118799847912     0.00117523370879
   13     0.00301358357789     0.00008209311465     0.00003052517513     0.00012968428523     0.00010029225242
   14     0.00304966756114     0.00006039200329     0.00002317553538     0.00016640010402     0.00012822032280
   15     0.11249155997921     0.00007401320845     0.00006793225819     0.00047292817227     0.00015781355539
   16     0.00013760020083     0.00019971066090     0.00001035743172     0.00102571357314     0.00200991496043
   17     0.00095815197734     0.00006060325523     0.00000908359865     0.00100326544659     0.00212285248670
   18     0.00001956475966     0.00006758782254     0.00000162913553     0.00002807278442     0.00001290005040
   19     0.00013865016170     0.00004223543516     0.00000162919459     0.00005154446347     0.00003734966333
   20     0.00004522449682     0.00002997167166     0.00000268991724     0.00061891318344     0.00136474499010
   21     0.00024822301659     0.00605829242427     0.94272200097976     0.00030955475939     0.00011762701708
   22     0.00092352331850     0.01219498705511     0.13502312027472     1.72893682855600     0.00797618366234
   23     0.00043346879784     0.00002889162201     0.00001021065325     0.00006421259582     0.00000375771145
   24     0.00045990967692     0.00002486416385     0.00001030198910     0.00007293514240     0.00000184765637
   25     0.00700196851569     0.00000588836809     0.00000262779965     0.00002275923593     0.00003520410443
   26     0.00696452827288     0.00000746346214     0.00000322664605     0.00003435913526     0.00004287493873
   27     0.00022919315330     0.00000075005367     0.00000015188185     0.00000120412413     0.00000004327638
   28     0.00000437214909     0.00001203905624     0.00000045725876     0.00000633623299     0.00000148153735
   29     0.00176616579405     0.00002244603312     0.00000043166588     0.00001072847466     0.00000218979937
   30     0.00000154067477     0.00000869695323     0.00000034632546     0.00000301004181     0.00000232956637
   31     0.00002040088372     0.00000086365075     0.00000024386596     0.00000195539186     0.00000273122145
   32     0.00000723945112     0.00002096174334     0.00000025711851     0.00017859871419     0.00034512187967
   33     0.00015561644432     0.97540648783673     0.00605729519723     0.00558129350946     0.00112969137498
   34     0.00003362361156     0.00134362358455     0.00057498923576     0.00645852454972     0.97289603439970
   35     0.00000043744458     0.00000004162763     0.00000000186966     0.00000001889231     0.00000000475495
   36     0.00000005679602     0.00000005225066     0.00000000122257     0.00000003388052     0.00000002239846

                11                  12                  13                  14                  15

    1     0.00019449851674     0.00013264709784     0.00006479432372     0.00012535568523     0.00005840517301
    2     0.00754028997176     0.00690296513060     0.00026468353197     0.00031776412642     0.00236117152264
    3     0.00308677374384     0.00333863665864     0.00664173620281     0.00689440794613     0.00037557962957
    4     0.01137572222724     0.01182562495331     0.00072572223194     0.00073659159417     0.00214923949557
    5     0.00046123008432     0.00041601974630     0.00011269200194     0.00006392513534     0.00021956923786
    6     1.40975666167799     1.41397304703104     0.00301358357789     0.00304966756114     0.11249155997921
    7     0.00018630690094     0.00023698790546     0.00008209311465     0.00006039200329     0.00007401320845
    8     0.00011376427531     0.00013903641267     0.00003052517513     0.00002317553538     0.00006793225819
    9     0.00110358678793     0.00118799847912     0.00012968428523     0.00016640010402     0.00047292817227
   10     0.00116310671020     0.00117523370879     0.00010029225242     0.00012822032280     0.00015781355539
   11     0.00000000000000     0.00344567839174     1.44352163636934     0.11369923101077     0.00314951891436
   12     0.00344567839174     0.00000000000000     0.11320473426879     1.44109661877595     0.00317307726504
   13     1.44352163636934     0.11320473426879     0.00000000000000     0.00320078223336     1.43743552669229
   14     0.11369923101077     1.44109661877595     0.00320078223336     0.00000000000000     1.43941394387185
   15     0.00314951891436     0.00317307726504     1.43743552669229     1.43941394387185     0.00000000000000
   16     0.00013656159397     0.00013366998017     0.00002749507113     0.00000722074380     0.00003160149026
   17     0.00125715178483     0.00072562004337     0.00047502839293     0.00008299888826     0.00017377947112
   18     0.00005647924894     0.00004637169931     0.00002753009255     0.00004061721289     0.00003182063784
   19     0.00010668402549     0.00019860042121     0.00004322322925     0.00004834922804     0.00007346289047
   20     0.00008331556562     0.00004820689450     0.00001588872230     0.00000373397480     0.00001511172833
   21     0.00006212044762     0.00006975658324     0.00000345563618     0.00000527566901     0.00003877143848
   22     0.00123599738751     0.00131415545649     0.00013196611628     0.00014172062937     0.00016934619166
   23     0.96821342352208     0.00683276671366     0.00076337194136     0.00026395136806     0.00709665049179
   24     0.00694427956391     0.96778395152089     0.00025700910336     0.00078475366100     0.00709269655987
   25     0.00071919716106     0.00023691117303     0.96754023037807     0.00713120224205     0.00072686158633
   26     0.00024013420391     0.00073736047571     0.00712336752923     0.96740591102625     0.00072209064395
   27     0.00720806979267     0.00719993800146     0.00071200062483     0.00071767251044     0.96780405555283
   28     0.00000324479369     0.00000339202411     0.00000232319257     0.00000092970983     0.00000258546586
   29     0.00092584251194     0.00000973067165     0.00007300399194     0.00004213679705     0.00001526426944
   30     0.00000083456854     0.00000197514391     0.00000031492870     0.00000007069740     0.00000088069867
   31     0.00000941849541     0.00000580651948     0.00000581738362     0.00000259507224     0.00000201656455
   32     0.00002779624878     0.00002016764542     0.00000294430816     0.00000095807069     0.00000689828300
   33     0.00003670139892     0.00000159589061     0.00000487927075     0.00000176470649     0.00000012090053
   34     0.00000006948615     0.00000030207276     0.00000046626078     0.00000058061513     0.00000014724537
   35     0.00000166778747     0.00000166892190     0.00000036895182     0.00000007986916     0.00000087136358
   36     0.00000000673762     0.00000000238493     0.00000003160574     0.00000000971724     0.00000000198835

                16                  17                  18                  19                  20

    1     1.37670317360574     1.39243485492331     0.00523141408034     0.00523684485403     0.08829755091686
    2     0.02343318222329     0.02691098835119     0.00658087547708     0.00718839840744     0.00992362853270
    3     0.01092159925182     0.00573983785159     0.00098922219719     0.00051589288312     0.00240505593722
    4     0.00675188700187     0.00716795930453     0.00009177975775     0.00008825566469     0.00408591984828
    5     0.00217351495499     0.00619572819694     0.00007748434701     0.00029978921551     0.00026850084280
    6     0.00013760020083     0.00095815197734     0.00001956475966     0.00013865016170     0.00004522449682
    7     0.00019971066090     0.00006060325523     0.00006758782254     0.00004223543516     0.00002997167166
    8     0.00001035743172     0.00000908359865     0.00000162913553     0.00000162919459     0.00000268991724
    9     0.00102571357314     0.00100326544659     0.00002807278442     0.00005154446347     0.00061891318344
   10     0.00200991496043     0.00212285248670     0.00001290005040     0.00003734966333     0.00136474499010
   11     0.00013656159397     0.00125715178483     0.00005647924894     0.00010668402549     0.00008331556562
   12     0.00013366998017     0.00072562004337     0.00004637169931     0.00019860042121     0.00004820689450
   13     0.00002749507113     0.00047502839293     0.00002753009255     0.00004322322925     0.00001588872230
   14     0.00000722074380     0.00008299888826     0.00004061721289     0.00004834922804     0.00000373397480
   15     0.00003160149026     0.00017377947112     0.00003182063784     0.00007346289047     0.00001511172833
   16     0.00000000000000     0.00478370403678     1.45699194235234     0.11138280274964     0.00353701678944
   17     0.00478370403678     0.00000000000000     0.10567856505562     1.44369636363656     0.00325562820315
   18     1.45699194235234     0.10567856505562     0.00000000000000     0.00628279315140     1.38112653027139
   19     0.11138280274964     1.44369636363656     0.00628279315140     0.00000000000000     1.38651540646380
   20     0.00353701678944     0.00325562820315     1.38112653027139     1.38651540646380     0.00000000000000
   21     0.00000029052789     0.00000009128362     0.00000010311190     0.00000003676318     0.00000000511603
   22     0.00186838642145     0.00209087656643     0.00001285899112     0.00006758778521     0.00112684158307
   23     0.00000068233758     0.00002363587741     0.00000005599884     0.00000197684130     0.00000050684860
   24     0.00000327911977     0.00000802143448     0.00000065487689     0.00000277649192     0.00000156643941
   25     0.00000436290032     0.00000664954392     0.00000008641184     0.00000073196882     0.00000282331749
   26     0.00000139541773     0.00000225536948     0.00000001442759     0.00000134500270     0.00000058247223
   27     0.00000001712302     0.00000034570406     0.00000000952069     0.00000000989299     0.00000001018466
   28     0.96798785850206     0.00633823909316     0.00100480660916     0.00043258005226     0.00655495827453
   29     0.00693807068390     0.96410600780525     0.00037488115609     0.00117796850813     0.00644056292959
   30     0.00108792251473     0.00035428740571     0.96836111294344     0.00690091843336     0.00047208253164
   31     0.00039776714056     0.00105766538827     0.00659494177427     0.96927185505058     0.00040143396983
   32     0.00763525931282     0.00747052746255     0.03790465737209     0.03853596031364     1.08704781367248
   33     0.00000022104554     0.00000009573306     0.00000004981261     0.00000000909451     0.00000003781836
   34     0.00000636462569     0.00000072632488     0.00000174395414     0.00000029640364     0.00000022445596
   35     0.00002117830539     0.00057567085664     0.00111532739363     0.00504119685917     0.00009365704832
   36     0.00053534215557     0.00002127894432     0.00500949896280     0.00118776455276     0.00009974143209

                21                  22                  23                  24                  25

    1     0.00000019013950     0.00034462608426     0.00001412946229     0.00002036296230     0.00000351505985
    2     0.00005731675009     0.03655964716595     0.00005517267354     0.00003370828636     0.00009127215555
    3     0.00035886249998     0.05300817772378     0.00273391425770     0.00276961501717     0.00042212389566
    4     0.00786976985866     0.05760987751032     0.00002084638946     0.00004555779272     0.00018520685815
    5     0.00000757181944     0.03168643503331     0.00006252938721     0.00005848013882     0.00001777969855
    6     0.00024822301659     0.00092352331850     0.00043346879784     0.00045990967692     0.00700196851569
    7     0.00605829242427     0.01219498705511     0.00002889162201     0.00002486416385     0.00000588836809
    8     0.94272200097976     0.13502312027472     0.00001021065325     0.00001030198910     0.00000262779965
    9     0.00030955475939     1.72893682855600     0.00006421259582     0.00007293514240     0.00002275923593
   10     0.00011762701708     0.00797618366234     0.00000375771145     0.00000184765637     0.00003520410443
   11     0.00006212044762     0.00123599738751     0.96821342352208     0.00694427956391     0.00071919716106
   12     0.00006975658324     0.00131415545649     0.00683276671366     0.96778395152089     0.00023691117303
   13     0.00000345563618     0.00013196611628     0.00076337194136     0.00025700910336     0.96754023037807
   14     0.00000527566901     0.00014172062937     0.00026395136806     0.00078475366100     0.00713120224205
   15     0.00003877143848     0.00016934619166     0.00709665049179     0.00709269655987     0.00072686158633
   16     0.00000029052789     0.00186838642145     0.00000068233758     0.00000327911977     0.00000436290032
   17     0.00000009128362     0.00209087656643     0.00002363587741     0.00000802143448     0.00000664954392
   18     0.00000010311190     0.00001285899112     0.00000005599884     0.00000065487689     0.00000008641184
   19     0.00000003676318     0.00006758778521     0.00000197684130     0.00000277649192     0.00000073196882
   20     0.00000000511603     0.00112684158307     0.00000050684860     0.00000156643941     0.00000282331749
   21     0.00000000000000     0.00135514812311     0.00000217934724     0.00000276611345     0.00000047637732
   22     0.00135514812311     0.00000000000000     0.00001066065901     0.00001307917448     0.00003676566026
   23     0.00000217934724     0.00001066065901     0.00000000000000     0.00052103272424     0.00350408701567
   24     0.00000276611345     0.00001307917448     0.00052103272424     0.00000000000000     0.00010661911918
   25     0.00000047637732     0.00003676566026     0.00350408701567     0.00010661911918     0.00000000000000
   26     0.00000091002704     0.00004756019232     0.00010287679570     0.00352183754750     0.00045636045822
   27     0.00000004524786     0.00000004321769     0.00045067670332     0.00044537215405     0.00351443326148
   28     0.00000005649999     0.00001226605811     0.00000000352412     0.00000006755319     0.00000000090613
   29     0.00000025285186     0.00000574267557     0.00000043198565     0.00000174394597     0.00000025179928
   30     0.00000001107470     0.00000334256557     0.00000000748692     0.00000000139008     0.00000000254280
   31     0.00000000134439     0.00001323194072     0.00000000134495     0.00000013921720     0.00000000134536
   32     0.00000000357084     0.00028599573188     0.00000013101510     0.00000019883676     0.00000084986488
   33     0.00042170415275     0.00100819462417     0.00000436141657     0.00000277651792     0.00000070610402
   34     0.00115981898809     0.00095583007932     0.00000020013214     0.00000026379502     0.00000006487118
   35     0.00000000005318     0.00000001627143     0.00000002278578     0.00000000416618     0.00000000340203
   36     0.00000000033053     0.00000004883910     0.00000000191847     0.00000000018362     0.00000000019689

                26                  27                  28                  29                  30

    1     0.00000446420932     0.00000060697593     0.00043698386716     0.00064023689129     0.00656683283854
    2     0.00004846387096     0.00000104448292     0.00315163814199     0.00312918410027     0.00028696497155
    3     0.00043073062956     0.00010463564966     0.00012696564411     0.00016281798814     0.00017487520158
    4     0.00024477816071     0.00000109922124     0.00002209815758     0.00000995843984     0.00001871537125
    5     0.00000921493731     0.00000081631295     0.00080372184736     0.00004991094988     0.00003134743195
    6     0.00696452827288     0.00022919315330     0.00000437214909     0.00176616579405     0.00000154067477
    7     0.00000746346214     0.00000075005367     0.00001203905624     0.00002244603312     0.00000869695323
    8     0.00000322664605     0.00000015188185     0.00000045725876     0.00000043166588     0.00000034632546
    9     0.00003435913526     0.00000120412413     0.00000633623299     0.00001072847466     0.00000301004181
   10     0.00004287493873     0.00000004327638     0.00000148153735     0.00000218979937     0.00000232956637
   11     0.00024013420391     0.00720806979267     0.00000324479369     0.00092584251194     0.00000083456854
   12     0.00073736047571     0.00719993800146     0.00000339202411     0.00000973067165     0.00000197514391
   13     0.00712336752923     0.00071200062483     0.00000232319257     0.00007300399194     0.00000031492870
   14     0.96740591102625     0.00071767251044     0.00000092970983     0.00004213679705     0.00000007069740
   15     0.00072209064395     0.96780405555283     0.00000258546586     0.00001526426944     0.00000088069867
   16     0.00000139541773     0.00000001712302     0.96798785850206     0.00693807068390     0.00108792251473
   17     0.00000225536948     0.00000034570406     0.00633823909316     0.96410600780525     0.00035428740571
   18     0.00000001442759     0.00000000952069     0.00100480660916     0.00037488115609     0.96836111294344
   19     0.00000134500270     0.00000000989299     0.00043258005226     0.00117796850813     0.00690091843336
   20     0.00000058247223     0.00000001018466     0.00655495827453     0.00644056292959     0.00047208253164
   21     0.00000091002704     0.00000004524786     0.00000005649999     0.00000025285186     0.00000001107470
   22     0.00004756019232     0.00000004321769     0.00001226605811     0.00000574267557     0.00000334256557
   23     0.00010287679570     0.00045067670332     0.00000000352412     0.00000043198565     0.00000000748692
   24     0.00352183754750     0.00044537215405     0.00000006755319     0.00000174394597     0.00000000139008
   25     0.00045636045822     0.00351443326148     0.00000000090613     0.00000025179928     0.00000000254280
   26     0.00000000000000     0.00351498906534     0.00000000880225     0.00000022112417     0.00000000132556
   27     0.00351498906534     0.00000000000000     0.00000001145540     0.00000000873079     0.00000000012634
   28     0.00000000880225     0.00000001145540     0.00000000000000     0.00082048014612     0.00368252320738
   29     0.00000022112417     0.00000000873079     0.00082048014612     0.00000000000000     0.00005373957823
   30     0.00000000132556     0.00000000012634     0.00368252320738     0.00005373957823     0.00000000000000
   31     0.00000003701843     0.00000001279515     0.00003560632557     0.00361776310640     0.00081507512668
   32     0.00000029501033     0.00000000082068     0.00038313394909     0.00033824421478     0.00333945890332
   33     0.00000054873801     0.00000000958563     0.00000000006661     0.00000016778506     0.00000000395749
   34     0.00000006978473     0.00000000515301     0.00000040017593     0.00000058299860     0.00000043860964
   35     0.00000000205142     0.00000000014843     0.00001148691523     0.00014883583457     0.00041315483975
   36     0.00000000012854     0.00000000001390     0.00015494488541     0.00001366042508     0.00010221463374

                31                  32                  33                  34                  35

    1     0.00636047125830     0.01790932857990     0.00000102342766     0.00003492267624     0.00001277964744
    2     0.00037028733816     0.00157788978954     0.00000660037546     0.00017703342341     0.00000674652206
    3     0.00000977467556     0.00080792098488     0.00071768760215     0.00024145488212     0.00000034542483
    4     0.00001121077016     0.00089770162047     0.00046374773379     0.00666958524964     0.00000005725590
    5     0.00014749742909     0.00005678065016     0.00000053068324     0.00002844461276     0.00000014078711
    6     0.00002040088372     0.00000723945112     0.00015561644432     0.00003362361156     0.00000043744458
    7     0.00000086365075     0.00002096174334     0.97540648783673     0.00134362358455     0.00000004162763
    8     0.00000024386596     0.00000025711851     0.00605729519723     0.00057498923576     0.00000000186966
    9     0.00000195539186     0.00017859871419     0.00558129350946     0.00645852454972     0.00000001889231
   10     0.00000273122145     0.00034512187967     0.00112969137498     0.97289603439970     0.00000000475495
   11     0.00000941849541     0.00002779624878     0.00003670139892     0.00000006948615     0.00000166778747
   12     0.00000580651948     0.00002016764542     0.00000159589061     0.00000030207276     0.00000166892190
   13     0.00000581738362     0.00000294430816     0.00000487927075     0.00000046626078     0.00000036895182
   14     0.00000259507224     0.00000095807069     0.00000176470649     0.00000058061513     0.00000007986916
   15     0.00000201656455     0.00000689828300     0.00000012090053     0.00000014724537     0.00000087136358
   16     0.00039776714056     0.00763525931282     0.00000022104554     0.00000636462569     0.00002117830539
   17     0.00105766538827     0.00747052746255     0.00000009573306     0.00000072632488     0.00057567085664
   18     0.00659494177427     0.03790465737209     0.00000004981261     0.00000174395414     0.00111532739363
   19     0.96927185505058     0.03853596031364     0.00000000909451     0.00000029640364     0.00504119685917
   20     0.00040143396983     1.08704781367248     0.00000003781836     0.00000022445596     0.00009365704832
   21     0.00000000134439     0.00000000357084     0.00042170415275     0.00115981898809     0.00000000005318
   22     0.00001323194072     0.00028599573188     0.00100819462417     0.00095583007932     0.00000001627143
   23     0.00000000134495     0.00000013101510     0.00000436141657     0.00000020013214     0.00000002278578
   24     0.00000013921720     0.00000019883676     0.00000277651792     0.00000026379502     0.00000000416618
   25     0.00000000134536     0.00000084986488     0.00000070610402     0.00000006487118     0.00000000340203
   26     0.00000003701843     0.00000029501033     0.00000054873801     0.00000006978473     0.00000000205142
   27     0.00000001279515     0.00000000082068     0.00000000958563     0.00000000515301     0.00000000014843
   28     0.00003560632557     0.00038313394909     0.00000000006661     0.00000040017593     0.00001148691523
   29     0.00361776310640     0.00033824421478     0.00000016778506     0.00000058299860     0.00014883583457
   30     0.00081507512668     0.00333945890332     0.00000000395749     0.00000043860964     0.00041315483975
   31     0.00000000000000     0.00329312384592     0.00000000403421     0.00000000947602     0.00011543354811
   32     0.00329312384592     0.00000000000000     0.00000001091123     0.00000006341719     0.96494576728213
   33     0.00000000403421     0.00000001091123     0.00000000000000     0.00141415294725     0.00000000018706
   34     0.00000000947602     0.00000006341719     0.00141415294725     0.00000000000000     0.00000000127252
   35     0.00011543354811     0.96494576728213     0.00000000018706     0.00000000127252     0.00000000000000
   36     0.00043547919619     0.96480779539403     0.00000000007609     0.00000000138982     0.00006202477757

                36

    1     0.00001514897560
    2     0.00000537620894
    3     0.00000094985155
    4     0.00000009446836
    5     0.00000050829925
    6     0.00000005679602
    7     0.00000005225066
    8     0.00000000122257
    9     0.00000003388052
   10     0.00000002239846
   11     0.00000000673762
   12     0.00000000238493
   13     0.00000003160574
   14     0.00000000971724
   15     0.00000000198835
   16     0.00053534215557
   17     0.00002127894432
   18     0.00500949896280
   19     0.00118776455276
   20     0.00009974143209
   21     0.00000000033053
   22     0.00000004883910
   23     0.00000000191847
   24     0.00000000018362
   25     0.00000000019689
   26     0.00000000012854
   27     0.00000000001390
   28     0.00015494488541
   29     0.00001366042508
   30     0.00010221463374
   31     0.00043547919619
   32     0.96480779539403
   33     0.00000000007609
   34     0.00000000138982
   35     0.00006202477757
   36     0.00000000000000



  Atomic Valences: 

 #  #
 Irrep: 1
      1:    3.974331753406197
      2:    3.403715823824269
      3:    3.971872696616276
      4:    3.960342629556300
      5:    0.950468872339600
      6:    3.992820652614439
      7:    3.978065854498916
      8:    3.399808599378419
      9:    3.954598569429999
     10:    3.966254911848047
     11:    3.986067001908624
     12:    3.985620256063110
     13:    3.985739202993048
     14:    3.985659008315054
     15:    3.985605314437978
     16:    3.986887066806285
     17:    3.984788539697915
     18:    3.983763983451278
     19:    3.984571289753069
     20:    3.983885887044745
     21:    0.960872689944262
     22:    2.076171069325634
     23:    0.991220830346135
     24:    0.990992474036368
     25:    0.991778025299183
     26:    0.991670278901265
     27:    0.991907282518753
     28:    0.991998002080394
     29:    0.990899666663610
     30:    0.992685034610812
     31:    0.993000673509114
     32:    3.137849855989583
     33:    0.992418090960475
     34:    0.992001060760434
     35:    0.972569015118923
     36:    0.972452095222346


    Psi4 stopped on: Wednesday, 08 June 2022 10:03AM
    Psi4 wall time for execution: 0:01:05.28

*** Psi4 exiting successfully. Buy a developer a beer!
