
    -----------------------------------------------------------------------
          Psi4: An Open-Source Ab Initio Electronic Structure Package
                               Psi4 1.5 release

                         Git: Rev {HEAD} e9f4d6d 


    D. G. A. Smith, L. A. Burns, A. C. Simmonett, R. M. Parrish,
    M. C. Schieber, R. Galvelis, P. Kraus, H. Kruse, R. Di Remigio,
    A. Alenaizan, A. M. James, S. Lehtola, J. P. Misiewicz, M. Scheurer,
    R. A. Shaw, J. B. Schriber, Y. Xie, Z. L. Glick, D. A. Sirianni,
    J. S. O'Brien, J. M. Waldrop, A. Kumar, E. G. Hohenstein,
    B. P. Pritchard, B. R. Brooks, H. F. Schaefer III, A. Yu. Sokolov,
    K. Patkowski, A. E. DePrince III, U. Bozkaya, R. A. King,
    F. A. Evangelista, J. M. Turney, T. D. Crawford, C. D. Sherrill,
    J. Chem. Phys. 152(18) 184108 (2020). https://doi.org/10.1063/5.0006002

                            Additional Code Authors
    E. T. Seidl, C. L. Janssen, E. F. Valeev, M. L. Leininger,
    J. F. Gonthier, R. M. Richard, H. R. McAlexander, M. Saitow, X. Wang,
    P. Verma, M. H. Lechner, and A. Jiang

             Previous Authors, Complete List of Code Contributors,
                       and Citations for Specific Modules
    https://github.com/psi4/psi4/blob/master/codemeta.json
    https://github.com/psi4/psi4/graphs/contributors
    http://psicode.org/psi4manual/master/introduction.html#citing-psifour

    -----------------------------------------------------------------------


    Psi4 started on: Wednesday, 08 June 2022 11:28AM

    Process ID: 1095088
    Host:       node74.bme.utexas.edu
    PSIDATADIR: /home/bdw2292/miniconda3/envs/newamoebamdpoltype/share/psi4
    Memory:     500.0 MiB
    Threads:    1
    
  ==> Input File <==

--------------------------------------------------------------------------
molecule { 
0 1
 C    1.982558   -0.609775   -0.454008
 N    0.890903    0.290243   -0.702089
 C   -0.432555    0.127270   -0.074051
 C   -0.684572   -0.822747    0.962238
 C    1.094722    1.529771   -1.517981
 C   -1.557181    0.886460   -0.533092
 C   -1.961838   -0.976398    1.517861
 C   -3.035267   -0.206285    1.065257
 C   -2.826849    0.718201    0.039570
 H    0.115191   -1.446986    1.348851
 H   -1.467501    1.611763   -1.342776
 C    3.345287   -0.278133   -1.075862
 O    1.885269   -1.629783    0.228098
 H    0.589173    1.429878   -2.479786
 H    0.696303    2.399585   -0.992636
 H    2.139238    1.753219   -1.718889
 H   -2.113261   -1.706706    2.314941
 H   -3.660305    1.320659   -0.327486
 H    3.274913   -0.169933   -2.158513
 H    3.768533    0.624312   -0.634150
 H   -4.026217   -0.328050    1.506405
 H    4.040137   -1.095269   -0.875640
}
set optking { 
  frozen_dihedral = ("
    1 2 3 4
    12 1 2 3
  ")
}
set {
  geom_maxiter 400
  g_convergence GAU_LOOSE
  dynamic_level 1
}
memory 8.166666666666666GB
set_num_threads(2)
psi4_io.set_default_path("/scratch/bdw2292/Psi4-3_24_Index_0-farH_in17")
for _ in range(1):
  try:
    set opt_coordinates both
    optimize('wb97x-d/6-311G')
    break
  except OptimizationConvergenceError:
    break
  else:
    try:
      set opt_coordinates cartesian
      optimize('wb97x-d/6-311G')
      break
    except OptimizationConvergenceError:
      pass
clean()
--------------------------------------------------------------------------

  Memory set to   7.606 GiB by Python driver.
  Threads set to 2 by Python driver.

Scratch directory: /scratch/bdw2292/Psi4-3_24_Index_0-farH_in17/

Scratch directory: /scratch/bdw2292/Psi4-3_24_Index_0-farH_in17/
gradient() will perform analytic gradient computation.

*** tstart() called on node74.bme.utexas.edu
*** at Wed Jun  8 11:28:41 2022

   => Loading Basis Set <=

    Name: 6-311G
    Role: ORBITAL
    Keyword: BASIS
    atoms 1, 3-9, 12   entry C          line    92 file /home/bdw2292/miniconda3/envs/newamoebamdpoltype/share/psi4/basis/6-311g.gbs 
    atoms 2            entry N          line   109 file /home/bdw2292/miniconda3/envs/newamoebamdpoltype/share/psi4/basis/6-311g.gbs 
    atoms 10-11, 14-22 entry H          line    21 file /home/bdw2292/miniconda3/envs/newamoebamdpoltype/share/psi4/basis/6-311g.gbs 
    atoms 13           entry O          line   126 file /home/bdw2292/miniconda3/envs/newamoebamdpoltype/share/psi4/basis/6-311g.gbs 

   => WB97X-D: Empirical Dispersion <=

    Chai and Head-Gordon Dispersion Correction
    Chai, J.-D.; Head-Gordon, M. (2010), J. Chem. Phys., 132: 6615-6620

        s6 =       1.000000


         ---------------------------------------------------------
                                   SCF
               by Justin Turney, Rob Parrish, Andy Simmonett
                          and Daniel G. A. Smith
                              RKS Reference
                        2 Threads,   7788 MiB Core
         ---------------------------------------------------------

  ==> Geometry <==

    Molecular point group: c1
    Full point group: C1

    Geometry (in Angstrom), charge = 0, multiplicity = 1:

       Center              X                  Y                   Z               Mass       
    ------------   -----------------  -----------------  -----------------  -----------------
         C            2.001981781379    -0.521524558343    -0.370662868944    12.000000000000
         N            0.910326781379     0.378493441657    -0.618743868944    14.003074004430
         C           -0.413131218621     0.215520441657     0.009294131056    12.000000000000
         C           -0.665148218621    -0.734496558343     1.045583131056    12.000000000000
         C            1.114145781379     1.618021441657    -1.434635868944    12.000000000000
         C           -1.537757218621     0.974710441657    -0.449746868944    12.000000000000
         C           -1.942414218621    -0.888147558343     1.601206131056    12.000000000000
         C           -3.015843218621    -0.118034558343     1.148602131056    12.000000000000
         C           -2.807425218621     0.806451441657     0.122915131056    12.000000000000
         H            0.134614781379    -1.358735558343     1.432196131056     1.007825032230
         H           -1.448077218621     1.700013441657    -1.259430868944     1.007825032230
         C            3.364710781379    -0.189882558343    -0.992516868944    12.000000000000
         O            1.904692781379    -1.541532558343     0.311443131056    15.994914619570
         H            0.608596781379     1.518128441657    -2.396440868944     1.007825032230
         H            0.715726781379     2.487835441657    -0.909290868944     1.007825032230
         H            2.158661781379     1.841469441657    -1.635543868944     1.007825032230
         H           -2.093837218621    -1.618455558343     2.398286131056     1.007825032230
         H           -3.640881218621     1.408909441657    -0.244140868944     1.007825032230
         H            3.294336781379    -0.081682558343    -2.075167868944     1.007825032230
         H            3.787956781379     0.712562441657    -0.550804868944     1.007825032230
         H           -4.006793218621    -0.239799558343     1.589750131056     1.007825032230
         H            4.059560781379    -1.007018558343    -0.792294868944     1.007825032230

  Running in c1 symmetry.

  Rotational constants: A =      0.07983  B =      0.02409  C =      0.01875 [cm^-1]
  Rotational constants: A =   2393.31740  B =    722.13544  C =    562.21770 [MHz]
  Nuclear repulsion =  578.404626493169872

  Charge       = 0
  Multiplicity = 1
  Electrons    = 80
  Nalpha       = 40
  Nbeta        = 40

  ==> Algorithm <==

  SCF Algorithm Type is DF.
  DIIS enabled.
  MOM disabled.
  Fractional occupation disabled.
  Guess Type is SAD.
  Energy threshold   = 1.00e-08
  Density threshold  = 1.00e-08
  Integral threshold = 1.00e-12

  ==> Primary Basis <==

  Basis Set: 6-311G
    Blend: 6-311G
    Number of shells: 110
    Number of basis functions: 176
    Number of Cartesian functions: 176
    Spherical Harmonics?: true
    Max angular momentum: 1

  ==> DFT Potential <==

   => LibXC <=

    Version 5.1.5
    S. Lehtola, C. Steigemann, M. J. Oliveira, and M. A. Marques, SoftwareX 7, 1 (2018) (10.1016/j.softx.2017.11.002)

   => Composite Functional: WB97X-D <= 

    wB97X-D Hyb-GGA Exchange-Correlation Functional

    J.-D. Chai and M. Head-Gordon, Phys. Chem. Chem. Phys. 10, 6615 (2008) (10.1039/B810189B)

    Deriv               =              1
    GGA                 =           TRUE
    Meta                =          FALSE

    Exchange Hybrid     =           TRUE
    MP2 Hybrid          =          FALSE

   => Exchange-Correlation Functionals <=

    1.0000   wB97X-D range-separated functional

   => Exact (HF) Exchange <=

    0.7780            HF,LR [omega = 0.2000]
    0.2220               HF 

   => LibXC Density Thresholds  <==

    XC_HYB_GGA_XC_WB97X_D:  1.00E-14 

   => Molecular Quadrature <=

    Radial Scheme          =       TREUTLER
    Pruning Scheme         =           NONE
    Nuclear Scheme         =       TREUTLER

    BS radius alpha        =              1
    Pruning alpha          =              1
    Radial Points          =             75
    Spherical Points       =            302
    Total Points           =         460024
    Total Blocks           =           3392
    Max Points             =            256
    Max Functions          =            152
    Weights Tolerance      =       1.00E-15

   => Loading Basis Set <=

    Name: (6-311G AUX)
    Role: JKFIT
    Keyword: DF_BASIS_SCF
    atoms 1, 3-9, 12   entry C          line   125 file /home/bdw2292/miniconda3/envs/newamoebamdpoltype/share/psi4/basis/cc-pvtz-jkfit.gbs 
    atoms 2            entry N          line   177 file /home/bdw2292/miniconda3/envs/newamoebamdpoltype/share/psi4/basis/cc-pvtz-jkfit.gbs 
    atoms 10-11, 14-22 entry H          line    51 file /home/bdw2292/miniconda3/envs/newamoebamdpoltype/share/psi4/basis/cc-pvtz-jkfit.gbs 
    atoms 13           entry O          line   229 file /home/bdw2292/miniconda3/envs/newamoebamdpoltype/share/psi4/basis/cc-pvtz-jkfit.gbs 

  ==> Integral Setup <==

  DFHelper Memory: AOs need 0.742 GiB; user supplied 4.295 GiB. Using in-core AOs.

  ==> MemDFJK: Density-Fitted J/K Matrices <==

    J tasked:                   Yes
    K tasked:                   Yes
    wK tasked:                  Yes
    Omega:                2.000E-01
    OpenMP threads:               2
    Memory [MiB]:              4397
    Algorithm:                 Core
    Schwarz Cutoff:           1E-12
    Mask sparsity (%):      12.6872
    Fitting Condition:        1E-10

   => Auxiliary Basis Set <=

  Basis Set: (6-311G AUX)
    Blend: CC-PVTZ-JKFIT
    Number of shells: 385
    Number of basis functions: 1199
    Number of Cartesian functions: 1441
    Spherical Harmonics?: true
    Max angular momentum: 4

  Cached 100.0% of DFT collocation blocks in 1.409 [GiB].

  Minimum eigenvalue in the overlap matrix is 2.8184031111E-04.
  Reciprocal condition number of the overlap matrix is 4.2117915819E-05.
    Using symmetric orthogonalization.

  ==> Pre-Iterations <==

  SCF Guess: Superposition of Atomic Densities via on-the-fly atomic UHF (no occupation information).

   -------------------------
    Irrep   Nso     Nmo    
   -------------------------
     A        176     176 
   -------------------------
    Total     176     176
   -------------------------

  ==> Iterations <==

                           Total Energy        Delta E     RMS |[F,P]|

   @DF-RKS iter SAD:  -478.38833002474325   -4.78388e+02   0.00000e+00 
   @DF-RKS iter   1:  -478.96573792293918   -5.77408e-01   5.23060e-03 DIIS
   @DF-RKS iter   2:  -479.02856994581111   -6.28320e-02   5.32458e-03 DIIS
   @DF-RKS iter   3:  -479.34471407170963   -3.16144e-01   1.48025e-03 DIIS
   @DF-RKS iter   4:  -479.37085362993446   -2.61396e-02   2.43952e-04 DIIS
   @DF-RKS iter   5:  -479.37161178346031   -7.58154e-04   9.51109e-05 DIIS
   @DF-RKS iter   6:  -479.37173814928502   -1.26366e-04   2.32595e-05 DIIS
   @DF-RKS iter   7:  -479.37174639492275   -8.24564e-06   7.45519e-06 DIIS
   @DF-RKS iter   8:  -479.37174756179058   -1.16687e-06   2.10568e-06 DIIS
   @DF-RKS iter   9:  -479.37174768595099   -1.24160e-07   9.86828e-07 DIIS
   @DF-RKS iter  10:  -479.37174771101212   -2.50611e-08   2.95310e-07 DIIS
   @DF-RKS iter  11:  -479.37174771427635   -3.26423e-09   1.25250e-07 DIIS
   @DF-RKS iter  12:  -479.37174771465891   -3.82556e-10   3.39776e-08 DIIS
   @DF-RKS iter  13:  -479.37174771472593   -6.70184e-11   8.96410e-09 DIIS
  Energy and wave function converged.


  ==> Post-Iterations <==

   Electrons on quadrature grid:
      Ntotal   =   79.9999494039 ; deviation = -5.060e-05 

    Orbital Energies [Eh]
    ---------------------

    Doubly Occupied:                                                      

       1A    -19.225277     2A    -14.491365     3A    -10.416683  
       4A    -10.352492     5A    -10.334769     6A    -10.300161  
       7A    -10.298980     8A    -10.295446     9A    -10.290923  
      10A    -10.288152    11A    -10.286548    12A     -1.162670  
      13A     -1.041142    14A     -0.953085    15A     -0.865082  
      16A     -0.849509    17A     -0.837195    18A     -0.809807  
      19A     -0.719893    20A     -0.698919    21A     -0.653147  
      22A     -0.605824    23A     -0.585392    24A     -0.571275  
      25A     -0.567699    26A     -0.540510    27A     -0.532031  
      28A     -0.527534    29A     -0.506088    30A     -0.501053  
      31A     -0.493627    32A     -0.483640    33A     -0.469861  
      34A     -0.449251    35A     -0.443131    36A     -0.427749  
      37A     -0.376244    38A     -0.338592    39A     -0.328086  
      40A     -0.294258  

    Virtual:                                                              

      41A      0.050493    42A      0.064967    43A      0.099355  
      44A      0.110228    45A      0.130047    46A      0.146175  
      47A      0.166225    48A      0.172682    49A      0.177714  
      50A      0.185248    51A      0.190363    52A      0.196981  
      53A      0.217705    54A      0.223598    55A      0.233526  
      56A      0.240948    57A      0.244042    58A      0.300816  
      59A      0.325982    60A      0.347219    61A      0.355870  
      62A      0.370379    63A      0.378656    64A      0.391392  
      65A      0.402881    66A      0.412119    67A      0.424346  
      68A      0.447101    69A      0.468017    70A      0.474452  
      71A      0.487478    72A      0.500408    73A      0.502866  
      74A      0.511198    75A      0.514914    76A      0.521017  
      77A      0.534362    78A      0.550472    79A      0.557970  
      80A      0.575717    81A      0.583146    82A      0.604451  
      83A      0.620397    84A      0.625813    85A      0.631547  
      86A      0.641304    87A      0.652568    88A      0.655754  
      89A      0.674762    90A      0.685190    91A      0.690770  
      92A      0.693508    93A      0.708074    94A      0.713686  
      95A      0.716895    96A      0.745696    97A      0.750125  
      98A      0.756984    99A      0.782676   100A      0.822263  
     101A      0.834638   102A      0.864791   103A      0.866885  
     104A      0.881874   105A      0.890692   106A      0.916632  
     107A      0.947256   108A      0.958698   109A      0.978634  
     110A      1.007461   111A      1.030633   112A      1.050988  
     113A      1.084536   114A      1.129234   115A      1.143643  
     116A      1.238969   117A      1.264065   118A      1.349113  
     119A      1.383530   120A      1.516800   121A      1.708493  
     122A      2.296515   123A      2.298083   124A      2.324636  
     125A      2.335141   126A      2.356428   127A      2.368615  
     128A      2.382196   129A      2.398279   130A      2.433548  
     131A      2.479919   132A      2.607565   133A      2.627016  
     134A      2.648126   135A      2.672167   136A      2.679099  
     137A      2.783605   138A      2.803966   139A      2.829122  
     140A      2.836829   141A      2.849480   142A      2.917274  
     143A      2.938437   144A      2.950784   145A      2.970947  
     146A      2.983836   147A      3.013973   148A      3.043005  
     149A      3.064694   150A      3.127839   151A      3.196043  
     152A      3.204524   153A      3.210532   154A      3.259481  
     155A      3.301840   156A      3.318891   157A      3.352255  
     158A      3.367586   159A      3.506493   160A      3.896671  
     161A      4.180163   162A      4.223225   163A      4.969221  
     164A      5.067532   165A      5.160447   166A     23.240161  
     167A     23.414795   168A     23.478875   169A     23.490506  
     170A     23.546825   171A     23.616458   172A     23.720467  
     173A     23.767389   174A     23.990916   175A     35.543710  
     176A     50.031393  

    Final Occupation by Irrep:
              A 
    DOCC [    40 ]

  @DF-RKS Final Energy:  -479.37174771472593

   => Energetics <=

    Nuclear Repulsion Energy =            578.4046264931698715
    One-Electron Energy =               -1795.2367899120006314
    Two-Electron Energy =                 784.4509559925973008
    DFT Exchange-Correlation Energy =     -46.9782037929248588
    Empirical Dispersion Energy =          -0.0123364955675526
    VV10 Nonlocal Energy =                  0.0000000000000000
    Total Energy =                       -479.3717477147258705

Computation Completed


Properties will be evaluated at   0.000000,   0.000000,   0.000000 [a0]

Properties computed using the SCF density matrix

  Nuclear Dipole Moment: [e a0]
     X:     3.3531      Y:     5.0194      Z:    -4.1618

  Electronic Dipole Moment: [e a0]
     X:    -3.1239      Y:    -3.7040      Z:     3.3529

  Dipole Moment: [e a0]
     X:     0.2293      Y:     1.3154      Z:    -0.8088     Total:     1.5611

  Dipole Moment: [D]
     X:     0.5827      Y:     3.3433      Z:    -2.0558     Total:     3.9679


*** tstop() called on node74.bme.utexas.edu at Wed Jun  8 11:29:18 2022
Module time:
	user time   =      68.68 seconds =       1.14 minutes
	system time =       3.42 seconds =       0.06 minutes
	total time  =         37 seconds =       0.62 minutes
Total time:
	user time   =      68.68 seconds =       1.14 minutes
	system time =       3.42 seconds =       0.06 minutes
	total time  =         37 seconds =       0.62 minutes

*** tstart() called on node74.bme.utexas.edu
*** at Wed Jun  8 11:29:18 2022


         ------------------------------------------------------------
                                   SCF GRAD                          
                          Rob Parrish, Justin Turney,                
                       Andy Simmonett, and Alex Sokolov              
         ------------------------------------------------------------

  ==> Geometry <==

    Molecular point group: c1
    Full point group: C1

    Geometry (in Angstrom), charge = 0, multiplicity = 1:

       Center              X                  Y                   Z               Mass       
    ------------   -----------------  -----------------  -----------------  -----------------
         C            2.001981781379    -0.521524558343    -0.370662868944    12.000000000000
         N            0.910326781379     0.378493441657    -0.618743868944    14.003074004430
         C           -0.413131218621     0.215520441657     0.009294131056    12.000000000000
         C           -0.665148218621    -0.734496558343     1.045583131056    12.000000000000
         C            1.114145781379     1.618021441657    -1.434635868944    12.000000000000
         C           -1.537757218621     0.974710441657    -0.449746868944    12.000000000000
         C           -1.942414218621    -0.888147558343     1.601206131056    12.000000000000
         C           -3.015843218621    -0.118034558343     1.148602131056    12.000000000000
         C           -2.807425218621     0.806451441657     0.122915131056    12.000000000000
         H            0.134614781379    -1.358735558343     1.432196131056     1.007825032230
         H           -1.448077218621     1.700013441657    -1.259430868944     1.007825032230
         C            3.364710781379    -0.189882558343    -0.992516868944    12.000000000000
         O            1.904692781379    -1.541532558343     0.311443131056    15.994914619570
         H            0.608596781379     1.518128441657    -2.396440868944     1.007825032230
         H            0.715726781379     2.487835441657    -0.909290868944     1.007825032230
         H            2.158661781379     1.841469441657    -1.635543868944     1.007825032230
         H           -2.093837218621    -1.618455558343     2.398286131056     1.007825032230
         H           -3.640881218621     1.408909441657    -0.244140868944     1.007825032230
         H            3.294336781379    -0.081682558343    -2.075167868944     1.007825032230
         H            3.787956781379     0.712562441657    -0.550804868944     1.007825032230
         H           -4.006793218621    -0.239799558343     1.589750131056     1.007825032230
         H            4.059560781379    -1.007018558343    -0.792294868944     1.007825032230

  Nuclear repulsion =  578.404626493169872

  ==> Basis Set <==

  Basis Set: 6-311G
    Blend: 6-311G
    Number of shells: 110
    Number of basis functions: 176
    Number of Cartesian functions: 176
    Spherical Harmonics?: true
    Max angular momentum: 1

  ==> DFJKGrad: Density-Fitted SCF Gradients <==

    Gradient:                    1
    J tasked:                  Yes
    K tasked:                  Yes
    wK tasked:                 Yes
    Omega:               2.000E-01
    OpenMP threads:              2
    Integrals threads:           2
    Memory [MiB]:             5841
    Schwarz Cutoff:          1E-12
    Fitting Condition:       1E-10

   => Auxiliary Basis Set <=

  Basis Set: (6-311G AUX)
    Blend: CC-PVTZ-JKFIT
    Number of shells: 385
    Number of basis functions: 1199
    Number of Cartesian functions: 1441
    Spherical Harmonics?: true
    Max angular momentum: 4

  ==> DFT Potential <==

   => LibXC <=

    Version 5.1.5
    S. Lehtola, C. Steigemann, M. J. Oliveira, and M. A. Marques, SoftwareX 7, 1 (2018) (10.1016/j.softx.2017.11.002)

   => Composite Functional: WB97X-D <= 

    wB97X-D Hyb-GGA Exchange-Correlation Functional

    J.-D. Chai and M. Head-Gordon, Phys. Chem. Chem. Phys. 10, 6615 (2008) (10.1039/B810189B)

    Deriv               =              1
    GGA                 =           TRUE
    Meta                =          FALSE

    Exchange Hybrid     =           TRUE
    MP2 Hybrid          =          FALSE

   => Exchange-Correlation Functionals <=

    1.0000   wB97X-D range-separated functional

   => Exact (HF) Exchange <=

    0.7780            HF,LR [omega = 0.2000]
    0.2220               HF 

   => LibXC Density Thresholds  <==

    XC_HYB_GGA_XC_WB97X_D:  1.00E-14 

   => Molecular Quadrature <=

    Radial Scheme          =       TREUTLER
    Pruning Scheme         =           NONE
    Nuclear Scheme         =       TREUTLER

    BS radius alpha        =              1
    Pruning alpha          =              1
    Radial Points          =             75
    Spherical Points       =            302
    Total Points           =         460024
    Total Blocks           =           3392
    Max Points             =            256
    Max Functions          =            152
    Weights Tolerance      =       1.00E-15


  -Total Gradient:
     Atom            X                  Y                   Z
    ------   -----------------  -----------------  -----------------
       1        0.006274436067    -0.022062809923     0.013437277493
       2       -0.006643092807     0.001843704363    -0.013923239367
       3        0.005228585602     0.007281597760     0.005171428699
       4       -0.006108264824    -0.004243385362     0.001006434442
       5        0.005290044433     0.009738559859    -0.005224483371
       6       -0.011831357947     0.003826285989    -0.001998551824
       7       -0.001877042963    -0.004844524479     0.004446219570
       8        0.002875789187     0.000360159430    -0.000864941448
       9       -0.004100786923    -0.000072596873     0.000192095653
      10        0.003463041614    -0.005405854722     0.006140026897
      11       -0.002391408457     0.005270010897    -0.005006380401
      12        0.007754947100     0.000572978267     0.000732727912
      13        0.006257483910     0.005926113503    -0.005753873279
      14        0.000969379146    -0.000674079968    -0.000227857821
      15        0.002218746692     0.002794103002    -0.000978362718
      16       -0.000140572411     0.007188825313    -0.003399751100
      17       -0.002236315595    -0.004381560934     0.005224655429
      18       -0.005759649386     0.003579338665    -0.001630726946
      19       -0.000435529143    -0.003500482385    -0.000107848955
      20        0.000690735555    -0.002259930898     0.002290131066
      21       -0.005929390673    -0.000854435053     0.003152988672
      22        0.006685419556     0.000044346790    -0.002610164662


*** tstop() called on node74.bme.utexas.edu at Wed Jun  8 11:29:34 2022
Module time:
	user time   =      31.88 seconds =       0.53 minutes
	system time =       0.60 seconds =       0.01 minutes
	total time  =         16 seconds =       0.27 minutes
Total time:
	user time   =     100.57 seconds =       1.68 minutes
	system time =       4.02 seconds =       0.07 minutes
	total time  =         53 seconds =       0.88 minutes

			-----------------------------------------
			 OPTKING 2.0: for geometry optimizations 
			  - R.A. King,  Bethel University        
			-----------------------------------------
	At level 1: Red. Int., RFO, no backsteps, dynamic trust

	Internal coordinates to be generated automatically.
	Detected frag 1 with atoms:  1 2 3 4 5 6 7 8 9 10 11 12 13 14 15 16 17 18 19 20
	 21 22
	---Fragment 1 Bond Connectivity---
	 1 : 2 12 13
	 2 : 1 3 5
	 3 : 2 4 6
	 4 : 3 7 10
	 5 : 2 14 15 16
	 6 : 3 9 11
	 7 : 4 8 17
	 8 : 7 9 21
	 9 : 6 8 18
	 10 : 4
	 11 : 6
	 12 : 1 19 20 22
	 13 : 1
	 14 : 5
	 15 : 5
	 16 : 5
	 17 : 7
	 18 : 9
	 19 : 12
	 20 : 12
	 21 : 8
	 22 : 12

	Assuming in current code that numbering for constraints corresponds to unified fragment.
	Frozen dihedral atom list: 
	     1     2     3     4
	    12     1     2     3
	---Fragment 1 Geometry and Gradient---
	 C           3.7831972750       -0.9855385830       -0.7004513072
	 N           1.7202683015        0.7152489450       -1.1692564541
	 C          -0.7807048571        0.4072746092        0.0175633623
	 C          -1.2569479660       -1.3879973354        1.9758657591
	 C           2.1054303906        3.0576173899       -2.7110688821
	 C          -2.9059399906        1.8419357864       -0.8498984081
	 C          -3.6706308954       -1.6783556443        3.0258410581
	 C          -5.6991177205       -0.2230529886        2.1705434548
	 C          -5.3052647809        1.5239723582        0.2322759344
	 H           0.2543850692       -2.5676380822        2.7064584456
	 H          -2.7364693517        3.2125598143       -2.3799794163
	 C           6.3583818682       -0.3588260313       -1.8755850572
	 O           3.5993477099       -2.9130743487        0.5885422214
	 H           1.1500812376        2.8688469780       -4.5286169182
	 H           1.3525275975        4.7013276299       -1.7183107107
	 H           4.0792795643        3.4798729131       -3.0907299785
	 H          -3.9567788945       -3.0584377515        4.5321039582
	 H          -6.8802683585        2.6624529803       -0.4613593783
	 H           6.2253942818       -0.1543576645       -3.9214989367
	 H           7.1582008919        1.3465478620       -1.0408703509
	 H          -7.5717418245       -0.4531554903        3.0041923556
	 H           7.6714580665       -1.9029892785       -1.4972203129
	             0.0062744361       -0.0220628099        0.0134372775
	            -0.0066430928        0.0018437044       -0.0139232394
	             0.0052285856        0.0072815978        0.0051714287
	            -0.0061082648       -0.0042433854        0.0010064344
	             0.0052900444        0.0097385599       -0.0052244834
	            -0.0118313579        0.0038262860       -0.0019985518
	            -0.0018770430       -0.0048445245        0.0044462196
	             0.0028757892        0.0003601594       -0.0008649414
	            -0.0041007869       -0.0000725969        0.0001920957
	             0.0034630416       -0.0054058547        0.0061400269
	            -0.0023914085        0.0052700109       -0.0050063804
	             0.0077549471        0.0005729783        0.0007327279
	             0.0062574839        0.0059261135       -0.0057538733
	             0.0009693791       -0.0006740800       -0.0002278578
	             0.0022187467        0.0027941030       -0.0009783627
	            -0.0001405724        0.0071888253       -0.0033997511
	            -0.0022363156       -0.0043815609        0.0052246554
	            -0.0057596494        0.0035793387       -0.0016307269
	            -0.0004355291       -0.0035004824       -0.0001078490
	             0.0006907356       -0.0022599309        0.0022901311
	            -0.0059293907       -0.0008544351        0.0031529887
	             0.0066854196        0.0000443468       -0.0026101647

	Previous optimization step data not found.  Starting new optimization.

	---Fragment 1 Intrafragment Coordinates---
	 - Coordinate -           - BOHR/RAD -       - ANG/DEG -
	 R(1,2)           =         2.714430	       1.436415
	 R(1,12)          =         2.899187	       1.534184
	 R(1,13)          =         2.326091	       1.230914
	 R(2,3)           =         2.785365	       1.473951
	 R(2,5)           =         2.830587	       1.497882
	 R(3,4)           =         2.699029	       1.428265
	 R(3,6)           =         2.706911	       1.432436
	 R(4,7)           =         2.648135	       1.401333
	 R(4,10)          =         2.051693	       1.085709
	 R(5,14)          =         2.061991	       1.091159
	 R(5,15)          =         2.062575	       1.091468
	 R(5,16)          =         2.053904	       1.086879
	 R(6,9)           =         2.651219	       1.402965
	 R(6,11)          =         2.061184	       1.090731
	 R(7,8)           =         2.638977	       1.396486
	 R(7,17)          =         2.062846	       1.091611
	 R(8,9)           =         2.638958	       1.396476
	 R(8,21)          =         2.062678	       1.091522
	 R(9,18)          =         2.063469	       1.091941
	 R(12,19)         =         2.060402	       1.090318
	 R(12,20)         =         2.060281	       1.090254
	 R(12,22)         =         2.061982	       1.091154
	 B(1,2,3)         =         2.140664	     122.651028
	 B(1,2,5)         =         2.105008	     120.608085
	 B(1,12,19)       =         1.946151	     111.506250
	 B(1,12,20)       =         1.938567	     111.071708
	 B(1,12,22)       =         1.906440	     109.230957
	 B(2,1,12)        =         2.059638	     118.008550
	 B(2,1,13)        =         2.158982	     123.700574
	 B(2,3,4)         =         2.142581	     122.760821
	 B(2,3,6)         =         2.105755	     120.650862
	 B(2,5,14)        =         1.919121	     109.957525
	 B(2,5,15)        =         1.925833	     110.342119
	 B(2,5,16)        =         1.984039	     113.677076
	 B(3,2,5)         =         2.032827	     116.472411
	 B(3,4,7)         =         2.119335	     121.428930
	 B(3,4,10)        =         2.106941	     120.718814
	 B(3,6,9)         =         2.113147	     121.074406
	 B(3,6,11)        =         2.124416	     121.720097
	 B(4,3,6)         =         2.033660	     116.520120
	 B(4,7,8)         =         2.107888	     120.773082
	 B(4,7,17)        =         2.082090	     119.294946
	 B(6,9,8)         =         2.110944	     120.948175
	 B(6,9,18)        =         2.079883	     119.168545
	 B(7,4,10)        =         2.056893	     117.851297
	 B(7,8,9)         =         2.081057	     119.235760
	 B(7,8,21)        =         2.100564	     120.353437
	 B(8,7,17)        =         2.093206	     119.931855
	 B(8,9,18)        =         2.092357	     119.883209
	 B(9,6,11)        =         2.045600	     117.204220
	 B(9,8,21)        =         2.101561	     120.410553
	 B(12,1,13)       =         2.064565	     118.290876
	 B(14,5,15)       =         1.905081	     109.153089
	 B(14,5,16)       =         1.876685	     107.526150
	 B(15,5,16)       =         1.850361	     106.017889
	 B(19,12,20)      =         1.923260	     110.194705
	 B(19,12,22)      =         1.872999	     107.314923
	 B(20,12,22)      =         1.873724	     107.356500
	*D(1,2,3,4)       =         0.151540	       8.682601
	 D(1,2,3,6)       =        -2.935793	    -168.208525
	 D(1,2,5,14)      =         1.915272	     109.736981
	 D(1,2,5,15)      =        -2.265530	    -129.805286
	 D(1,2,5,16)      =        -0.189616	     -10.864172
	 D(2,1,12,19)     =        -0.983894	     -56.372947
	 D(2,1,12,20)     =         1.168616	      66.956774
	 D(2,1,12,22)     =        -3.051084	    -174.814224
	 D(2,3,4,7)       =        -3.114660	    -178.456890
	 D(2,3,4,10)      =         0.033284	       1.907006
	 D(2,3,6,9)       =         3.118173	     178.658165
	 D(2,3,6,11)      =        -0.016045	      -0.919295
	*D(3,2,1,12)      =        -3.058628	    -175.246467
	 D(3,2,1,13)      =         0.083051	       4.758464
	 D(3,2,5,14)      =        -1.327490	     -76.059575
	 D(3,2,5,15)      =         0.774894	      44.398158
	 D(3,2,5,16)      =         2.850808	     163.339272
	 D(3,4,7,8)       =         0.007744	       0.443701
	 D(3,4,7,17)      =        -3.131673	    -179.431653
	 D(3,6,9,8)       =        -0.012593	      -0.721544
	 D(3,6,9,18)      =         3.130696	     179.375648
	 D(4,3,2,5)       =        -2.886629	    -165.391661
	 D(4,3,6,9)       =         0.027573	       1.579803
	 D(4,3,6,11)      =        -3.106645	    -177.997657
	 D(4,7,8,9)       =         0.008573	       0.491172
	 D(4,7,8,21)      =        -3.136182	    -179.689989
	 D(5,2,1,12)      =        -0.024618	      -1.410496
	 D(5,2,1,13)      =         3.117061	     178.594435
	 D(5,2,3,6)       =         0.309224	      17.717213
	 D(6,3,4,7)       =        -0.025234	      -1.445826
	 D(6,3,4,10)      =         3.122709	     178.918070
	 D(6,9,8,7)       =        -0.006134	      -0.351447
	 D(6,9,8,21)      =         3.138622	     179.829819
	 D(7,8,9,18)      =         3.133750	     179.550671
	 D(8,7,4,10)      =        -3.140024	    -179.910121
	 D(8,9,6,11)      =         3.121946	     178.874329
	 D(9,8,7,17)      =        -3.135209	    -179.634265
	 D(10,4,7,17)     =         0.003744	       0.214526
	 D(11,6,9,18)     =        -0.017950	      -1.028478
	 D(13,1,12,19)    =         2.157618	     123.622394
	 D(13,1,12,20)    =        -1.973058	    -113.047885
	 D(13,1,12,22)    =         0.090428	       5.181117
	 D(17,7,8,21)     =         0.003221	       0.184574
	 D(18,9,8,21)     =        -0.004679	      -0.268062
	 R(4,13)          =         5.275806	       2.791837

	Current energy   :      -479.3717477147

	Generating empirical Hessian (Schlegel '84) for each fragment.
	Taking RFO optimization step.
	Going to follow RFO solution 1.
	Using RFO vector 1.
	Norm of target step-size    0.25463
	Projected energy change by RFO approximation:        -0.0169379493

	Back-transformation to cartesian coordinates...
	Successfully converged to displaced geometry.

	Back-transformation to cartesian coordinates to adjust frozen coordinates...
	Successfully converged to displaced geometry.

	--- Internal Coordinate Step in ANG or DEG, aJ/ANG or AJ/DEG ---
	 ---------------------------------------------------------------------------
	   Coordinate                Previous        Force       Change         New 
	   ----------                --------       ------       ------       ------
	    1 R(1,2)          =      1.436415    -0.276819    -0.043958     1.392456
	    2 R(1,12)         =      1.534184    -0.097076    -0.020324     1.513860
	    3 R(1,13)         =      1.230914     0.071157     0.004936     1.235850
	    4 R(2,3)          =      1.473951    -0.252399    -0.045575     1.428376
	    5 R(2,5)          =      1.497882    -0.183202    -0.034367     1.463515
	    6 R(3,4)          =      1.428265    -0.176302    -0.027351     1.400913
	    7 R(3,6)          =      1.432436    -0.203887    -0.031781     1.400655
	    8 R(4,7)          =      1.401333    -0.076997    -0.010425     1.390907
	    9 R(4,10)         =      1.085709    -0.064616    -0.011232     1.074478
	   10 R(5,14)         =      1.091159     0.001429     0.000253     1.091411
	   11 R(5,15)         =      1.091468    -0.007774    -0.001376     1.090091
	   12 R(5,16)         =      1.086879    -0.016120    -0.002812     1.084067
	   13 R(6,9)          =      1.402965    -0.091221    -0.012603     1.390362
	   14 R(6,11)         =      1.090731    -0.057817    -0.010211     1.080520
	   15 R(7,8)          =      1.396486    -0.041401    -0.004849     1.391637
	   16 R(7,17)         =      1.091611    -0.058196    -0.010307     1.081304
	   17 R(8,9)          =      1.396476    -0.056005    -0.006892     1.389585
	   18 R(8,21)         =      1.091522    -0.055717    -0.009865     1.081657
	   19 R(9,18)         =      1.091941    -0.057029    -0.010111     1.081830
	   20 R(12,19)        =      1.090318     0.001616     0.000285     1.090603
	   21 R(12,20)        =      1.090254     0.005717     0.001008     1.091262
	   22 R(12,22)        =      1.091154    -0.030803    -0.005448     1.085706
	   23 B(1,2,3)        =    122.651028     0.000828     1.678465   124.329494
	   24 B(1,2,5)        =    120.608085    -0.000301    -0.473123   120.134962
	   25 B(1,12,19)      =    111.506250     0.000197     0.820846   112.327096
	   26 B(1,12,20)      =    111.071708     0.000109     0.392758   111.464466
	   27 B(1,12,22)      =    109.230957    -0.000661    -2.696820   106.534137
	   28 B(2,1,12)       =    118.008550    -0.000749    -1.916977   116.091573
	   29 B(2,1,13)       =    123.700574     0.000047    -0.282243   123.418331
	   30 B(2,3,4)        =    122.760821     0.000417     0.905883   123.666704
	   31 B(2,3,6)        =    120.650862    -0.001159    -2.914374   117.736487
	   32 B(2,5,14)       =    109.957525     0.000217     1.018292   110.975816
	   33 B(2,5,15)       =    110.342119    -0.000190    -0.703137   109.638982
	   34 B(2,5,16)       =    113.677076    -0.000789    -3.356476   110.320600
	   35 B(3,2,5)        =    116.472411    -0.000524    -1.102789   115.369621
	   36 B(3,4,7)        =    121.428930    -0.000397    -1.429374   119.999557
	   37 B(3,4,10)       =    120.718814    -0.000114    -0.645759   120.073055
	   38 B(3,6,9)        =    121.074406    -0.000047    -0.297468   120.776939
	   39 B(3,6,11)       =    121.720097    -0.000216    -0.795116   120.924981
	   40 B(4,3,6)        =    116.520120     0.000746     2.073960   118.594080
	   41 B(4,7,8)        =    120.773082     0.000080     0.498966   121.272048
	   42 B(4,7,17)       =    119.294946    -0.000142    -0.749472   118.545474
	   43 B(6,9,8)        =    120.948175    -0.000128    -0.376732   120.571443
	   44 B(6,9,18)       =    119.168545    -0.000004    -0.095600   119.072945
	   45 B(7,4,10)       =    117.851297     0.000511     2.073864   119.925162
	   46 B(7,8,9)        =    119.235760    -0.000253    -0.454276   118.781484
	   47 B(7,8,21)       =    120.353437     0.000159     0.420230   120.773667
	   48 B(8,7,17)       =    119.931855     0.000063     0.250265   120.182120
	   49 B(8,9,18)       =    119.883209     0.000132     0.471572   120.354782
	   50 B(9,6,11)       =    117.204220     0.000263     1.092980   118.297201
	   51 B(9,8,21)       =    120.410553     0.000094     0.034248   120.444801
	   52 B(12,1,13)      =    118.290876     0.000702     2.197366   120.488242
	   53 B(14,5,15)      =    109.153089     0.000027     0.202660   109.355749
	   54 B(14,5,16)      =    107.526150     0.000286     1.139276   108.665427
	   55 B(15,5,16)      =    106.017889     0.000484     1.800168   107.818056
	   56 B(19,12,20)     =    110.194705    -0.000223    -1.141720   109.052985
	   57 B(19,12,22)     =    107.314923     0.000295     1.449890   108.764813
	   58 B(20,12,22)     =    107.356500     0.000286     1.218385   108.574886
	   59 *D(1,2,3,4)     =      8.682601     0.000000    -0.000000     8.682601
	   60 D(1,2,3,6)      =   -168.208525    -0.000023    -2.498355  -170.706881
	   61 D(1,2,5,14)     =    109.736981    -0.000013    -0.604939   109.132042
	   62 D(1,2,5,15)     =   -129.805286    -0.000001    -0.152898  -129.958184
	   63 D(1,2,5,16)     =    -10.864172    -0.000010    -0.499626   -11.363798
	   64 D(2,1,12,19)    =    -56.372947     0.000010    -0.042963   -56.415910
	   65 D(2,1,12,20)    =     66.956774    -0.000006    -0.642975    66.313799
	   66 D(2,1,12,22)    =   -174.814224    -0.000005    -0.592614  -175.406838
	   67 D(2,3,4,7)      =   -178.456890    -0.000006    -1.605247  -180.062137
	   68 D(2,3,4,10)     =      1.907006    -0.000016    -2.512410    -0.605404
	   69 D(2,3,6,9)      =    178.658165     0.000017     1.574445   180.232611
	   70 D(2,3,6,11)     =     -0.919295     0.000015     1.498939     0.579643
	   71 *D(3,2,1,12)    =   -175.246467    -0.000000    -0.000000  -175.246467
	   72 D(3,2,1,13)     =      4.758464     0.000001    -0.499134     4.259330
	   73 D(3,2,5,14)     =    -76.059575     0.000006     0.710197   -75.349378
	   74 D(3,2,5,15)     =     44.398158     0.000018     1.162238    45.560396
	   75 D(3,2,5,16)     =    163.339272     0.000008     0.815510   164.154782
	   76 D(3,4,7,8)      =      0.443701    -0.000001    -0.184149     0.259551
	   77 D(3,4,7,17)     =   -179.431653    -0.000005    -0.526085  -179.957738
	   78 D(3,6,9,8)      =     -0.721544     0.000003     0.199837    -0.521708
	   79 D(3,6,9,18)     =    179.375648     0.000004     0.432982   179.808630
	   80 D(4,3,2,5)      =   -165.391661    -0.000002    -1.232010  -166.623672
	   81 D(4,3,6,9)      =      1.579803    -0.000004    -0.768491     0.811312
	   82 D(4,3,6,11)     =   -177.997657    -0.000006    -0.843998  -178.841655
	   83 D(4,7,8,9)      =      0.491172    -0.000005    -0.447203     0.043969
	   84 D(4,7,8,21)     =   -179.689989    -0.000004    -0.345298  -180.035287
	   85 D(5,2,1,12)     =     -1.410496     0.000000     1.259669    -0.150827
	   86 D(5,2,1,13)     =    178.594435     0.000001     0.760535   179.354970
	   87 D(5,2,3,6)      =     17.717213    -0.000025    -3.730366    13.986847
	   88 D(6,3,4,7)      =     -1.445826     0.000004     0.768258    -0.677568
	   89 D(6,3,4,10)     =    178.918070    -0.000007    -0.138905   178.779165
	   90 D(6,9,8,7)      =     -0.351447     0.000004     0.436613     0.085166
	   91 D(6,9,8,21)     =    179.829819     0.000003     0.334334   180.164153
	   92 D(7,8,9,18)     =    179.550671     0.000002     0.199912   179.750583
	   93 D(8,7,4,10)     =   -179.910121     0.000009     0.712130  -179.197991
	   94 D(8,9,6,11)     =    178.874329     0.000005     0.265861   179.140191
	   95 D(9,8,7,17)     =   -179.634265    -0.000001    -0.100956  -179.735221
	   96 D(10,4,7,17)    =      0.214526     0.000004     0.370194     0.584720
	   97 D(11,6,9,18)    =     -1.028478     0.000006     0.499006    -0.529472
	   98 D(13,1,12,19)   =    123.622394     0.000008     0.440379   124.062773
	   99 D(13,1,12,20)   =   -113.047885    -0.000007    -0.159633  -113.207518
	  100 D(13,1,12,22)   =      5.181117    -0.000006    -0.109272     5.071845
	  101 D(17,7,8,21)    =      0.184574     0.000000     0.000949     0.185523
	  102 D(18,9,8,21)    =     -0.268062     0.000001     0.097633    -0.170429
	  103 R(4,13)         =      2.791837    -0.017313    -0.010462     2.781374
	 ---------------------------------------------------------------------------
	Successfully symmetrized geometry.

  ==> Convergence Check <==

  Measures of convergence in internal coordinates in au.
  Criteria marked as inactive (o), active & met (*), and active & unmet ( ).
  --------------------------------------------------------------------------------------------- ~
   Step     Total Energy     Delta E     MAX Force     RMS Force      MAX Disp      RMS Disp    ~
  --------------------------------------------------------------------------------------------- ~
    Convergence Criteria             o    2.50e-03 *    1.70e-03 *    1.00e-02 *    6.70e-03 *  ~
  --------------------------------------------------------------------------------------------- ~
      1    -479.37174771   -4.79e+02 o    3.36e-02      7.35e-03      8.61e-02      2.50e-02    ~
  ---------------------------------------------------------------------------------------------

	Writing optimization data to binary file.
	Structure for next step:
	Cartesian Geometry (in Angstrom)
	    C     1.9217702503  -0.6655617698  -0.3105544041
	    N     0.9114224101   0.2607486724  -0.5556683219
	    C    -0.3991336581   0.1913916107   0.0081499184
	    C    -0.7670198390  -0.7175404194   1.0086800416
	    C     1.1878388952   1.4552684662  -1.3547884788
	    C    -1.3672030359   1.0772750335  -0.4816310213
	    C    -2.0665348162  -0.7175993680   1.5045473430
	    C    -3.0238257609   0.1698771461   1.0222261234
	    C    -2.6618110239   1.0676963104   0.0253248758
	    H    -0.0486480333  -1.4209617036   1.3876827208
	    H    -1.1294973291   1.7812965024  -1.2660884016
	    C     3.2735326972  -0.3521731017  -0.9157791167
	    O     1.7588717070  -1.6877121286   0.3647225542
	    H     0.7003619819   1.3947418907  -2.3294072597
	    H     0.8313421053   2.3398389595  -0.8268262766
	    H     2.2552543427   1.5675917336  -1.5071329707
	    H    -2.3247700034  -1.4287513221   2.2770733746
	    H    -3.3867305546   1.7661224298  -0.3709684981
	    H     3.2218654496  -0.2150236869  -1.9964895111
	    H     3.7165511633   0.5372199107  -0.4645942010
	    H    -4.0322904716   0.1624301144   1.4132822034
	    H     3.9126577040  -1.2033695851  -0.7019057943
			--------------------------
			 OPTKING Finished Execution 
			--------------------------

    Structure for next step:
    Molecular point group: c1
    Full point group: C1

    Geometry (in Angstrom), charge = 0, multiplicity = 1:

    C            1.936444813154    -0.666115411441    -0.308589437044
    N            0.926096968931     0.260195034467    -0.553703355802
    C           -0.384459104413     0.190837972500     0.010114886738
    C           -0.752345286784    -0.718094061174     1.010645013854
    C            1.202513455180     1.454714832952    -1.352823515861
    C           -1.352528485961     1.076721398780    -0.479666054946
    C           -2.051860269093    -0.718153009823     1.506512317190
    C           -3.009151217497     0.169323507743     1.024191095728
    C           -2.647136479097     1.067142675653     0.027289844229
    H           -0.033973478269    -1.421515348161     1.389647694530
    H           -1.114822778228     1.780742870375    -1.264123438294
    C            3.288207265338    -0.352726742124    -0.913814152019
    O            1.773546269225    -1.688265774257     0.366687523869
    H            0.715036539888     1.394188257238    -2.327442300579
    H            0.846016663885     2.339285329659    -0.824861311535
    H            2.269928906812     1.567038100795    -1.505168008348
    H           -2.310095457249    -1.429304966684     2.279038351812
    H           -3.372056012655     1.765568797785    -0.369003531262
    H            3.236540017559    -0.215577326696    -1.994524550702
    H            3.731225733130     0.536666273857    -0.462629234570
    H           -4.017615932187     0.161876476039     1.415247177245
    H            3.927332274647    -1.203923228833    -0.699940828796


Scratch directory: /scratch/bdw2292/Psi4-3_24_Index_0-farH_in17/

Scratch directory: /scratch/bdw2292/Psi4-3_24_Index_0-farH_in17/
gradient() will perform analytic gradient computation.

*** tstart() called on node74.bme.utexas.edu
*** at Wed Jun  8 11:29:35 2022

   => Loading Basis Set <=

    Name: 6-311G
    Role: ORBITAL
    Keyword: BASIS
    atoms 1, 3-9, 12   entry C          line    92 file /home/bdw2292/miniconda3/envs/newamoebamdpoltype/share/psi4/basis/6-311g.gbs 
    atoms 2            entry N          line   109 file /home/bdw2292/miniconda3/envs/newamoebamdpoltype/share/psi4/basis/6-311g.gbs 
    atoms 10-11, 14-22 entry H          line    21 file /home/bdw2292/miniconda3/envs/newamoebamdpoltype/share/psi4/basis/6-311g.gbs 
    atoms 13           entry O          line   126 file /home/bdw2292/miniconda3/envs/newamoebamdpoltype/share/psi4/basis/6-311g.gbs 

   => WB97X-D: Empirical Dispersion <=

    Chai and Head-Gordon Dispersion Correction
    Chai, J.-D.; Head-Gordon, M. (2010), J. Chem. Phys., 132: 6615-6620

        s6 =       1.000000


         ---------------------------------------------------------
                                   SCF
               by Justin Turney, Rob Parrish, Andy Simmonett
                          and Daniel G. A. Smith
                              RKS Reference
                        2 Threads,   7788 MiB Core
         ---------------------------------------------------------

  ==> Geometry <==

    Molecular point group: c1
    Full point group: C1

    Geometry (in Angstrom), charge = 0, multiplicity = 1:

       Center              X                  Y                   Z               Mass       
    ------------   -----------------  -----------------  -----------------  -----------------
         C            1.936444813154    -0.666115411441    -0.308589437044    12.000000000000
         N            0.926096968931     0.260195034467    -0.553703355802    14.003074004430
         C           -0.384459104413     0.190837972500     0.010114886738    12.000000000000
         C           -0.752345286784    -0.718094061174     1.010645013854    12.000000000000
         C            1.202513455180     1.454714832952    -1.352823515861    12.000000000000
         C           -1.352528485961     1.076721398780    -0.479666054946    12.000000000000
         C           -2.051860269093    -0.718153009823     1.506512317190    12.000000000000
         C           -3.009151217497     0.169323507743     1.024191095728    12.000000000000
         C           -2.647136479097     1.067142675653     0.027289844229    12.000000000000
         H           -0.033973478269    -1.421515348161     1.389647694530     1.007825032230
         H           -1.114822778228     1.780742870375    -1.264123438294     1.007825032230
         C            3.288207265338    -0.352726742124    -0.913814152019    12.000000000000
         O            1.773546269225    -1.688265774257     0.366687523869    15.994914619570
         H            0.715036539888     1.394188257238    -2.327442300579     1.007825032230
         H            0.846016663885     2.339285329659    -0.824861311535     1.007825032230
         H            2.269928906812     1.567038100795    -1.505168008348     1.007825032230
         H           -2.310095457249    -1.429304966684     2.279038351812     1.007825032230
         H           -3.372056012655     1.765568797785    -0.369003531262     1.007825032230
         H            3.236540017559    -0.215577326696    -1.994524550702     1.007825032230
         H            3.731225733130     0.536666273857    -0.462629234570     1.007825032230
         H           -4.017615932187     0.161876476039     1.415247177245     1.007825032230
         H            3.927332274647    -1.203923228833    -0.699940828796     1.007825032230

  Running in c1 symmetry.

  Rotational constants: A =      0.08281  B =      0.02512  C =      0.01951 [cm^-1]
  Rotational constants: A =   2482.69183  B =    753.06158  C =    584.92596 [MHz]
  Nuclear repulsion =  588.768336699282258

  Charge       = 0
  Multiplicity = 1
  Electrons    = 80
  Nalpha       = 40
  Nbeta        = 40

  ==> Algorithm <==

  SCF Algorithm Type is DF.
  DIIS enabled.
  MOM disabled.
  Fractional occupation disabled.
  Guess Type is READ.
  Energy threshold   = 1.00e-08
  Density threshold  = 1.00e-08
  Integral threshold = 1.00e-12

  ==> Primary Basis <==

  Basis Set: 6-311G
    Blend: 6-311G
    Number of shells: 110
    Number of basis functions: 176
    Number of Cartesian functions: 176
    Spherical Harmonics?: true
    Max angular momentum: 1

  ==> DFT Potential <==

   => LibXC <=

    Version 5.1.5
    S. Lehtola, C. Steigemann, M. J. Oliveira, and M. A. Marques, SoftwareX 7, 1 (2018) (10.1016/j.softx.2017.11.002)

   => Composite Functional: WB97X-D <= 

    wB97X-D Hyb-GGA Exchange-Correlation Functional

    J.-D. Chai and M. Head-Gordon, Phys. Chem. Chem. Phys. 10, 6615 (2008) (10.1039/B810189B)

    Deriv               =              1
    GGA                 =           TRUE
    Meta                =          FALSE

    Exchange Hybrid     =           TRUE
    MP2 Hybrid          =          FALSE

   => Exchange-Correlation Functionals <=

    1.0000   wB97X-D range-separated functional

   => Exact (HF) Exchange <=

    0.7780            HF,LR [omega = 0.2000]
    0.2220               HF 

   => LibXC Density Thresholds  <==

    XC_HYB_GGA_XC_WB97X_D:  1.00E-14 

   => Molecular Quadrature <=

    Radial Scheme          =       TREUTLER
    Pruning Scheme         =           NONE
    Nuclear Scheme         =       TREUTLER

    BS radius alpha        =              1
    Pruning alpha          =              1
    Radial Points          =             75
    Spherical Points       =            302
    Total Points           =         459074
    Total Blocks           =           3382
    Max Points             =            256
    Max Functions          =            154
    Weights Tolerance      =       1.00E-15

   => Loading Basis Set <=

    Name: (6-311G AUX)
    Role: JKFIT
    Keyword: DF_BASIS_SCF
    atoms 1, 3-9, 12   entry C          line   125 file /home/bdw2292/miniconda3/envs/newamoebamdpoltype/share/psi4/basis/cc-pvtz-jkfit.gbs 
    atoms 2            entry N          line   177 file /home/bdw2292/miniconda3/envs/newamoebamdpoltype/share/psi4/basis/cc-pvtz-jkfit.gbs 
    atoms 10-11, 14-22 entry H          line    51 file /home/bdw2292/miniconda3/envs/newamoebamdpoltype/share/psi4/basis/cc-pvtz-jkfit.gbs 
    atoms 13           entry O          line   229 file /home/bdw2292/miniconda3/envs/newamoebamdpoltype/share/psi4/basis/cc-pvtz-jkfit.gbs 

   => Loading Basis Set <=

    Name: 6-311G
    Role: ORBITAL
    Keyword: BASIS
    atoms 1, 3-9, 12   entry C          line    92 file /home/bdw2292/miniconda3/envs/newamoebamdpoltype/share/psi4/basis/6-311g.gbs 
    atoms 2            entry N          line   109 file /home/bdw2292/miniconda3/envs/newamoebamdpoltype/share/psi4/basis/6-311g.gbs 
    atoms 10-11, 14-22 entry H          line    21 file /home/bdw2292/miniconda3/envs/newamoebamdpoltype/share/psi4/basis/6-311g.gbs 
    atoms 13           entry O          line   126 file /home/bdw2292/miniconda3/envs/newamoebamdpoltype/share/psi4/basis/6-311g.gbs 

  Reading orbitals from file /scratch/bdw2292/Psi4-3_24_Index_0-farH_in17/3_24_Index_0-opt-1_2-3-008.default.1095088.180.npy, no projection.

  ==> Integral Setup <==

  DFHelper Memory: AOs need 0.747 GiB; user supplied 4.272 GiB. Using in-core AOs.

  ==> MemDFJK: Density-Fitted J/K Matrices <==

    J tasked:                   Yes
    K tasked:                   Yes
    wK tasked:                  Yes
    Omega:                2.000E-01
    OpenMP threads:               2
    Memory [MiB]:              4374
    Algorithm:                 Core
    Schwarz Cutoff:           1E-12
    Mask sparsity (%):      12.0610
    Fitting Condition:        1E-10

   => Auxiliary Basis Set <=

  Basis Set: (6-311G AUX)
    Blend: CC-PVTZ-JKFIT
    Number of shells: 385
    Number of basis functions: 1199
    Number of Cartesian functions: 1441
    Spherical Harmonics?: true
    Max angular momentum: 4

  Cached 100.0% of DFT collocation blocks in 1.432 [GiB].

  Minimum eigenvalue in the overlap matrix is 2.5575862333E-04.
  Reciprocal condition number of the overlap matrix is 3.6435433082E-05.
    Using symmetric orthogonalization.

  ==> Pre-Iterations <==

  SCF Guess: Orbitals guess was supplied from a previous computation.

   -------------------------------------------------------
    Irrep   Nso     Nmo     Nalpha   Nbeta   Ndocc  Nsocc
   -------------------------------------------------------
     A        176     176      40      40      40       0
   -------------------------------------------------------
    Total     176     176      40      40      40       0
   -------------------------------------------------------

  ==> Iterations <==

                           Total Energy        Delta E     RMS |[F,P]|

   @DF-RKS iter   0:  -479.43539226638205   -4.79435e+02   2.17993e-03 
   @DF-RKS iter   1:  -479.37597483999451    5.94174e-02   2.74127e-04 DIIS
   @DF-RKS iter   2:  -479.37752396810640   -1.54913e-03   1.84592e-04 DIIS
   @DF-RKS iter   3:  -479.37802849525701   -5.04527e-04   7.10190e-05 DIIS
   @DF-RKS iter   4:  -479.37811052802869   -8.20328e-05   3.28699e-05 DIIS
   @DF-RKS iter   5:  -479.37812512596554   -1.45979e-05   1.06581e-05 DIIS
   @DF-RKS iter   6:  -479.37812659290290   -1.46694e-06   3.06310e-06 DIIS
   @DF-RKS iter   7:  -479.37812679961445   -2.06712e-07   8.31822e-07 DIIS
   @DF-RKS iter   8:  -479.37812681563662   -1.60222e-08   3.52119e-07 DIIS
   @DF-RKS iter   9:  -479.37812681789069   -2.25407e-09   8.05546e-08 DIIS
   @DF-RKS iter  10:  -479.37812681804616   -1.55467e-10   3.06540e-08 DIIS
   @DF-RKS iter  11:  -479.37812681808441   -3.82556e-11   9.05543e-09 DIIS
  Energy and wave function converged.


  ==> Post-Iterations <==

   Electrons on quadrature grid:
      Ntotal   =   79.9999210522 ; deviation = -7.895e-05 

    Orbital Energies [Eh]
    ---------------------

    Doubly Occupied:                                                      

       1A    -19.221430     2A    -14.488703     3A    -10.411441  
       4A    -10.342146     5A    -10.331423     6A    -10.297177  
       7A    -10.291973     8A    -10.291379     9A    -10.287693  
      10A    -10.285132    11A    -10.280613    12A     -1.162309  
      13A     -1.063686    14A     -0.961560    15A     -0.876258  
      16A     -0.856324    17A     -0.839207    18A     -0.817775  
      19A     -0.730640    20A     -0.703284    21A     -0.657591  
      22A     -0.613334    23A     -0.591279    24A     -0.579369  
      25A     -0.575108    26A     -0.546292    27A     -0.536656  
      28A     -0.528417    29A     -0.510363    30A     -0.502264  
      31A     -0.493685    32A     -0.480554    33A     -0.473492  
      34A     -0.450590    35A     -0.444782    36A     -0.429441  
      37A     -0.378939    38A     -0.338585    39A     -0.330224  
      40A     -0.295837  

    Virtual:                                                              

      41A      0.052443    42A      0.066655    43A      0.105199  
      44A      0.111069    45A      0.132032    46A      0.147391  
      47A      0.170680    48A      0.172829    49A      0.181292  
      50A      0.187459    51A      0.192354    52A      0.201872  
      53A      0.223236    54A      0.230532    55A      0.241460  
      56A      0.247200    57A      0.262828    58A      0.318323  
      59A      0.332796    60A      0.358268    61A      0.360543  
      62A      0.374450    63A      0.384123    64A      0.398405  
      65A      0.408928    66A      0.409535    67A      0.436590  
      68A      0.464121    69A      0.467476    70A      0.474783  
      71A      0.490531    72A      0.505588    73A      0.508831  
      74A      0.516516    75A      0.518004    76A      0.525049  
      77A      0.541836    78A      0.551422    79A      0.559582  
      80A      0.578209    81A      0.596193    82A      0.612379  
      83A      0.617963    84A      0.628814    85A      0.635294  
      86A      0.641826    87A      0.655649    88A      0.667174  
      89A      0.677491    90A      0.693537    91A      0.694078  
      92A      0.704151    93A      0.716330    94A      0.719067  
      95A      0.727268    96A      0.750617    97A      0.755462  
      98A      0.770318    99A      0.788782   100A      0.829889  
     101A      0.848978   102A      0.864898   103A      0.881121  
     104A      0.884375   105A      0.899346   106A      0.929096  
     107A      0.960295   108A      0.972507   109A      0.980537  
     110A      1.012524   111A      1.037097   112A      1.061041  
     113A      1.087022   114A      1.138552   115A      1.156403  
     116A      1.241159   117A      1.279951   118A      1.364349  
     119A      1.385328   120A      1.512990   121A      1.724631  
     122A      2.301955   123A      2.307254   124A      2.323844  
     125A      2.340286   126A      2.368549   127A      2.381381  
     128A      2.387789   129A      2.419357   130A      2.451731  
     131A      2.496169   132A      2.627189   133A      2.634160  
     134A      2.648833   135A      2.675738   136A      2.682734  
     137A      2.769090   138A      2.789362   139A      2.830024  
     140A      2.840254   141A      2.854074   142A      2.904902  
     143A      2.942543   144A      2.956201   145A      2.980123  
     146A      2.982122   147A      3.018752   148A      3.061497  
     149A      3.070080   150A      3.157790   151A      3.205306  
     152A      3.238467   153A      3.246480   154A      3.295478  
     155A      3.328457   156A      3.347969   157A      3.375826  
     158A      3.387661   159A      3.529272   160A      3.900090  
     161A      4.183387   162A      4.240849   163A      4.972905  
     164A      5.074049   165A      5.171805   166A     23.242350  
     167A     23.427482   168A     23.485922   169A     23.500815  
     170A     23.572109   171A     23.640224   172A     23.744086  
     173A     23.784020   174A     24.021840   175A     35.556913  
     176A     50.038584  

    Final Occupation by Irrep:
              A 
    DOCC [    40 ]

  @DF-RKS Final Energy:  -479.37812681808441

   => Energetics <=

    Nuclear Repulsion Energy =            588.7683366992822585
    One-Electron Energy =               -1815.7307541567315639
    Two-Electron Energy =                 794.6944993148821368
    DFT Exchange-Correlation Energy =     -47.0978733421034974
    Empirical Dispersion Energy =          -0.0123353334138303
    VV10 Nonlocal Energy =                  0.0000000000000000
    Total Energy =                       -479.3781268180844108

Computation Completed


Properties will be evaluated at   0.000000,   0.000000,   0.000000 [a0]

Properties computed using the SCF density matrix

  Nuclear Dipole Moment: [e a0]
     X:     3.6409      Y:     4.9363      Z:    -4.0875

  Electronic Dipole Moment: [e a0]
     X:    -3.3579      Y:    -3.5957      Z:     3.2623

  Dipole Moment: [e a0]
     X:     0.2830      Y:     1.3407      Z:    -0.8253     Total:     1.5995

  Dipole Moment: [D]
     X:     0.7193      Y:     3.4076      Z:    -2.0976     Total:     4.0656


*** tstop() called on node74.bme.utexas.edu at Wed Jun  8 11:30:07 2022
Module time:
	user time   =      61.20 seconds =       1.02 minutes
	system time =       3.28 seconds =       0.05 minutes
	total time  =         32 seconds =       0.53 minutes
Total time:
	user time   =     162.22 seconds =       2.70 minutes
	system time =       7.34 seconds =       0.12 minutes
	total time  =         86 seconds =       1.43 minutes

*** tstart() called on node74.bme.utexas.edu
*** at Wed Jun  8 11:30:07 2022


         ------------------------------------------------------------
                                   SCF GRAD                          
                          Rob Parrish, Justin Turney,                
                       Andy Simmonett, and Alex Sokolov              
         ------------------------------------------------------------

  ==> Geometry <==

    Molecular point group: c1
    Full point group: C1

    Geometry (in Angstrom), charge = 0, multiplicity = 1:

       Center              X                  Y                   Z               Mass       
    ------------   -----------------  -----------------  -----------------  -----------------
         C            1.936444813154    -0.666115411441    -0.308589437044    12.000000000000
         N            0.926096968931     0.260195034467    -0.553703355802    14.003074004430
         C           -0.384459104413     0.190837972500     0.010114886738    12.000000000000
         C           -0.752345286784    -0.718094061174     1.010645013854    12.000000000000
         C            1.202513455180     1.454714832952    -1.352823515861    12.000000000000
         C           -1.352528485961     1.076721398780    -0.479666054946    12.000000000000
         C           -2.051860269093    -0.718153009823     1.506512317190    12.000000000000
         C           -3.009151217497     0.169323507743     1.024191095728    12.000000000000
         C           -2.647136479097     1.067142675653     0.027289844229    12.000000000000
         H           -0.033973478269    -1.421515348161     1.389647694530     1.007825032230
         H           -1.114822778228     1.780742870375    -1.264123438294     1.007825032230
         C            3.288207265338    -0.352726742124    -0.913814152019    12.000000000000
         O            1.773546269225    -1.688265774257     0.366687523869    15.994914619570
         H            0.715036539888     1.394188257238    -2.327442300579     1.007825032230
         H            0.846016663885     2.339285329659    -0.824861311535     1.007825032230
         H            2.269928906812     1.567038100795    -1.505168008348     1.007825032230
         H           -2.310095457249    -1.429304966684     2.279038351812     1.007825032230
         H           -3.372056012655     1.765568797785    -0.369003531262     1.007825032230
         H            3.236540017559    -0.215577326696    -1.994524550702     1.007825032230
         H            3.731225733130     0.536666273857    -0.462629234570     1.007825032230
         H           -4.017615932187     0.161876476039     1.415247177245     1.007825032230
         H            3.927332274647    -1.203923228833    -0.699940828796     1.007825032230

  Nuclear repulsion =  588.768336699282258

  ==> Basis Set <==

  Basis Set: 6-311G
    Blend: 6-311G
    Number of shells: 110
    Number of basis functions: 176
    Number of Cartesian functions: 176
    Spherical Harmonics?: true
    Max angular momentum: 1

  ==> DFJKGrad: Density-Fitted SCF Gradients <==

    Gradient:                    1
    J tasked:                  Yes
    K tasked:                  Yes
    wK tasked:                 Yes
    Omega:               2.000E-01
    OpenMP threads:              2
    Integrals threads:           2
    Memory [MiB]:             5841
    Schwarz Cutoff:          1E-12
    Fitting Condition:       1E-10

   => Auxiliary Basis Set <=

  Basis Set: (6-311G AUX)
    Blend: CC-PVTZ-JKFIT
    Number of shells: 385
    Number of basis functions: 1199
    Number of Cartesian functions: 1441
    Spherical Harmonics?: true
    Max angular momentum: 4

  ==> DFT Potential <==

   => LibXC <=

    Version 5.1.5
    S. Lehtola, C. Steigemann, M. J. Oliveira, and M. A. Marques, SoftwareX 7, 1 (2018) (10.1016/j.softx.2017.11.002)

   => Composite Functional: WB97X-D <= 

    wB97X-D Hyb-GGA Exchange-Correlation Functional

    J.-D. Chai and M. Head-Gordon, Phys. Chem. Chem. Phys. 10, 6615 (2008) (10.1039/B810189B)

    Deriv               =              1
    GGA                 =           TRUE
    Meta                =          FALSE

    Exchange Hybrid     =           TRUE
    MP2 Hybrid          =          FALSE

   => Exchange-Correlation Functionals <=

    1.0000   wB97X-D range-separated functional

   => Exact (HF) Exchange <=

    0.7780            HF,LR [omega = 0.2000]
    0.2220               HF 

   => LibXC Density Thresholds  <==

    XC_HYB_GGA_XC_WB97X_D:  1.00E-14 

   => Molecular Quadrature <=

    Radial Scheme          =       TREUTLER
    Pruning Scheme         =           NONE
    Nuclear Scheme         =       TREUTLER

    BS radius alpha        =              1
    Pruning alpha          =              1
    Radial Points          =             75
    Spherical Points       =            302
    Total Points           =         459074
    Total Blocks           =           3382
    Max Points             =            256
    Max Functions          =            154
    Weights Tolerance      =       1.00E-15


  -Total Gradient:
     Atom            X                  Y                   Z
    ------   -----------------  -----------------  -----------------
       1        0.002694014920    -0.012078322700     0.006857691593
       2       -0.004398632421    -0.000615418436    -0.007184666205
       3       -0.000376706774     0.003434678310     0.005161449308
       4       -0.000627197550     0.001519496501    -0.002836407407
       5       -0.005054160493    -0.001086534632     0.000866432894
       6        0.004439057582    -0.002869721284     0.000750714287
       7        0.000421883766     0.000002890118    -0.000141805498
       8        0.001271360456    -0.000009940304    -0.000888675124
       9        0.000948660965    -0.000651928293     0.000474388954
      10       -0.000236613282    -0.000030060141     0.000903016413
      11        0.002748489929     0.002026044256    -0.001719258812
      12       -0.001622425991     0.007026680842    -0.000874277341
      13        0.000308754335     0.005569555038    -0.003365342512
      14       -0.000617028201    -0.001141691169     0.000428618353
      15       -0.001169625307    -0.000153374578     0.001239854246
      16        0.003744900641    -0.001689794698     0.000811177435
      17        0.000313716894    -0.000062629650    -0.000263843935
      18        0.000165783161     0.000117232353    -0.000099548776
      19       -0.001155673030     0.000374846379    -0.000719770344
      20       -0.000608583180     0.000419089596     0.000488382953
      21       -0.000405684358     0.000236940810    -0.000022680454
      22       -0.000679049264    -0.000220512525     0.000020039053


*** tstop() called on node74.bme.utexas.edu at Wed Jun  8 11:30:24 2022
Module time:
	user time   =      32.37 seconds =       0.54 minutes
	system time =       0.69 seconds =       0.01 minutes
	total time  =         17 seconds =       0.28 minutes
Total time:
	user time   =     194.60 seconds =       3.24 minutes
	system time =       8.03 seconds =       0.13 minutes
	total time  =        103 seconds =       1.72 minutes

			-----------------------------------------
			 OPTKING 2.0: for geometry optimizations 
			  - R.A. King,  Bethel University        
			-----------------------------------------
	At level 1: Red. Int., RFO, no backsteps, dynamic trust

	Previous internal coordinate definitions found.
	---Fragment 1 Geometry and Gradient---
	 C           3.6593503539       -1.2587756956       -0.5831495212
	 N           1.7500696369        0.4916973543       -1.0463476972
	 C          -0.7265224138        0.3606315024        0.0191143657
	 C          -1.4217265438       -1.3570011079        1.9098422862
	 C           2.2724210925        2.7490126249       -2.5564659411
	 C          -2.5559084153        2.0347085571       -0.9064374755
	 C          -3.8774539563       -1.3571125047        2.8468956841
	 C          -5.6864716712        0.3199750562        1.9354406711
	 C          -5.0023629622        2.0166073938        0.0515703316
	 H          -0.0642005695       -2.6862746912        2.6260535535
	 H          -2.1067097293        3.3651163249       -2.3888470871
	 C           6.2138111752       -0.6665569397       -1.7268584769
	 O           3.3515167197       -3.1903599403        0.6929389937
	 H           1.3512232301        2.6346339735       -4.3982285209
	 H           1.5987397923        4.4206086024       -1.5587619703
	 H           4.2895439581        2.9612728387       -2.8443553086
	 H          -4.3654477379       -2.7009949368        4.3067583143
	 H          -6.3722623436        3.3364414835       -0.6973156134
	 H           6.1161742273       -0.4073821063       -3.7691051513
	 H           7.0509947479        1.0141522784       -0.8742425510
	 H          -7.5921937891        0.3059022059        2.6744295648
	 H           7.4215824028       -2.2750851786       -1.3226964704
	             0.0026940149       -0.0120783227        0.0068576916
	            -0.0043986324       -0.0006154184       -0.0071846662
	            -0.0003767068        0.0034346783        0.0051614493
	            -0.0006271976        0.0015194965       -0.0028364074
	            -0.0050541605       -0.0010865346        0.0008664329
	             0.0044390576       -0.0028697213        0.0007507143
	             0.0004218838        0.0000028901       -0.0001418055
	             0.0012713605       -0.0000099403       -0.0008886751
	             0.0009486610       -0.0006519283        0.0004743890
	            -0.0002366133       -0.0000300601        0.0009030164
	             0.0027484899        0.0020260443       -0.0017192588
	            -0.0016224260        0.0070266808       -0.0008742773
	             0.0003087543        0.0055695550       -0.0033653425
	            -0.0006170282       -0.0011416912        0.0004286184
	            -0.0011696253       -0.0001533746        0.0012398542
	             0.0037449006       -0.0016897947        0.0008111774
	             0.0003137169       -0.0000626297       -0.0002638439
	             0.0001657832        0.0001172324       -0.0000995488
	            -0.0011556730        0.0003748464       -0.0007197703
	            -0.0006085832        0.0004190896        0.0004883830
	            -0.0004056844        0.0002369408       -0.0000226805
	            -0.0006790493       -0.0002205125        0.0000200391

	---Fragment 1 Intrafragment Coordinates---
	 - Coordinate -           - BOHR/RAD -       - ANG/DEG -
	 R(1,2)           =         2.631361	       1.392456
	 R(1,12)          =         2.860780	       1.513860
	 R(1,13)          =         2.335419	       1.235850
	 R(2,3)           =         2.699240	       1.428376
	 R(2,5)           =         2.765643	       1.463515
	 R(3,4)           =         2.647343	       1.400913
	 R(3,6)           =         2.646853	       1.400655
	 R(4,7)           =         2.628434	       1.390907
	 R(4,10)          =         2.030469	       1.074478
	 R(5,14)          =         2.062469	       1.091411
	 R(5,15)          =         2.059974	       1.090091
	 R(5,16)          =         2.048590	       1.084067
	 R(6,9)           =         2.627403	       1.390362
	 R(6,11)          =         2.041887	       1.080520
	 R(7,8)           =         2.629813	       1.391637
	 R(7,17)          =         2.043369	       1.081304
	 R(8,9)           =         2.625935	       1.389585
	 R(8,21)          =         2.044035	       1.081657
	 R(9,18)          =         2.044362	       1.081830
	 R(12,19)         =         2.060941	       1.090603
	 R(12,20)         =         2.062187	       1.091262
	 R(12,22)         =         2.051687	       1.085706
	 B(1,2,3)         =         2.169959	     124.329494
	 B(1,2,5)         =         2.096751	     120.134962
	 B(1,12,19)       =         1.960478	     112.327096
	 B(1,12,20)       =         1.945422	     111.464466
	 B(1,12,22)       =         1.859371	     106.534137
	 B(2,1,12)        =         2.026180	     116.091573
	 B(2,1,13)        =         2.154056	     123.418331
	 B(2,3,4)         =         2.158391	     123.666704
	 B(2,3,6)         =         2.054889	     117.736487
	 B(2,5,14)        =         1.936893	     110.975816
	 B(2,5,15)        =         1.913561	     109.638982
	 B(2,5,16)        =         1.925458	     110.320600
	 B(3,2,5)         =         2.013580	     115.369621
	 B(3,4,7)         =         2.094387	     119.999557
	 B(3,4,10)        =         2.095670	     120.073055
	 B(3,6,9)         =         2.107955	     120.776939
	 B(3,6,11)        =         2.110539	     120.924981
	 B(4,3,6)         =         2.069857	     118.594080
	 B(4,7,8)         =         2.116597	     121.272048
	 B(4,7,17)        =         2.069009	     118.545474
	 B(6,9,8)         =         2.104369	     120.571443
	 B(6,9,18)        =         2.078215	     119.072945
	 B(7,4,10)        =         2.093089	     119.925162
	 B(7,8,9)         =         2.073128	     118.781484
	 B(7,8,21)        =         2.107898	     120.773667
	 B(8,7,17)        =         2.097574	     120.182120
	 B(8,9,18)        =         2.100587	     120.354782
	 B(9,6,11)        =         2.064676	     118.297201
	 B(9,8,21)        =         2.102158	     120.444801
	 B(12,1,13)       =         2.102917	     120.488242
	 B(14,5,15)       =         1.908618	     109.355749
	 B(14,5,16)       =         1.896569	     108.665427
	 B(15,5,16)       =         1.881780	     107.818056
	 B(19,12,20)      =         1.903334	     109.052985
	 B(19,12,22)      =         1.898304	     108.764813
	 B(20,12,22)      =         1.894989	     108.574886
	*D(1,2,3,4)       =         0.151540	       8.682601
	 D(1,2,3,6)       =        -2.979397	    -170.706881
	 D(1,2,5,14)      =         1.904713	     109.132042
	 D(1,2,5,15)      =        -2.268198	    -129.958184
	 D(1,2,5,16)      =        -0.198336	     -11.363798
	 D(2,1,12,19)     =        -0.984643	     -56.415910
	 D(2,1,12,20)     =         1.157394	      66.313799
	 D(2,1,12,22)     =        -3.061427	    -175.406838
	 D(2,3,4,7)       =         3.140508	     179.937863
	 D(2,3,4,10)      =        -0.010566	      -0.605404
	 D(2,3,6,9)       =        -3.137533	    -179.767389
	 D(2,3,6,11)      =         0.010117	       0.579643
	*D(3,2,1,12)      =        -3.058628	    -175.246467
	 D(3,2,1,13)      =         0.074339	       4.259330
	 D(3,2,5,14)      =        -1.315095	     -75.349378
	 D(3,2,5,15)      =         0.795179	      45.560396
	 D(3,2,5,16)      =         2.865041	     164.154782
	 D(3,4,7,8)       =         0.004530	       0.259551
	 D(3,4,7,17)      =        -3.140855	    -179.957738
	 D(3,6,9,8)       =        -0.009106	      -0.521708
	 D(3,6,9,18)      =         3.138253	     179.808630
	 D(4,3,2,5)       =        -2.908132	    -166.623672
	 D(4,3,6,9)       =         0.014160	       0.811312
	 D(4,3,6,11)      =        -3.121376	    -178.841655
	 D(4,7,8,9)       =         0.000767	       0.043969
	 D(4,7,8,21)      =         3.140977	     179.964713
	 D(5,2,1,12)      =        -0.002632	      -0.150827
	 D(5,2,1,13)      =         3.130335	     179.354970
	 D(5,2,3,6)       =         0.244117	      13.986847
	 D(6,3,4,7)       =        -0.011826	      -0.677568
	 D(6,3,4,10)      =         3.120285	     178.779165
	 D(6,9,8,7)       =         0.001486	       0.085166
	 D(6,9,8,21)      =        -3.138728	    -179.835847
	 D(7,8,9,18)      =         3.137240	     179.750583
	 D(8,7,4,10)      =        -3.127595	    -179.197991
	 D(8,9,6,11)      =         3.126586	     179.140191
	 D(9,8,7,17)      =        -3.136971	    -179.735221
	 D(10,4,7,17)     =         0.010205	       0.584720
	 D(11,6,9,18)     =        -0.009241	      -0.529472
	 D(13,1,12,19)    =         2.165304	     124.062773
[...]
	 R(2,5)           =         2.772645	       1.467220
	 R(3,4)           =         2.656484	       1.405751
	 R(3,6)           =         2.656942	       1.405993
	 R(4,7)           =         2.629870	       1.391667
	 R(4,10)          =         2.028231	       1.073294
	 R(5,14)          =         2.062675	       1.091521
	 R(5,15)          =         2.059798	       1.089998
	 R(5,16)          =         2.042568	       1.080881
	 R(6,9)           =         2.630350	       1.391921
	 R(6,11)          =         2.036574	       1.077708
	 R(7,8)           =         2.629387	       1.391412
	 R(7,17)          =         2.044129	       1.081707
	 R(8,9)           =         2.626754	       1.390019
	 R(8,21)          =         2.042948	       1.081081
	 R(9,18)          =         2.044290	       1.081792
	 R(12,19)         =         2.061449	       1.090872
	 R(12,20)         =         2.062467	       1.091410
	 R(12,22)         =         2.051261	       1.085481
	 B(1,2,3)         =         2.158106	     123.650380
	 B(1,2,5)         =         2.096351	     120.112063
	 B(1,12,19)       =         1.965316	     112.604323
	 B(1,12,20)       =         1.956708	     112.111134
	 B(1,12,22)       =         1.856523	     106.370935
	 B(2,1,12)        =         2.067355	     118.450718
	 B(2,1,13)        =         2.147806	     123.060244
	 B(2,3,4)         =         2.148699	     123.111408
	 B(2,3,6)         =         2.075413	     118.912403
	 B(2,5,14)        =         1.938256	     111.053907
	 B(2,5,15)        =         1.923855	     110.228760
	 B(2,5,16)        =         1.933366	     110.773719
	 B(3,2,5)         =         2.028552	     116.227492
	 B(3,4,7)         =         2.098956	     120.261340
	 B(3,4,10)        =         2.089674	     119.729495
	 B(3,6,9)         =         2.112166	     121.018212
	 B(3,6,11)        =         2.116509	     121.267051
	 B(4,3,6)         =         2.059064	     117.975668
	 B(4,7,8)         =         2.119391	     121.432132
	 B(4,7,17)        =         2.068593	     118.521652
	 B(6,9,8)         =         2.106366	     120.685895
	 B(6,9,18)        =         2.077029	     119.005013
	 B(7,4,10)        =         2.094458	     120.003588
	 B(7,8,9)         =         2.070321	     118.620680
	 B(7,8,21)        =         2.107170	     120.731934
	 B(8,7,17)        =         2.095197	     120.045931
	 B(8,9,18)        =         2.099784	     120.308780
	 B(9,6,11)        =         2.054467	     117.712280
	 B(9,8,21)        =         2.105685	     120.646883
	 B(12,1,13)       =         2.067972	     118.486047
	 B(14,5,15)       =         1.900822	     108.909105
	 B(14,5,16)       =         1.885049	     108.005380
	 B(15,5,16)       =         1.880981	     107.772253
	 B(19,12,20)      =         1.893943	     108.514960
	 B(19,12,22)      =         1.894749	     108.561101
	 B(20,12,22)      =         1.894345	     108.537989
	*D(1,2,3,4)       =         0.151540	       8.682601
	 D(1,2,3,6)       =        -2.994732	    -171.585512
	 D(1,2,5,14)      =         1.948837	     111.660135
	 D(1,2,5,15)      =        -2.226126	    -127.547611
	 D(1,2,5,16)      =        -0.145872	      -8.357867
	 D(2,1,12,19)     =        -1.083798	     -62.097041
	 D(2,1,12,20)     =         1.057956	      60.616392
	 D(2,1,12,22)     =         3.126018	     179.107665
	 D(2,3,4,7)       =         3.121370	     178.841331
	 D(2,3,4,10)      =        -0.035215	      -2.017659
	 D(2,3,6,9)       =        -3.122980	    -178.933548
	 D(2,3,6,11)      =         0.028794	       1.649766
	*D(3,2,1,12)      =        -3.058628	    -175.246467
	 D(3,2,1,13)      =         0.071806	       4.114188
	 D(3,2,5,14)      =        -1.212170	     -69.452198
	 D(3,2,5,15)      =         0.896053	      51.340056
	 D(3,2,5,16)      =         2.976306	     170.529800
	 D(3,4,7,8)       =         0.007242	       0.414921
	 D(3,4,7,17)      =        -3.137741	    -179.779332
	 D(3,6,9,8)       =        -0.004209	      -0.241158
	 D(3,6,9,18)      =         3.140916	     179.961256
	 D(4,3,2,5)       =        -2.969878	    -170.161483
	 D(4,3,6,9)       =         0.014175	       0.812164
	 D(4,3,6,11)      =        -3.117237	    -178.604522
	 D(4,7,8,9)       =         0.003045	       0.174467
	 D(4,7,8,21)      =         3.140163	     179.918068
	 D(5,2,1,12)      =         0.062044	       3.554850
	 D(5,2,1,13)      =        -3.090707	    -177.084494
	 D(5,2,3,6)       =         0.167035	       9.570404
	 D(6,3,4,7)       =        -0.015584	      -0.892920
	 D(6,3,4,10)      =         3.111016	     178.248089
	 D(6,9,8,7)       =        -0.004561	      -0.261318
	 D(6,9,8,21)      =         3.141503	     179.994855
	 D(7,8,9,18)      =         3.133453	     179.533629
	 D(8,7,4,10)      =        -3.119317	    -178.723725
	 D(8,9,6,11)      =         3.127554	     179.195649
	 D(9,8,7,17)      =        -3.135106	    -179.628359
	 D(10,4,7,17)     =         0.018885	       1.082021
	 D(11,6,9,18)     =        -0.010506	      -0.601937
	 D(13,1,12,19)    =         2.068435	     118.512598
	 D(13,1,12,20)    =        -2.072997	    -118.773969
	 D(13,1,12,22)    =        -0.004934	      -0.282696
	 D(17,7,8,21)     =         0.002011	       0.115241
	 D(18,9,8,21)     =        -0.003669	      -0.210198
	 R(4,13)          =         5.180866	       2.741596

	Current energy   :      -479.3793247430

	Energy change for the previous step:
		Projected    :        -0.0000138100
		Actual       :        -0.0000028137

	Performing BFGS update.
	Previous computed or guess Hessian on step 1.
	Steps to be used in Hessian update: 4 3
	Taking RFO optimization step.
	Going to follow RFO solution 1.
	Using RFO vector 1.
	Norm of target step-size    0.01781
	Projected energy change by RFO approximation:        -0.0000046066

	Back-transformation to cartesian coordinates...
	Could not converge backtransformation.
	Using first guess instead.

	Back-transformation to cartesian coordinates to adjust frozen coordinates...
	Successfully converged to displaced geometry.

	--- Internal Coordinate Step in ANG or DEG, aJ/ANG or AJ/DEG ---
	 ---------------------------------------------------------------------------
	   Coordinate                Previous        Force       Change         New 
	   ----------                --------       ------       ------       ------
	    1 R(1,2)          =      1.388251     0.000509     0.000045     1.388296
	    2 R(1,12)         =      1.514885    -0.000027    -0.000019     1.514866
	    3 R(1,13)         =      1.243021    -0.000406    -0.000049     1.242972
	    4 R(2,3)          =      1.436273     0.000219     0.000031     1.436304
	    5 R(2,5)          =      1.467220    -0.000343    -0.000065     1.467155
	    6 R(3,4)          =      1.405751     0.000475     0.000066     1.405817
	    7 R(3,6)          =      1.405993     0.000059     0.000005     1.405998
	    8 R(4,7)          =      1.391667    -0.000425    -0.000074     1.391593
	    9 R(4,10)         =      1.073294     0.000050     0.000014     1.073307
	   10 R(5,14)         =      1.091521    -0.000195    -0.000056     1.091465
	   11 R(5,15)         =      1.089998    -0.000402    -0.000040     1.089958
	   12 R(5,16)         =      1.080881    -0.000501    -0.000087     1.080794
	   13 R(6,9)          =      1.391921    -0.000012    -0.000005     1.391917
	   14 R(6,11)         =      1.077708    -0.000195    -0.000035     1.077674
	   15 R(7,8)          =      1.391412     0.000277     0.000054     1.391466
	   16 R(7,17)         =      1.081707    -0.000002    -0.000002     1.081705
	   17 R(8,9)          =      1.390019    -0.000268    -0.000042     1.389977
	   18 R(8,21)         =      1.081081    -0.000026    -0.000011     1.081070
	   19 R(9,18)         =      1.081792    -0.000016     0.000001     1.081792
	   20 R(12,19)        =      1.090872    -0.000514    -0.000152     1.090720
	   21 R(12,20)        =      1.091410    -0.001760    -0.000417     1.090994
	   22 R(12,22)        =      1.085481    -0.001287    -0.000316     1.085164
	   23 B(1,2,3)        =    123.650380     0.000000    -0.000851   123.649529
	   24 B(1,2,5)        =    120.112063     0.000002     0.009159   120.121222
	   25 B(1,12,19)      =    112.604323    -0.000004    -0.045052   112.559271
	   26 B(1,12,20)      =    112.111134     0.000003     0.044119   112.155253
	   27 B(1,12,22)      =    106.370935     0.000002     0.011316   106.382251
	   28 B(2,1,12)       =    118.450718     0.000001    -0.000446   118.450272
	   29 B(2,1,13)       =    123.060244     0.000001     0.000628   123.060873
	   30 B(2,3,4)        =    123.111408    -0.000004    -0.014005   123.097403
	   31 B(2,3,6)        =    118.912403     0.000006     0.018055   118.930459
	   32 B(2,5,14)       =    111.053907     0.000000    -0.005070   111.048838
	   33 B(2,5,15)       =    110.228760    -0.000000     0.003838   110.232597
	   34 B(2,5,16)       =    110.773719     0.000000     0.002551   110.776270
	   35 B(3,2,5)        =    116.227492    -0.000002    -0.006903   116.220589
	   36 B(3,4,7)        =    120.261340     0.000001     0.005220   120.266560
	   37 B(3,4,10)       =    119.729495    -0.000001    -0.005790   119.723706
	   38 B(3,6,9)        =    121.018212    -0.000000    -0.000715   121.017497
	   39 B(3,6,11)       =    121.267051     0.000002     0.008167   121.275218
	   40 B(4,3,6)        =    117.975668    -0.000002    -0.004045   117.971623
	   41 B(4,7,8)        =    121.432132    -0.000001    -0.003877   121.428255
	   42 B(4,7,17)       =    118.521652     0.000001     0.006100   118.527752
	   43 B(6,9,8)        =    120.685895     0.000001     0.002639   120.688534
	   44 B(6,9,18)       =    119.005013    -0.000001    -0.001117   119.003897
	   45 B(7,4,10)       =    120.003588    -0.000000     0.000591   120.004179
	   46 B(7,8,9)        =    118.620680     0.000000     0.000778   118.621458
	   47 B(7,8,21)       =    120.731934    -0.000001    -0.003274   120.728660
	   48 B(8,7,17)       =    120.045931    -0.000000    -0.002174   120.043757
	   49 B(8,9,18)       =    120.308780    -0.000000    -0.001476   120.307304
	   50 B(9,6,11)       =    117.712280    -0.000002    -0.007331   117.704949
	   51 B(9,8,21)       =    120.646883     0.000000     0.002422   120.649305
	   52 B(12,1,13)      =    118.486047    -0.000001     0.000669   118.486716
	   53 B(14,5,15)      =    108.909105    -0.000000    -0.003830   108.905275
	   54 B(14,5,16)      =    108.005380    -0.000001    -0.025902   107.979478
	   55 B(15,5,16)      =    107.772253     0.000001     0.028766   107.801019
	   56 B(19,12,20)     =    108.514960     0.000000     0.001407   108.516367
	   57 B(19,12,22)     =    108.561101    -0.000002    -0.019958   108.541143
	   58 B(20,12,22)     =    108.537989    -0.000000     0.007944   108.545933
	   59 *D(1,2,3,4)     =      8.682601     0.000000     0.000000     8.682601
	   60 D(1,2,3,6)      =   -171.585512     0.000000     0.001296  -171.584216
	   61 D(1,2,5,14)     =    111.660135     0.000000     0.142628   111.802763
	   62 D(1,2,5,15)     =   -127.547611     0.000000     0.137036  -127.410575
	   63 D(1,2,5,16)     =     -8.357867     0.000000     0.176884    -8.180984
	   64 D(2,1,12,19)    =    -62.097041    -0.000000    -0.311867   -62.408909
	   65 D(2,1,12,20)    =     60.616392    -0.000000    -0.310493    60.305899
	   66 D(2,1,12,22)    =    179.107665     0.000001    -0.269302   178.838363
	   67 D(2,3,4,7)      =    178.841331     0.000000     0.002476   178.843807
	   68 D(2,3,4,10)     =     -2.017659     0.000000     0.004162    -2.013497
	   69 D(2,3,6,9)      =   -178.933548    -0.000000    -0.009692  -178.943239
	   70 D(2,3,6,11)     =      1.649766    -0.000000    -0.024255     1.625511
	   71 *D(3,2,1,12)    =   -175.246467    -0.000000     0.000000  -175.246467
	   72 D(3,2,1,13)     =      4.114188     0.000001     0.098526     4.212714
	   73 D(3,2,5,14)     =    -69.452198     0.000000     0.223156   -69.229043
	   74 D(3,2,5,15)     =     51.340056     0.000000     0.217563    51.557619
	   75 D(3,2,5,16)     =    170.529800     0.000000     0.257411   170.787211
	   76 D(3,4,7,8)      =      0.414921     0.000000    -0.002099     0.412822
	   77 D(3,4,7,17)     =   -179.779332     0.000000     0.015173  -179.764159
	   78 D(3,6,9,8)      =     -0.241158     0.000000     0.016863    -0.224295
	   79 D(3,6,9,18)     =    179.961256    -0.000000     0.001292   179.962548
	   80 D(4,3,2,5)      =   -170.161483    -0.000000    -0.083793  -170.245276
	   81 D(4,3,6,9)      =      0.812164     0.000000    -0.008493     0.803671
	   82 D(4,3,6,11)     =   -178.604522     0.000000    -0.023056  -178.627579
	   83 D(4,7,8,9)      =      0.174467     0.000000     0.010138     0.184605
	   84 D(4,7,8,21)     =    179.918068    -0.000000    -0.008025   179.910043
	   85 D(5,2,1,12)     =      3.554850     0.000000     0.086725     3.641575
	   86 D(5,2,1,13)     =   -177.084494     0.000001     0.185251  -176.899244
	   87 D(5,2,3,6)      =      9.570404     0.000000    -0.082497     9.487907
	   88 D(6,3,4,7)      =     -0.892920    -0.000000     0.001136    -0.891784
	   89 D(6,3,4,10)     =    178.248089    -0.000000     0.002821   178.250911
	   90 D(6,9,8,7)      =     -0.261318    -0.000000    -0.017398    -0.278716
	   91 D(6,9,8,21)     =    179.994855    -0.000000     0.000766   179.995621
	   92 D(7,8,9,18)     =    179.533629    -0.000000    -0.001623   179.532005
	   93 D(8,7,4,10)     =   -178.723725    -0.000000    -0.003735  -178.727460
	   94 D(8,9,6,11)     =    179.195649     0.000000     0.031008   179.226657
	   95 D(9,8,7,17)     =   -179.628359     0.000000    -0.007408  -179.635768
	   96 D(10,4,7,17)    =      1.082021     0.000000     0.013538     1.095559
	   97 D(11,6,9,18)    =     -0.601937    -0.000000     0.015438    -0.586500
	   98 D(13,1,12,19)   =    118.512598    -0.000001    -0.405815   118.106782
	   99 D(13,1,12,20)   =   -118.773969    -0.000001    -0.404441  -119.178410
	  100 D(13,1,12,22)   =     -0.282696    -0.000000    -0.363250    -0.645946
	  101 D(17,7,8,21)    =      0.115241    -0.000000    -0.025571     0.089670
	  102 D(18,9,8,21)    =     -0.210198     0.000000     0.016540    -0.193658
	  103 R(4,13)         =      2.741596    -0.000051    -0.000041     2.741555
	 ---------------------------------------------------------------------------
	Successfully symmetrized geometry.

  ==> Convergence Check <==

  Measures of convergence in internal coordinates in au.
  Criteria marked as inactive (o), active & met (*), and active & unmet ( ).
  ---------------------------------------------------------------------------------------------
   Step     Total Energy     Delta E     MAX Force     RMS Force      MAX Disp      RMS Disp   
  ---------------------------------------------------------------------------------------------
    Convergence Criteria             o    2.50e-03 *    1.70e-03 *    1.00e-02 *    6.70e-03 *
  ---------------------------------------------------------------------------------------------
      5    -479.37932474   -2.81e-06 o    2.14e-04 *    3.58e-05 *    7.08e-03 *    1.75e-03 *  ~
  ---------------------------------------------------------------------------------------------


  **** Optimization is complete! (in 5 steps) ****

  ==> Optimization Summary <==

  Measures of convergence in internal coordinates in au.
  --------------------------------------------------------------------------------------------------------------- ~
   Step         Total Energy             Delta E       MAX Force       RMS Force        MAX Disp        RMS Disp  ~
  --------------------------------------------------------------------------------------------------------------- ~
      1    -479.379149723776   -479.379149723776      0.00155022      0.00043487      0.08893258      0.01969954  ~
      2    -479.379158250985     -0.000008527209      0.00331544      0.00070189      0.07268267      0.01500664  ~
      3    -479.379259169571     -0.000100918587      0.00162069      0.00037266      0.03571201      0.00895016  ~
      4    -479.379321929300     -0.000062759728      0.00071390      0.00017363      0.00576461      0.00129195  ~
      5    -479.379324742963     -0.000002813663      0.00021359      0.00003582      0.00708282      0.00175486  ~
  --------------------------------------------------------------------------------------------------------------- ~

	Writing optimization data to binary file.
	Final energy is   -479.3793247429629
	Final (previous) structure:
	Cartesian Geometry (in Angstrom)
	    C     1.9299266647  -0.6445566725  -0.3351602517
	    N     0.9316458544   0.2930753862  -0.5621477529
	    C    -0.3862311505   0.2048989920   0.0020369711
	    C    -0.7417963945  -0.7418676250   0.9784291565
	    C     1.2017690759   1.4681229544  -1.3982292570
	    C    -1.3732703517   1.1071844666  -0.4320725140
	    C    -2.0310096394  -0.7588101230   1.5022413448
	    C    -2.9996518669   0.1441840712   1.0752045565
	    C    -2.6586383730   1.0752865698   0.1010846752
	    H    -0.0184063533  -1.4622673574   1.3096242449
	    H    -1.1648474416   1.8401605586  -1.1941495667
	    C     3.3104653210  -0.3799861450  -0.8999537723
	    O     1.7466492929  -1.6851786583   0.3195280420
	    H     0.6433649687   1.4196832868  -2.3348484194
	    H     0.9245059460   2.3794458584  -0.8684065543
	    H     2.2534050024   1.5335797280  -1.6392278102
	    H    -2.2730749134  -1.4971111090   2.2548403268
	    H    -3.3925261424   1.7851837632  -0.2563055987
	    H     3.3138517989  -0.3223383868  -1.9892962541
	    H     3.7477830682   0.5377963661  -0.5029589992
	    H    -3.9981448234   0.1200265895   1.4889254482
	    H     3.9308770629  -1.2173439660  -0.5963271314
	Saving final (previous) structure.
	Cleaning optimization helper files.
			--------------------------
			 OPTKING Finished Execution 
			--------------------------

    Final optimized geometry and variables:
    Molecular point group: c1
    Full point group: C1

    Geometry (in Angstrom), charge = 0, multiplicity = 1:

    C            1.929926672324    -0.644556675042    -0.335160253040
    N            0.931645858016     0.293075387337    -0.562147755158
    C           -0.386231152042     0.204898992801     0.002036971111
    C           -0.741796397388    -0.741867627954     0.978429160329
    C            1.201769080590     1.468122960131    -1.398229262469
    C           -1.373270357061     1.107184470994    -0.432072515705
    C           -2.031009647364    -0.758810125979     1.502241350671
    C           -2.999651878722     0.144184071737     1.075204560768
    C           -2.658638383416     1.075286573996     0.101084675627
    H           -0.018406353337    -1.462267363101     1.309624250069
    H           -1.164847446164     1.840160565842    -1.194149571365
    C            3.310465333965    -0.379986146463    -0.899953775873
    O            1.746649299740    -1.685178664964     0.319528043247
    H            0.643364971198     1.419683292409    -2.334848428592
    H            0.924505949613     2.379445867708    -0.868406557668
    H            2.253405011249     1.533579734026    -1.639227816671
    H           -2.273074922317    -1.497111114879     2.254840335706
    H           -3.392526155747     1.785183770194    -0.256305599721
    H            3.313851811956    -0.322338388077    -1.989296261958
    H            3.747783082926     0.537796368172    -0.502959001189
    H           -3.998144839119     0.120026589925     1.488925454003
    H            3.930877078304    -1.217343970831    -0.596327133707

	Removing binary optimization data file.
	Cleaning optimization helper files.

    Psi4 stopped on: Wednesday, 08 June 2022 11:37AM
    Psi4 wall time for execution: 0:08:58.59

*** Psi4 exiting successfully. Buy a developer a beer!
