
    -----------------------------------------------------------------------
          Psi4: An Open-Source Ab Initio Electronic Structure Package
                               Psi4 1.5 release

                         Git: Rev {HEAD} e9f4d6d 


    D. G. A. Smith, L. A. Burns, A. C. Simmonett, R. M. Parrish,
    M. C. Schieber, R. Galvelis, P. Kraus, H. Kruse, R. Di Remigio,
    A. Alenaizan, A. M. James, S. Lehtola, J. P. Misiewicz, M. Scheurer,
    R. A. Shaw, J. B. Schriber, Y. Xie, Z. L. Glick, D. A. Sirianni,
    J. S. O'Brien, J. M. Waldrop, A. Kumar, E. G. Hohenstein,
    B. P. Pritchard, B. R. Brooks, H. F. Schaefer III, A. Yu. Sokolov,
    K. Patkowski, A. E. DePrince III, U. Bozkaya, R. A. King,
    F. A. Evangelista, J. M. Turney, T. D. Crawford, C. D. Sherrill,
    J. Chem. Phys. 152(18) 184108 (2020). https://doi.org/10.1063/5.0006002

                            Additional Code Authors
    E. T. Seidl, C. L. Janssen, E. F. Valeev, M. L. Leininger,
    J. F. Gonthier, R. M. Richard, H. R. McAlexander, M. Saitow, X. Wang,
    P. Verma, M. H. Lechner, and A. Jiang

             Previous Authors, Complete List of Code Contributors,
                       and Citations for Specific Modules
    https://github.com/psi4/psi4/blob/master/codemeta.json
    https://github.com/psi4/psi4/graphs/contributors
    http://psicode.org/psi4manual/master/introduction.html#citing-psifour

    -----------------------------------------------------------------------


    Psi4 started on: Wednesday, 08 June 2022 01:08PM

    Process ID: 1113779
    Host:       node74.bme.utexas.edu
    PSIDATADIR: /home/bdw2292/miniconda3/envs/newamoebamdpoltype/share/psi4
    Memory:     500.0 MiB
    Threads:    1
    
  ==> Input File <==

--------------------------------------------------------------------------
molecule { 
0 1
 C    1.953395    0.659368    0.028702
 N    0.943245   -0.041757   -0.615293
 C   -0.379633   -0.200762   -0.079159
 C   -1.271549   -1.079503   -0.718167
 C    1.191052   -0.654905   -1.924799
 C   -0.844957    0.514740    1.037922
 C   -2.576425   -1.235963   -0.259287
 C   -3.030694   -0.522707    0.843772
 C   -2.152993    0.348120    1.482364
 H   -0.966255   -1.663869   -1.570721
 H   -0.181488    1.178343    1.559025
 C    3.272467    0.848726   -0.691451
 O    1.822281    1.145445    1.165208
 H    0.424257   -0.347536   -2.635749
 H    2.149364   -0.345601   -2.317497
 H    1.191684   -1.744116   -1.854288
 H   -3.234578   -1.923299   -0.773735
 H   -2.482051    0.913042    2.344147
 H    3.774779   -0.097115   -0.898602
 H    3.155087    1.391350   -1.630526
 H   -4.044476   -0.643996    1.199107
 H    3.901330    1.435316   -0.029628
}
memory 8.166666666666666GB
set_num_threads(2)
psi4_io.set_default_path("/scratch/bdw2292/Psi4-3_24_Index_0-farH_in17")
set freeze_core True
E, wfn = energy('wb97x-d/6-311+G*',return_wfn=True)
oeprop(wfn,"WIBERG_LOWDIN_INDICES")
clean()
--------------------------------------------------------------------------

  Memory set to   7.606 GiB by Python driver.
  Threads set to 2 by Python driver.

Scratch directory: /scratch/bdw2292/Psi4-3_24_Index_0-farH_in17/

Scratch directory: /scratch/bdw2292/Psi4-3_24_Index_0-farH_in17/

*** tstart() called on node74.bme.utexas.edu
*** at Wed Jun  8 13:08:23 2022

   => Loading Basis Set <=

    Name: 6-311+G*
    Role: ORBITAL
    Keyword: BASIS
    atoms 1, 3-9, 12   entry C          line   130 file /home/bdw2292/miniconda3/envs/newamoebamdpoltype/share/psi4/basis/6-311pgs.gbs 
    atoms 2            entry N          line   151 file /home/bdw2292/miniconda3/envs/newamoebamdpoltype/share/psi4/basis/6-311pgs.gbs 
    atoms 10-11, 14-22 entry H          line    47 file /home/bdw2292/miniconda3/envs/newamoebamdpoltype/share/psi4/basis/6-311pgs.gbs 
    atoms 13           entry O          line   172 file /home/bdw2292/miniconda3/envs/newamoebamdpoltype/share/psi4/basis/6-311pgs.gbs 

   => WB97X-D: Empirical Dispersion <=

    Chai and Head-Gordon Dispersion Correction
    Chai, J.-D.; Head-Gordon, M. (2010), J. Chem. Phys., 132: 6615-6620

        s6 =       1.000000


         ---------------------------------------------------------
                                   SCF
               by Justin Turney, Rob Parrish, Andy Simmonett
                          and Daniel G. A. Smith
                              RKS Reference
                        2 Threads,   7788 MiB Core
         ---------------------------------------------------------

  ==> Geometry <==

    Molecular point group: c1
    Full point group: C1

    Geometry (in Angstrom), charge = 0, multiplicity = 1:

       Center              X                  Y                   Z               Mass       
    ------------   -----------------  -----------------  -----------------  -----------------
         C            1.953394842030     0.659368006595     0.028702036266    12.000000000000
         N            0.943244842030    -0.041756993405    -0.615292963734    14.003074004430
         C           -0.379633157970    -0.200761993405    -0.079158963734    12.000000000000
         C           -1.271549157970    -1.079502993405    -0.718166963734    12.000000000000
         C            1.191051842030    -0.654904993405    -1.924798963734    12.000000000000
         C           -0.844957157970     0.514740006595     1.037922036266    12.000000000000
         C           -2.576425157970    -1.235962993405    -0.259286963734    12.000000000000
         C           -3.030694157970    -0.522706993405     0.843772036266    12.000000000000
         C           -2.152993157970     0.348120006595     1.482364036266    12.000000000000
         H           -0.966255157970    -1.663868993405    -1.570720963734     1.007825032230
         H           -0.181488157970     1.178343006595     1.559025036266     1.007825032230
         C            3.272466842030     0.848726006595    -0.691450963734    12.000000000000
         O            1.822280842030     1.145445006595     1.165208036266    15.994914619570
         H            0.424256842030    -0.347535993405    -2.635748963734     1.007825032230
         H            2.149363842030    -0.345600993405    -2.317496963734     1.007825032230
         H            1.191683842030    -1.744115993405    -1.854287963734     1.007825032230
         H           -3.234578157970    -1.923298993405    -0.773734963734     1.007825032230
         H           -2.482051157970     0.913042006595     2.344147036266     1.007825032230
         H            3.774778842030    -0.097114993405    -0.898601963734     1.007825032230
         H            3.155086842030     1.391350006595    -1.630525963734     1.007825032230
         H           -4.044476157970    -0.643995993405     1.199107036266     1.007825032230
         H            3.901329842030     1.435316006595    -0.029627963734     1.007825032230

  Running in c1 symmetry.

  Rotational constants: A =      0.08242  B =      0.02500  C =      0.01941 [cm^-1]
  Rotational constants: A =   2470.95010  B =    749.47038  C =    582.00468 [MHz]
  Nuclear repulsion =  587.446780099076932

  Charge       = 0
  Multiplicity = 1
  Electrons    = 80
  Nalpha       = 40
  Nbeta        = 40

  ==> Algorithm <==

  SCF Algorithm Type is DF.
  DIIS enabled.
  MOM disabled.
  Fractional occupation disabled.
  Guess Type is SAD.
  Energy threshold   = 1.00e-06
  Density threshold  = 1.00e-06
  Integral threshold = 1.00e-12

  ==> Primary Basis <==

  Basis Set: 6-311+G*
    Blend: 6-311+G*
    Number of shells: 143
    Number of basis functions: 275
    Number of Cartesian functions: 286
    Spherical Harmonics?: true
    Max angular momentum: 2

  ==> DFT Potential <==

   => LibXC <=

    Version 5.1.5
    S. Lehtola, C. Steigemann, M. J. Oliveira, and M. A. Marques, SoftwareX 7, 1 (2018) (10.1016/j.softx.2017.11.002)

   => Composite Functional: WB97X-D <= 

    wB97X-D Hyb-GGA Exchange-Correlation Functional

    J.-D. Chai and M. Head-Gordon, Phys. Chem. Chem. Phys. 10, 6615 (2008) (10.1039/B810189B)

    Deriv               =              1
    GGA                 =           TRUE
    Meta                =          FALSE

    Exchange Hybrid     =           TRUE
    MP2 Hybrid          =          FALSE

   => Exchange-Correlation Functionals <=

    1.0000   wB97X-D range-separated functional

   => Exact (HF) Exchange <=

    0.7780            HF,LR [omega = 0.2000]
    0.2220               HF 

   => LibXC Density Thresholds  <==

    XC_HYB_GGA_XC_WB97X_D:  1.00E-14 

   => Molecular Quadrature <=

    Radial Scheme          =       TREUTLER
    Pruning Scheme         =           NONE
    Nuclear Scheme         =       TREUTLER

    BS radius alpha        =              1
    Pruning alpha          =              1
    Radial Points          =             75
    Spherical Points       =            302
    Total Points           =         462055
    Total Blocks           =           3385
    Max Points             =            256
    Max Functions          =            251
    Weights Tolerance      =       1.00E-15

   => Loading Basis Set <=

    Name: (6-311+G* AUX)
    Role: JKFIT
    Keyword: DF_BASIS_SCF
    atoms 1, 3-9, 12   entry C          line   200 file /home/bdw2292/miniconda3/envs/newamoebamdpoltype/share/psi4/basis/heavy-aug-cc-pvtz-jkfit.gbs 
    atoms 2            entry N          line   262 file /home/bdw2292/miniconda3/envs/newamoebamdpoltype/share/psi4/basis/heavy-aug-cc-pvtz-jkfit.gbs 
    atoms 10-11, 14-22 entry H          line   116 file /home/bdw2292/miniconda3/envs/newamoebamdpoltype/share/psi4/basis/heavy-aug-cc-pvtz-jkfit.gbs 
    atoms 13           entry O          line   324 file /home/bdw2292/miniconda3/envs/newamoebamdpoltype/share/psi4/basis/heavy-aug-cc-pvtz-jkfit.gbs 

  ==> Integral Setup <==

  DFHelper Memory: AOs need 2.312 GiB; user supplied 3.253 GiB. Using in-core AOs.

  ==> MemDFJK: Density-Fitted J/K Matrices <==

    J tasked:                   Yes
    K tasked:                   Yes
    wK tasked:                  Yes
    Omega:                2.000E-01
    OpenMP threads:               2
    Memory [MiB]:              3331
    Algorithm:                 Core
    Schwarz Cutoff:           1E-12
    Mask sparsity (%):       8.5263
    Fitting Condition:        1E-10

   => Auxiliary Basis Set <=

  Basis Set: (6-311+G* AUX)
    Blend: HEAVY-AUG-CC-PVTZ-JKFIT
    Number of shells: 440
    Number of basis functions: 1474
    Number of Cartesian functions: 1826
    Spherical Harmonics?: true
    Max angular momentum: 4

  Cached 100.0% of DFT collocation blocks in 2.451 [GiB].

  Minimum eigenvalue in the overlap matrix is 1.6160346120E-06.
  Reciprocal condition number of the overlap matrix is 1.1584099101E-07.
    Using symmetric orthogonalization.

  ==> Pre-Iterations <==

  SCF Guess: Superposition of Atomic Densities via on-the-fly atomic UHF (no occupation information).

   -------------------------
    Irrep   Nso     Nmo    
   -------------------------
     A        275     275 
   -------------------------
    Total     275     275
   -------------------------

  ==> Iterations <==

                           Total Energy        Delta E     RMS |[F,P]|

   @DF-RKS iter SAD:  -478.84062230645958   -4.78841e+02   0.00000e+00 
   @DF-RKS iter   1:  -478.98706088647026   -1.46439e-01   3.76427e-03 DIIS
   @DF-RKS iter   2:  -479.17834518593241   -1.91284e-01   3.27218e-03 DIIS
   @DF-RKS iter   3:  -479.49267183540610   -3.14327e-01   7.96319e-04 DIIS
   @DF-RKS iter   4:  -479.50922765175375   -1.65558e-02   2.02869e-04 DIIS
   @DF-RKS iter   5:  -479.51049486461574   -1.26721e-03   5.08208e-05 DIIS
   @DF-RKS iter   6:  -479.51057928874945   -8.44241e-05   1.90627e-05 DIIS
   @DF-RKS iter   7:  -479.51059147922490   -1.21905e-05   4.09677e-06 DIIS
   @DF-RKS iter   8:  -479.51059233628968   -8.57065e-07   2.01774e-06 DIIS
   @DF-RKS iter   9:  -479.51059255259770   -2.16308e-07   4.38665e-07 DIIS
  Energy and wave function converged.


  ==> Post-Iterations <==

   Electrons on quadrature grid:
      Ntotal   =   79.9999067568 ; deviation = -9.324e-05 

    Orbital Energies [Eh]
    ---------------------

    Doubly Occupied:                                                      

       1A    -19.216866     2A    -14.488577     3A    -10.402885  
       4A    -10.340394     5A    -10.331278     6A    -10.294800  
       7A    -10.291654     8A    -10.290405     9A    -10.286177  
      10A    -10.283920    11A    -10.279069    12A     -1.141073  
      13A     -1.055221    14A     -0.956200    15A     -0.870131  
      16A     -0.852106    17A     -0.836274    18A     -0.813755  
      19A     -0.726800    20A     -0.700880    21A     -0.655282  
      22A     -0.611369    23A     -0.588136    24A     -0.576346  
      25A     -0.574795    26A     -0.544440    27A     -0.531679  
      28A     -0.525650    29A     -0.507033    30A     -0.499857  
      31A     -0.495483    32A     -0.481608    33A     -0.473279  
      34A     -0.449050    35A     -0.444528    36A     -0.429193  
      37A     -0.380027    38A     -0.339648    39A     -0.329911  
      40A     -0.299285  

    Virtual:                                                              

      41A      0.044392    42A      0.053735    43A      0.057401  
      44A      0.066728    45A      0.076152    46A      0.087350  
      47A      0.088894    48A      0.090374    49A      0.096879  
      50A      0.101360    51A      0.115040    52A      0.119882  
      53A      0.122315    54A      0.130110    55A      0.131670  
      56A      0.146261    57A      0.148606    58A      0.150869  
      59A      0.157342    60A      0.159960    61A      0.178815  
      62A      0.185438    63A      0.191679    64A      0.199422  
      65A      0.202622    66A      0.209987    67A      0.213348  
      68A      0.215882    69A      0.218045    70A      0.226861  
      71A      0.234269    72A      0.241006    73A      0.243729  
      74A      0.250906    75A      0.256568    76A      0.261622  
      77A      0.268505    78A      0.271015    79A      0.273580  
      80A      0.276680    81A      0.278083    82A      0.281270  
      83A      0.288813    84A      0.293879    85A      0.299710  
      86A      0.305085    87A      0.311142    88A      0.318338  
      89A      0.325845    90A      0.327636    91A      0.333237  
      92A      0.337975    93A      0.342391    94A      0.353424  
      95A      0.364846    96A      0.377666    97A      0.379590  
      98A      0.391882    99A      0.393551   100A      0.405998  
     101A      0.418535   102A      0.419371   103A      0.424917  
     104A      0.440908   105A      0.466094   106A      0.481969  
     107A      0.489669   108A      0.526700   109A      0.545123  
     110A      0.550141   111A      0.559730   112A      0.575034  
     113A      0.586335   114A      0.600306   115A      0.615508  
     116A      0.619025   117A      0.625489   118A      0.631590  
     119A      0.636099   120A      0.647745   121A      0.662676  
     122A      0.676268   123A      0.685181   124A      0.690180  
     125A      0.706771   126A      0.724567   127A      0.730580  
     128A      0.738956   129A      0.742165   130A      0.743588  
     131A      0.754039   132A      0.772576   133A      0.778617  
     134A      0.783379   135A      0.798347   136A      0.812447  
     137A      0.813462   138A      0.824500   139A      0.835629  
     140A      0.845196   141A      0.877084   142A      0.887473  
     143A      0.900130   144A      0.925476   145A      0.934295  
     146A      0.954539   147A      0.960728   148A      0.973664  
     149A      0.974861   150A      0.987085   151A      1.002239  
     152A      1.009451   153A      1.061309   154A      1.097564  
     155A      1.105512   156A      1.116775   157A      1.128658  
     158A      1.172630   159A      1.185023   160A      1.207936  
     161A      1.225581   162A      1.232040   163A      1.275952  
     164A      1.288384   165A      1.304544   166A      1.314890  
     167A      1.327772   168A      1.341525   169A      1.383936  
     170A      1.392280   171A      1.425313   172A      1.463963  
     173A      1.519434   174A      1.579978   175A      1.599924  
     176A      1.609044   177A      1.625918   178A      1.634581  
     179A      1.654446   180A      1.663008   181A      1.682271  
     182A      1.689307   183A      1.715151   184A      1.748935  
     185A      1.803269   186A      1.814169   187A      1.830385  
     188A      1.843637   189A      1.856633   190A      1.868536  
     191A      1.875349   192A      1.884243   193A      1.906580  
     194A      1.951165   195A      1.985276   196A      2.022229  
     197A      2.023269   198A      2.035554   199A      2.062414  
     200A      2.098133   201A      2.116781   202A      2.141737  
     203A      2.252948   204A      2.305206   205A      2.324682  
     206A      2.358044   207A      2.381510   208A      2.397152  
     209A      2.423606   210A      2.470606   211A      2.490576  
     212A      2.519234   213A      2.537151   214A      2.571530  
     215A      2.588414   216A      2.626046   217A      2.638760  
     218A      2.650853   219A      2.666951   220A      2.698576  
     221A      2.768681   222A      2.796479   223A      2.840159  
     224A      2.866792   225A      2.893020   226A      2.917115  
     227A      2.923376   228A      2.960687   229A      2.994595  
     230A      3.011482   231A      3.026312   232A      3.047252  
     233A      3.078037   234A      3.169993   235A      3.178226  
     236A      3.218858   237A      3.253013   238A      3.295526  
     239A      3.326611   240A      3.383018   241A      3.406701  
     242A      3.416652   243A      3.428336   244A      3.433844  
     245A      3.447781   246A      3.490427   247A      3.532597  
     248A      3.587509   249A      3.635159   250A      3.702600  
     251A      3.753629   252A      3.758900   253A      3.881747  
     254A      3.941693   255A      4.008593   256A      4.134103  
     257A      4.144728   258A      4.169440   259A      4.872769  
     260A      4.897610   261A      5.084723   262A      5.186505  
     263A      5.363028   264A      5.882527   265A     23.484557  
     266A     23.691456   267A     23.746817   268A     23.946039  
     269A     23.975240   270A     24.007497   271A     24.148044  
     272A     24.187222   273A     24.285361   274A     35.681121  
     275A     50.141536  

    Final Occupation by Irrep:
              A 
    DOCC [    40 ]

  @DF-RKS Final Energy:  -479.51059255259770

   => Energetics <=

    Nuclear Repulsion Energy =            587.4467800990769319
    One-Electron Energy =               -1813.5573820532727041
    Two-Electron Energy =                 793.7055454183704342
    DFT Exchange-Correlation Energy =     -47.0931995170030717
    Empirical Dispersion Energy =          -0.0123364997692986
    VV10 Nonlocal Energy =                  0.0000000000000000
    Total Energy =                       -479.5105925525977000

Computation Completed


Properties will be evaluated at   0.000000,   0.000000,   0.000000 [a0]

Properties computed using the SCF density matrix

  Nuclear Dipole Moment: [e a0]
     X:     3.4631      Y:    -1.7263      Z:    -6.1878

  Electronic Dipole Moment: [e a0]
     X:    -3.2732      Y:     1.1376      Z:     4.7521

  Dipole Moment: [e a0]
     X:     0.1899      Y:    -0.5887      Z:    -1.4357     Total:     1.5633

  Dipole Moment: [D]
     X:     0.4826      Y:    -1.4963      Z:    -3.6492     Total:     3.9735


*** tstop() called on node74.bme.utexas.edu at Wed Jun  8 13:09:42 2022
Module time:
	user time   =     136.93 seconds =       2.28 minutes
	system time =      16.03 seconds =       0.27 minutes
	total time  =         79 seconds =       1.32 minutes
Total time:
	user time   =     136.93 seconds =       2.28 minutes
	system time =      16.03 seconds =       0.27 minutes
	total time  =         79 seconds =       1.32 minutes


Properties will be evaluated at   0.000000,   0.000000,   0.000000 [a0]
OEProp: No title given, name of density matrix used for the following properties is 'SCF density'


  Wiberg Bond Indices using Orthogonal Lowdin Orbitals:

  Irrep: 1 Size: 22 x 22

                 1                   2                   3                   4                   5

    1     0.00000000000000     1.33048870905191     0.09612780650316     0.02754107021865     0.10577232103498
    2     1.33048870905191     0.00000000000000     1.13347397147834     0.12012966941068     1.15240951304961
    3     0.09612780650316     1.13347397147834     0.00000000000000     1.39579767665011     0.10308874037205
    4     0.02754107021865     0.12012966941068     1.39579767665011     0.00000000000000     0.07099671883441
    5     0.10577232103498     1.15240951304961     0.10308874037205     0.07099671883441     0.00000000000000
    6     0.04408129954665     0.11148369826172     1.38853355878003     0.12651938419011     0.01775248438824
    7     0.00359639692517     0.01532537717591     0.13196986633648     1.52008260672986     0.00783818609377
    8     0.00798574187512     0.01378885941877     0.13144582267474     0.13823091692079     0.00295048573113
    9     0.00452297030351     0.01551799746644     0.13538948671624     0.14303663962413     0.00321635448268
   10     0.00098128502064     0.01455607268022     0.05299557491190     0.80909086000798     0.02435713072875
   11     0.01068772634241     0.01183934817677     0.05268725409141     0.00929894502844     0.00086095518873
   12     1.09778638271325     0.11222222010595     0.01826627701043     0.00345957253812     0.06682038636145
   13     2.17287761202856     0.22529925266916     0.04287304855634     0.00825270452744     0.02596475489921
   14     0.01076451809407     0.04563947412911     0.01434411160161     0.01664439252275     0.87833052809587
   15     0.01796291087217     0.04309019060481     0.00953957893433     0.00333453370647     0.87431301595755
   16     0.01245902653424     0.04754520516519     0.01084736582602     0.01366940349634     0.88088978378135
   17     0.00038749340464     0.00086872506327     0.01071710780617     0.06081364671057     0.00032007432929
   18     0.00023874281446     0.00082632682683     0.01094991140207     0.00256659333985     0.00045989567030
   19     0.04628603515545     0.01132635335929     0.00064759289065     0.00046006316576     0.01275526770088
   20     0.04627892635292     0.01195088816213     0.00072212513024     0.00045010603291     0.01281205886033
   21     0.00007974163370     0.00026235026736     0.00267789878564     0.01116648222238     0.00015667267718
   22     0.05081630999915     0.00575281593523     0.00104184597518     0.00037885231588     0.00460891587529

                 6                   7                   8                   9                  10

    1     0.04408129954665     0.00359639692517     0.00798574187512     0.00452297030351     0.00098128502064
    2     0.11148369826172     0.01532537717591     0.01378885941877     0.01551799746644     0.01455607268022
    3     1.38853355878003     0.13196986633648     0.13144582267474     0.13538948671624     0.05299557491190
    4     0.12651938419011     1.52008260672986     0.13823091692079     0.14303663962413     0.80909086000798
    5     0.01775248438824     0.00783818609377     0.00295048573113     0.00321635448268     0.02435713072875
    6     0.00000000000000     0.14414410688725     0.13744455312146     1.52790834141798     0.00945527054312
    7     0.14414410688725     0.00000000000000     1.52425794139626     0.13996479083688     0.05626494051898
    8     0.13744455312146     1.52425794139626     0.00000000000000     1.51403707814849     0.01029483344860
    9     1.52790834141798     0.13996479083688     1.51403707814849     0.00000000000000     0.00239706267605
   10     0.00945527054312     0.05626494051898     0.01029483344860     0.00239706267605     0.00000000000000
   11     0.78581931727166     0.00230879971068     0.00998293965854     0.05617738509888     0.00046803473733
   12     0.00547738062090     0.00073825480197     0.00052131361054     0.00065717517995     0.00038726859836
   13     0.09642480003383     0.00155405329494     0.00632455717567     0.00801985854350     0.00025970746541
   14     0.00106409093574     0.00133730491378     0.00075405408156     0.00047152750150     0.00294002003720
   15     0.00109515958980     0.00036124348004     0.00021040793314     0.00033865644015     0.00060105781953
   16     0.00089265774203     0.00097284983416     0.00073435731607     0.00029155197418     0.00305218505623
   17     0.00256383289326     0.83352173480981     0.05860596686971     0.01153917775556     0.00584857730315
   18     0.06022568411893     0.01156645177036     0.05883228572965     0.83324039867242     0.00021221892232
   19     0.00046265909296     0.00008207860108     0.00021945165272     0.00008073689411     0.00009819167747
   20     0.00055137474144     0.00008109950056     0.00018190717897     0.00008268252390     0.00010853005696
   21     0.01091963762788     0.05983912094310     0.83547219890528     0.05946996016544     0.00020040002967
   22     0.00044433661840     0.00007917127946     0.00002929041051     0.00006634457863     0.00007320646152

                11                  12                  13                  14                  15

    1     0.01068772634241     1.09778638271325     2.17287761202856     0.01076451809407     0.01796291087217
    2     0.01183934817677     0.11222222010595     0.22529925266916     0.04563947412911     0.04309019060481
    3     0.05268725409141     0.01826627701043     0.04287304855634     0.01434411160161     0.00953957893433
    4     0.00929894502844     0.00345957253812     0.00825270452744     0.01664439252275     0.00333453370647
    5     0.00086095518873     0.06682038636145     0.02596475489921     0.87833052809587     0.87431301595755
    6     0.78581931727166     0.00547738062090     0.09642480003383     0.00106409093574     0.00109515958980
    7     0.00230879971068     0.00073825480197     0.00155405329494     0.00133730491378     0.00036124348004
    8     0.00998293965854     0.00052131361054     0.00632455717567     0.00075405408156     0.00021040793314
    9     0.05617738509888     0.00065717517995     0.00801985854350     0.00047152750150     0.00033865644015
   10     0.00046803473733     0.00038726859836     0.00025970746541     0.00294002003720     0.00060105781953
   11     0.00000000000000     0.00097636376478     0.03612302242480     0.00005086337109     0.00007893096696
   12     0.00097636376478     0.00000000000000     0.16210879160763     0.00227819857713     0.02614608403331
   13     0.03612302242480     0.16210879160763     0.00000000000000     0.00324845587927     0.00095588230203
   14     0.00005086337109     0.00227819857713     0.00324845587927     0.00000000000000     0.01018870715673
   15     0.00007893096696     0.02614608403331     0.00095588230203     0.01018870715673     0.00000000000000
   16     0.00005182935019     0.00282229989460     0.00399644820133     0.00658951596341     0.00939517709856
   17     0.00018424465475     0.00007724865572     0.00005595429049     0.00002667724018     0.00002475718336
   18     0.00568762927385     0.00004020680679     0.00041383775994     0.00004174163188     0.00001549480650
   19     0.00005723391800     0.88478316079946     0.01455466707981     0.00014576927046     0.00315040230037
   20     0.00003365402888     0.88425146555016     0.01453328740486     0.00007171695431     0.00340482872251
   21     0.00022987887636     0.00004428528542     0.00017123070159     0.00003130275202     0.00000727149217
   22     0.00019035718953     0.88639708961830     0.02200846174650     0.00006168599004     0.00081512948562

                16                  17                  18                  19                  20

    1     0.01245902653424     0.00038749340464     0.00023874281446     0.04628603515545     0.04627892635292
    2     0.04754520516519     0.00086872506327     0.00082632682683     0.01132635335929     0.01195088816213
    3     0.01084736582602     0.01071710780617     0.01094991140207     0.00064759289065     0.00072212513024
    4     0.01366940349634     0.06081364671057     0.00256659333985     0.00046006316576     0.00045010603291
    5     0.88088978378135     0.00032007432929     0.00045989567030     0.01275526770088     0.01281205886033
    6     0.00089265774203     0.00256383289326     0.06022568411893     0.00046265909296     0.00055137474144
    7     0.00097284983416     0.83352173480981     0.01156645177036     0.00008207860108     0.00008109950056
    8     0.00073435731607     0.05860596686971     0.05883228572965     0.00021945165272     0.00018190717897
    9     0.00029155197418     0.01153917775556     0.83324039867242     0.00008073689411     0.00008268252390
   10     0.00305218505623     0.00584857730315     0.00021221892232     0.00009819167747     0.00010853005696
   11     0.00005182935019     0.00018424465475     0.00568762927385     0.00005723391800     0.00003365402888
   12     0.00282229989460     0.00007724865572     0.00004020680679     0.88478316079946     0.88425146555016
   13     0.00399644820133     0.00005595429049     0.00041383775994     0.01455466707981     0.01453328740486
   14     0.00658951596341     0.00002667724018     0.00004174163188     0.00014576927046     0.00007171695431
   15     0.00939517709856     0.00002475718336     0.00001549480650     0.00315040230037     0.00340482872251
   16     0.00000000000000     0.00004344025851     0.00002101616771     0.00003408745203     0.00012564033970
   17     0.00004344025851     0.00000000000000     0.00029946158623     0.00000292159184     0.00000272035149
   18     0.00002101616771     0.00029946158623     0.00000000000000     0.00000232452071     0.00000289134870
   19     0.00003408745203     0.00000292159184     0.00000232452071     0.00000000000000     0.00743183189465
   20     0.00012564033970     0.00000272035149     0.00000289134870     0.00743183189465     0.00000000000000
   21     0.00003525020633     0.00510020733085     0.00508097587233     0.00000249762120     0.00000078367275
   22     0.00002232914402     0.00001414082005     0.00000525349443     0.01032288470502     0.01030399947569

                21                  22

    1     0.00007974163370     0.05081630999915
    2     0.00026235026736     0.00575281593523
    3     0.00267789878564     0.00104184597518
    4     0.01116648222238     0.00037885231588
    5     0.00015667267718     0.00460891587529
    6     0.01091963762788     0.00044433661840
    7     0.05983912094310     0.00007917127946
    8     0.83547219890528     0.00002929041051
    9     0.05946996016544     0.00006634457863
   10     0.00020040002967     0.00007320646152
   11     0.00022987887636     0.00019035718953
   12     0.00004428528542     0.88639708961830
   13     0.00017123070159     0.02200846174650
   14     0.00003130275202     0.00006168599004
   15     0.00000727149217     0.00081512948562
   16     0.00003525020633     0.00002232914402
   17     0.00510020733085     0.00001414082005
   18     0.00508097587233     0.00000525349443
   19     0.00000249762120     0.01032288470502
   20     0.00000078367275     0.01030399947569
   21     0.00000000000000     0.00000085507054
   22     0.00000085507054     0.00000000000000



  Atomic Valences: 

 #  #
 Irrep: 1
      1:    5.087723026424819
      2:    4.423797018458697
      3:    4.744136622433140
      4:    4.481920838193623
      5:    4.246674244113046
      6:    4.473263628423378
      7:    4.455886375840496
      8:    4.452304963257709
      9:    4.456426177000610
     10:    0.994642428701381
     11:    0.983794713124031
     12:    4.156261426134190
     13:    2.846020388592319
     14:    0.995024656699692
     15:    1.005029420886101
     16:    0.994491420802204
     17:    0.991018110908908
     18:    0.990729342536263
     19:    0.992906211343913
     20:    0.993382518284060
     21:    0.990949002139191
     22:    0.993433276188961


    Psi4 stopped on: Wednesday, 08 June 2022 01:09PM
    Psi4 wall time for execution: 0:01:19.14

*** Psi4 exiting successfully. Buy a developer a beer!
