
    -----------------------------------------------------------------------
          Psi4: An Open-Source Ab Initio Electronic Structure Package
                               Psi4 1.5 release

                         Git: Rev {HEAD} e9f4d6d 


    D. G. A. Smith, L. A. Burns, A. C. Simmonett, R. M. Parrish,
    M. C. Schieber, R. Galvelis, P. Kraus, H. Kruse, R. Di Remigio,
    A. Alenaizan, A. M. James, S. Lehtola, J. P. Misiewicz, M. Scheurer,
    R. A. Shaw, J. B. Schriber, Y. Xie, Z. L. Glick, D. A. Sirianni,
    J. S. O'Brien, J. M. Waldrop, A. Kumar, E. G. Hohenstein,
    B. P. Pritchard, B. R. Brooks, H. F. Schaefer III, A. Yu. Sokolov,
    K. Patkowski, A. E. DePrince III, U. Bozkaya, R. A. King,
    F. A. Evangelista, J. M. Turney, T. D. Crawford, C. D. Sherrill,
    J. Chem. Phys. 152(18) 184108 (2020). https://doi.org/10.1063/5.0006002

                            Additional Code Authors
    E. T. Seidl, C. L. Janssen, E. F. Valeev, M. L. Leininger,
    J. F. Gonthier, R. M. Richard, H. R. McAlexander, M. Saitow, X. Wang,
    P. Verma, M. H. Lechner, and A. Jiang

             Previous Authors, Complete List of Code Contributors,
                       and Citations for Specific Modules
    https://github.com/psi4/psi4/blob/master/codemeta.json
    https://github.com/psi4/psi4/graphs/contributors
    http://psicode.org/psi4manual/master/introduction.html#citing-psifour

    -----------------------------------------------------------------------


    Psi4 started on: Wednesday, 08 June 2022 12:02PM

    Process ID: 1101700
    Host:       node74.bme.utexas.edu
    PSIDATADIR: /home/bdw2292/miniconda3/envs/newamoebamdpoltype/share/psi4
    Memory:     500.0 MiB
    Threads:    1
    
  ==> Input File <==

--------------------------------------------------------------------------
molecule { 
0 1
 C    1.549848   -0.628706   -1.378024
 N    0.938722    0.331241   -0.538528
 C   -0.389316    0.098130   -0.028948
 C   -0.643758    0.196396    1.363952
 C    1.542983    1.660143   -0.276236
 C   -1.478332   -0.146302   -0.906347
 C   -1.946481    0.027076    1.854824
 C   -3.012114   -0.228684    0.982277
 C   -2.772657   -0.313123   -0.395354
 H    0.170923    0.400307    2.061950
 H   -1.309614   -0.213423   -1.982402
 C    3.002979   -0.379564   -1.794463
 O    0.963071   -1.644665   -1.745871
 H    1.980307    2.079191   -1.183179
 H    0.790377    2.368050    0.075179
 H    2.316891    1.578376    0.488213
 H   -2.125993    0.100018    2.929018
 H   -3.598770   -0.506431   -1.081826
 H    3.053512    0.370737   -2.583640
 H    3.617189   -0.064035   -0.950891
 H   -4.023214   -0.359702    1.372710
 H    3.430126   -1.303732   -2.186147
}
set optking { 
  frozen_dihedral = ("
    1 2 3 4
    12 1 2 3
  ")
}
set {
  geom_maxiter 400
  g_convergence GAU_LOOSE
  dynamic_level 1
}
memory 8.166666666666666GB
set_num_threads(2)
psi4_io.set_default_path("/scratch/bdw2292/Psi4-3_24_Index_0-farH_in17")
for _ in range(1):
  try:
    set opt_coordinates both
    optimize('wb97x-d/6-311G')
    break
  except OptimizationConvergenceError:
    break
  else:
    try:
      set opt_coordinates cartesian
      optimize('wb97x-d/6-311G')
      break
    except OptimizationConvergenceError:
      pass
clean()
--------------------------------------------------------------------------

  Memory set to   7.606 GiB by Python driver.
  Threads set to 2 by Python driver.

Scratch directory: /scratch/bdw2292/Psi4-3_24_Index_0-farH_in17/

Scratch directory: /scratch/bdw2292/Psi4-3_24_Index_0-farH_in17/
gradient() will perform analytic gradient computation.

*** tstart() called on node74.bme.utexas.edu
*** at Wed Jun  8 12:02:20 2022

   => Loading Basis Set <=

    Name: 6-311G
    Role: ORBITAL
    Keyword: BASIS
    atoms 1, 3-9, 12   entry C          line    92 file /home/bdw2292/miniconda3/envs/newamoebamdpoltype/share/psi4/basis/6-311g.gbs 
    atoms 2            entry N          line   109 file /home/bdw2292/miniconda3/envs/newamoebamdpoltype/share/psi4/basis/6-311g.gbs 
    atoms 10-11, 14-22 entry H          line    21 file /home/bdw2292/miniconda3/envs/newamoebamdpoltype/share/psi4/basis/6-311g.gbs 
    atoms 13           entry O          line   126 file /home/bdw2292/miniconda3/envs/newamoebamdpoltype/share/psi4/basis/6-311g.gbs 

   => WB97X-D: Empirical Dispersion <=

    Chai and Head-Gordon Dispersion Correction
    Chai, J.-D.; Head-Gordon, M. (2010), J. Chem. Phys., 132: 6615-6620

        s6 =       1.000000


         ---------------------------------------------------------
                                   SCF
               by Justin Turney, Rob Parrish, Andy Simmonett
                          and Daniel G. A. Smith
                              RKS Reference
                        2 Threads,   7788 MiB Core
         ---------------------------------------------------------

  ==> Geometry <==

    Molecular point group: c1
    Full point group: C1

    Geometry (in Angstrom), charge = 0, multiplicity = 1:

       Center              X                  Y                   Z               Mass       
    ------------   -----------------  -----------------  -----------------  -----------------
         C            1.663056268471    -0.536413642955    -1.073023298743    12.000000000000
         N            1.051930268471     0.423533357045    -0.233527298743    14.003074004430
         C           -0.276107731529     0.190422357045     0.276052701257    12.000000000000
         C           -0.530549731529     0.288688357045     1.668952701257    12.000000000000
         C            1.656191268471     1.752435357045     0.028764701257    12.000000000000
         C           -1.365123731529    -0.054009642955    -0.601346298743    12.000000000000
         C           -1.833272731529     0.119368357045     2.159824701257    12.000000000000
         C           -2.898905731529    -0.136391642955     1.287277701257    12.000000000000
         C           -2.659448731529    -0.220830642955    -0.090353298743    12.000000000000
         H            0.284131268471     0.492599357045     2.366950701257     1.007825032230
         H           -1.196405731529    -0.121130642955    -1.677401298743     1.007825032230
         C            3.116187268471    -0.287271642955    -1.489462298743    12.000000000000
         O            1.076279268471    -1.552372642955    -1.440870298743    15.994914619570
         H            2.093515268471     2.171483357045    -0.878178298743     1.007825032230
         H            0.903585268471     2.460342357045     0.380179701257     1.007825032230
         H            2.430099268471     1.670668357045     0.793213701257     1.007825032230
         H           -2.012784731529     0.192310357045     3.234018701257     1.007825032230
         H           -3.485561731529    -0.414138642955    -0.776825298743     1.007825032230
         H            3.166720268471     0.463029357045    -2.278639298743     1.007825032230
         H            3.730397268471     0.028257357045    -0.645890298743     1.007825032230
         H           -3.910005731529    -0.267409642955     1.677710701257     1.007825032230
         H            3.543334268471    -1.211439642955    -1.881146298743     1.007825032230

  Running in c1 symmetry.

  Rotational constants: A =      0.07933  B =      0.02375  C =      0.02044 [cm^-1]
  Rotational constants: A =   2378.27229  B =    712.01000  C =    612.64477 [MHz]
  Nuclear repulsion =  582.096828795621036

  Charge       = 0
  Multiplicity = 1
  Electrons    = 80
  Nalpha       = 40
  Nbeta        = 40

  ==> Algorithm <==

  SCF Algorithm Type is DF.
  DIIS enabled.
  MOM disabled.
  Fractional occupation disabled.
  Guess Type is SAD.
  Energy threshold   = 1.00e-08
  Density threshold  = 1.00e-08
  Integral threshold = 1.00e-12

  ==> Primary Basis <==

  Basis Set: 6-311G
    Blend: 6-311G
    Number of shells: 110
    Number of basis functions: 176
    Number of Cartesian functions: 176
    Spherical Harmonics?: true
    Max angular momentum: 1

  ==> DFT Potential <==

   => LibXC <=

    Version 5.1.5
    S. Lehtola, C. Steigemann, M. J. Oliveira, and M. A. Marques, SoftwareX 7, 1 (2018) (10.1016/j.softx.2017.11.002)

   => Composite Functional: WB97X-D <= 

    wB97X-D Hyb-GGA Exchange-Correlation Functional

    J.-D. Chai and M. Head-Gordon, Phys. Chem. Chem. Phys. 10, 6615 (2008) (10.1039/B810189B)

    Deriv               =              1
    GGA                 =           TRUE
    Meta                =          FALSE

    Exchange Hybrid     =           TRUE
    MP2 Hybrid          =          FALSE

   => Exchange-Correlation Functionals <=

    1.0000   wB97X-D range-separated functional

   => Exact (HF) Exchange <=

    0.7780            HF,LR [omega = 0.2000]
    0.2220               HF 

   => LibXC Density Thresholds  <==

    XC_HYB_GGA_XC_WB97X_D:  1.00E-14 

   => Molecular Quadrature <=

    Radial Scheme          =       TREUTLER
    Pruning Scheme         =           NONE
    Nuclear Scheme         =       TREUTLER

    BS radius alpha        =              1
    Pruning alpha          =              1
    Radial Points          =             75
    Spherical Points       =            302
    Total Points           =         460894
    Total Blocks           =           3406
    Max Points             =            256
    Max Functions          =            150
    Weights Tolerance      =       1.00E-15

   => Loading Basis Set <=

    Name: (6-311G AUX)
    Role: JKFIT
    Keyword: DF_BASIS_SCF
    atoms 1, 3-9, 12   entry C          line   125 file /home/bdw2292/miniconda3/envs/newamoebamdpoltype/share/psi4/basis/cc-pvtz-jkfit.gbs 
    atoms 2            entry N          line   177 file /home/bdw2292/miniconda3/envs/newamoebamdpoltype/share/psi4/basis/cc-pvtz-jkfit.gbs 
    atoms 10-11, 14-22 entry H          line    51 file /home/bdw2292/miniconda3/envs/newamoebamdpoltype/share/psi4/basis/cc-pvtz-jkfit.gbs 
    atoms 13           entry O          line   229 file /home/bdw2292/miniconda3/envs/newamoebamdpoltype/share/psi4/basis/cc-pvtz-jkfit.gbs 

  ==> Integral Setup <==

  DFHelper Memory: AOs need 0.746 GiB; user supplied 4.282 GiB. Using in-core AOs.

  ==> MemDFJK: Density-Fitted J/K Matrices <==

    J tasked:                   Yes
    K tasked:                   Yes
    wK tasked:                  Yes
    Omega:                2.000E-01
    OpenMP threads:               2
    Memory [MiB]:              4384
    Algorithm:                 Core
    Schwarz Cutoff:           1E-12
    Mask sparsity (%):      12.2482
    Fitting Condition:        1E-10

   => Auxiliary Basis Set <=

  Basis Set: (6-311G AUX)
    Blend: CC-PVTZ-JKFIT
    Number of shells: 385
    Number of basis functions: 1199
    Number of Cartesian functions: 1441
    Spherical Harmonics?: true
    Max angular momentum: 4

  Cached 100.0% of DFT collocation blocks in 1.423 [GiB].

  Minimum eigenvalue in the overlap matrix is 2.7282190255E-04.
  Reciprocal condition number of the overlap matrix is 4.1214715130E-05.
    Using symmetric orthogonalization.

  ==> Pre-Iterations <==

  SCF Guess: Superposition of Atomic Densities via on-the-fly atomic UHF (no occupation information).

   -------------------------
    Irrep   Nso     Nmo    
   -------------------------
     A        176     176 
   -------------------------
    Total     176     176
   -------------------------

  ==> Iterations <==

                           Total Energy        Delta E     RMS |[F,P]|

   @DF-RKS iter SAD:  -478.43053997171648   -4.78431e+02   0.00000e+00 
   @DF-RKS iter   1:  -478.97238934178296   -5.41849e-01   5.23951e-03 DIIS
   @DF-RKS iter   2:  -479.04580186302155   -7.34125e-02   5.25789e-03 DIIS
   @DF-RKS iter   3:  -479.35067080216197   -3.04869e-01   1.45210e-03 DIIS
   @DF-RKS iter   4:  -479.37557173608201   -2.49009e-02   2.39292e-04 DIIS
   @DF-RKS iter   5:  -479.37628048265697   -7.08747e-04   9.70785e-05 DIIS
   @DF-RKS iter   6:  -479.37640682622322   -1.26344e-04   2.28923e-05 DIIS
   @DF-RKS iter   7:  -479.37641450501445   -7.67879e-06   7.13730e-06 DIIS
   @DF-RKS iter   8:  -479.37641554207698   -1.03706e-06   2.09359e-06 DIIS
   @DF-RKS iter   9:  -479.37641565493749   -1.12861e-07   1.02822e-06 DIIS
   @DF-RKS iter  10:  -479.37641568084382   -2.59063e-08   2.58863e-07 DIIS
   @DF-RKS iter  11:  -479.37641568343383   -2.59001e-09   1.05857e-07 DIIS
   @DF-RKS iter  12:  -479.37641568371771   -2.83876e-10   2.90236e-08 DIIS
   @DF-RKS iter  13:  -479.37641568376620   -4.84874e-11   8.11805e-09 DIIS
  Energy and wave function converged.


  ==> Post-Iterations <==

   Electrons on quadrature grid:
      Ntotal   =   80.0000287304 ; deviation = 2.873e-05 

    Orbital Energies [Eh]
    ---------------------

    Doubly Occupied:                                                      

       1A    -19.213429     2A    -14.474480     3A    -10.405220  
       4A    -10.342160     5A    -10.330963     6A    -10.300563  
       7A    -10.298001     8A    -10.296370     9A    -10.295756  
      10A    -10.295091    11A    -10.293985    12A     -1.154636  
      13A     -1.043713    14A     -0.955930    15A     -0.864258  
      16A     -0.852721    17A     -0.836746    18A     -0.806483  
      19A     -0.720250    20A     -0.705096    21A     -0.652527  
      22A     -0.604380    23A     -0.582004    24A     -0.571015  
      25A     -0.569436    26A     -0.537428    27A     -0.535568  
      28A     -0.518377    29A     -0.512620    30A     -0.498373  
      31A     -0.495179    32A     -0.482623    33A     -0.458895  
      34A     -0.450146    35A     -0.441976    36A     -0.432839  
      37A     -0.352156    38A     -0.339379    39A     -0.327739  
      40A     -0.304341  

    Virtual:                                                              

      41A      0.053595    42A      0.062096    43A      0.092925  
      44A      0.107562    45A      0.130174    46A      0.147399  
      47A      0.162017    48A      0.164570    49A      0.169949  
      50A      0.180871    51A      0.195541    52A      0.201760  
      53A      0.214879    54A      0.221174    55A      0.235838  
      56A      0.246076    57A      0.264262    58A      0.302000  
      59A      0.339349    60A      0.340053    61A      0.353357  
      62A      0.366562    63A      0.373733    64A      0.376302  
      65A      0.395229    66A      0.403421    67A      0.427338  
      68A      0.450090    69A      0.461045    70A      0.480365  
      71A      0.486248    72A      0.490090    73A      0.495872  
      74A      0.512664    75A      0.514825    76A      0.523161  
      77A      0.548214    78A      0.559909    79A      0.562482  
      80A      0.578280    81A      0.594118    82A      0.605030  
      83A      0.620693    84A      0.633357    85A      0.639157  
      86A      0.645273    87A      0.658632    88A      0.662169  
      89A      0.677700    90A      0.682334    91A      0.688586  
      92A      0.693416    93A      0.702094    94A      0.713342  
      95A      0.729158    96A      0.739948    97A      0.753906  
      98A      0.760510    99A      0.778735   100A      0.810716  
     101A      0.841290   102A      0.856592   103A      0.872447  
     104A      0.884674   105A      0.888254   106A      0.907024  
     107A      0.929399   108A      0.955701   109A      0.961454  
     110A      0.985334   111A      1.021959   112A      1.055193  
     113A      1.069489   114A      1.083974   115A      1.139792  
     116A      1.164372   117A      1.227236   118A      1.256842  
     119A      1.361531   120A      1.479294   121A      1.710072  
     122A      2.275180   123A      2.298167   124A      2.328460  
     125A      2.331133   126A      2.349710   127A      2.358373  
     128A      2.387214   129A      2.395917   130A      2.423648  
     131A      2.452749   132A      2.623970   133A      2.636045  
     134A      2.662889   135A      2.673307   136A      2.699030  
     137A      2.781057   138A      2.788678   139A      2.840248  
     140A      2.847251   141A      2.873880   142A      2.903922  
     143A      2.920461   144A      2.925037   145A      2.977274  
     146A      2.994818   147A      3.018215   148A      3.069417  
     149A      3.082277   150A      3.127038   151A      3.150216  
     152A      3.178461   153A      3.220601   154A      3.247220  
     155A      3.293489   156A      3.320283   157A      3.349506  
     158A      3.366803   159A      3.508510   160A      3.930030  
     161A      4.129948   162A      4.229039   163A      4.985358  
     164A      5.067227   165A      5.100906   166A     23.242691  
     167A     23.428605   168A     23.475605   169A     23.489814  
     170A     23.538785   171A     23.624719   172A     23.717010  
     173A     23.749357   174A     23.989933   175A     35.549810  
     176A     50.043312  

    Final Occupation by Irrep:
              A 
    DOCC [    40 ]

  @DF-RKS Final Energy:  -479.37641568376620

   => Energetics <=

    Nuclear Repulsion Energy =            582.0968287956210361
    One-Electron Energy =               -1802.7330829799527692
    Two-Electron Energy =                 788.2761726670722737
    DFT Exchange-Correlation Energy =     -47.0036464504983584
    Empirical Dispersion Energy =          -0.0126877160082750
    VV10 Nonlocal Energy =                  0.0000000000000000
    Total Energy =                       -479.3764156837661972

Computation Completed


Properties will be evaluated at   0.000000,   0.000000,   0.000000 [a0]

Properties computed using the SCF density matrix

  Nuclear Dipole Moment: [e a0]
     X:     5.2023      Y:     5.1142      Z:     0.2881

  Electronic Dipole Moment: [e a0]
     X:    -4.7085      Y:    -3.6737      Z:     0.1512

  Dipole Moment: [e a0]
     X:     0.4938      Y:     1.4405      Z:     0.4393     Total:     1.5849

  Dipole Moment: [D]
     X:     1.2551      Y:     3.6614      Z:     1.1167     Total:     4.0284


*** tstop() called on node74.bme.utexas.edu at Wed Jun  8 12:02:55 2022
Module time:
	user time   =      66.36 seconds =       1.11 minutes
	system time =       2.12 seconds =       0.04 minutes
	total time  =         35 seconds =       0.58 minutes
Total time:
	user time   =      66.36 seconds =       1.11 minutes
	system time =       2.12 seconds =       0.04 minutes
	total time  =         35 seconds =       0.58 minutes

*** tstart() called on node74.bme.utexas.edu
*** at Wed Jun  8 12:02:55 2022


         ------------------------------------------------------------
                                   SCF GRAD                          
                          Rob Parrish, Justin Turney,                
                       Andy Simmonett, and Alex Sokolov              
         ------------------------------------------------------------

  ==> Geometry <==

    Molecular point group: c1
    Full point group: C1

    Geometry (in Angstrom), charge = 0, multiplicity = 1:

       Center              X                  Y                   Z               Mass       
    ------------   -----------------  -----------------  -----------------  -----------------
         C            1.663056268471    -0.536413642955    -1.073023298743    12.000000000000
         N            1.051930268471     0.423533357045    -0.233527298743    14.003074004430
         C           -0.276107731529     0.190422357045     0.276052701257    12.000000000000
         C           -0.530549731529     0.288688357045     1.668952701257    12.000000000000
         C            1.656191268471     1.752435357045     0.028764701257    12.000000000000
         C           -1.365123731529    -0.054009642955    -0.601346298743    12.000000000000
         C           -1.833272731529     0.119368357045     2.159824701257    12.000000000000
         C           -2.898905731529    -0.136391642955     1.287277701257    12.000000000000
         C           -2.659448731529    -0.220830642955    -0.090353298743    12.000000000000
         H            0.284131268471     0.492599357045     2.366950701257     1.007825032230
         H           -1.196405731529    -0.121130642955    -1.677401298743     1.007825032230
         C            3.116187268471    -0.287271642955    -1.489462298743    12.000000000000
         O            1.076279268471    -1.552372642955    -1.440870298743    15.994914619570
         H            2.093515268471     2.171483357045    -0.878178298743     1.007825032230
         H            0.903585268471     2.460342357045     0.380179701257     1.007825032230
         H            2.430099268471     1.670668357045     0.793213701257     1.007825032230
         H           -2.012784731529     0.192310357045     3.234018701257     1.007825032230
         H           -3.485561731529    -0.414138642955    -0.776825298743     1.007825032230
         H            3.166720268471     0.463029357045    -2.278639298743     1.007825032230
         H            3.730397268471     0.028257357045    -0.645890298743     1.007825032230
         H           -3.910005731529    -0.267409642955     1.677710701257     1.007825032230
         H            3.543334268471    -1.211439642955    -1.881146298743     1.007825032230

  Nuclear repulsion =  582.096828795621036

  ==> Basis Set <==

  Basis Set: 6-311G
    Blend: 6-311G
    Number of shells: 110
    Number of basis functions: 176
    Number of Cartesian functions: 176
    Spherical Harmonics?: true
    Max angular momentum: 1

  ==> DFJKGrad: Density-Fitted SCF Gradients <==

    Gradient:                    1
    J tasked:                  Yes
    K tasked:                  Yes
    wK tasked:                 Yes
    Omega:               2.000E-01
    OpenMP threads:              2
    Integrals threads:           2
    Memory [MiB]:             5841
    Schwarz Cutoff:          1E-12
    Fitting Condition:       1E-10

   => Auxiliary Basis Set <=

  Basis Set: (6-311G AUX)
    Blend: CC-PVTZ-JKFIT
    Number of shells: 385
    Number of basis functions: 1199
    Number of Cartesian functions: 1441
    Spherical Harmonics?: true
    Max angular momentum: 4

  ==> DFT Potential <==

   => LibXC <=

    Version 5.1.5
    S. Lehtola, C. Steigemann, M. J. Oliveira, and M. A. Marques, SoftwareX 7, 1 (2018) (10.1016/j.softx.2017.11.002)

   => Composite Functional: WB97X-D <= 

    wB97X-D Hyb-GGA Exchange-Correlation Functional

    J.-D. Chai and M. Head-Gordon, Phys. Chem. Chem. Phys. 10, 6615 (2008) (10.1039/B810189B)

    Deriv               =              1
    GGA                 =           TRUE
    Meta                =          FALSE

    Exchange Hybrid     =           TRUE
    MP2 Hybrid          =          FALSE

   => Exchange-Correlation Functionals <=

    1.0000   wB97X-D range-separated functional

   => Exact (HF) Exchange <=

    0.7780            HF,LR [omega = 0.2000]
    0.2220               HF 

   => LibXC Density Thresholds  <==

    XC_HYB_GGA_XC_WB97X_D:  1.00E-14 

   => Molecular Quadrature <=

    Radial Scheme          =       TREUTLER
    Pruning Scheme         =           NONE
    Nuclear Scheme         =       TREUTLER

    BS radius alpha        =              1
    Pruning alpha          =              1
    Radial Points          =             75
    Spherical Points       =            302
    Total Points           =         460894
    Total Blocks           =           3406
    Max Points             =            256
    Max Functions          =            150
    Weights Tolerance      =       1.00E-15


  -Total Gradient:
     Atom            X                  Y                   Z
    ------   -----------------  -----------------  -----------------
       1       -0.009291122040    -0.018826547576    -0.011964016654
       2       -0.000808249942     0.003129378258     0.011762125761
       3        0.016531698114    -0.001698836594    -0.003671318494
       4       -0.000698127493     0.002205981045     0.011550725148
       5       -0.003024929645     0.008942646757    -0.001007773192
       6       -0.006961196936    -0.000865457905    -0.006252249355
       7       -0.000796525159    -0.001353365389     0.000992799996
       8       -0.001853802674    -0.000035415763    -0.000039672022
       9       -0.003051897056     0.000028026758    -0.000312559021
      10        0.003442194094     0.001955149909     0.006005390029
      11       -0.000923032438     0.000005755585    -0.008521405273
      12        0.007187818603    -0.000024764697    -0.005217583672
      13        0.008163502931     0.009259573787     0.001729285214
      14       -0.000518574812     0.001753575690     0.000065474184
      15        0.001505776932     0.005921192758     0.000996738301
      16       -0.001799028983    -0.002474964360    -0.000059615604
      17       -0.001071696741     0.000549739686     0.006456010284
      18       -0.005155609267    -0.001167703504    -0.004067693721
      19       -0.000887143430    -0.002466594170    -0.000646487771
      20        0.000610941143    -0.003331883315     0.000505025809
      21       -0.006609281285    -0.000841054497     0.002331544389
      22        0.005955564855    -0.000801556954    -0.000730748859


*** tstop() called on node74.bme.utexas.edu at Wed Jun  8 12:03:11 2022
Module time:
	user time   =      31.39 seconds =       0.52 minutes
	system time =       0.29 seconds =       0.00 minutes
	total time  =         16 seconds =       0.27 minutes
Total time:
	user time   =      97.75 seconds =       1.63 minutes
	system time =       2.41 seconds =       0.04 minutes
	total time  =         51 seconds =       0.85 minutes

			-----------------------------------------
			 OPTKING 2.0: for geometry optimizations 
			  - R.A. King,  Bethel University        
			-----------------------------------------
	At level 1: Red. Int., RFO, no backsteps, dynamic trust

	Internal coordinates to be generated automatically.
	Detected frag 1 with atoms:  1 2 3 4 5 6 7 8 9 10 11 12 13 14 15 16 17 18 19 20
	 21 22
	---Fragment 1 Bond Connectivity---
	 1 : 2 12 13
	 2 : 1 3 5
	 3 : 2 4 6
	 4 : 3 7 10
	 5 : 2 14 15 16
	 6 : 3 9 11
	 7 : 4 8 17
	 8 : 7 9 21
	 9 : 6 8 18
	 10 : 4
	 11 : 6
	 12 : 1 19 20 22
	 13 : 1
	 14 : 5
	 15 : 5
	 16 : 5
	 17 : 7
	 18 : 9
	 19 : 12
	 20 : 12
	 21 : 8
	 22 : 12

	Assuming in current code that numbering for constraints corresponds to unified fragment.
	Frozen dihedral atom list: 
	     1     2     3     4
	    12     1     2     3
	---Fragment 1 Geometry and Gradient---
	 C           3.1427208786       -1.0136748751       -2.0277201609
	 N           1.9878601105        0.8003620498       -0.4413026374
	 C          -0.5217679937        0.3598461030        0.5216640016
	 C          -1.0025936885        0.5455419304        3.1538635217
	 C           3.1297479088        3.3116228774        0.0543574075
	 C          -2.5797099800       -0.1020634333       -1.1363798112
	 C          -3.4643833759        0.2255735029        4.0814771644
	 C          -5.4781378961       -0.2577428510        2.4326023028
	 C          -5.0256297473       -0.4173094353       -0.1707429892
	 H           0.5369302811        0.9308778744        4.4728885778
	 H          -2.2608791675       -0.2289037406       -3.1698290571
	 C           5.8887404930       -0.5428647288       -2.8146758188
	 O           2.0338730519       -2.9335591398       -2.7228502469
	 H           3.9561704969        4.1035088308       -1.6595164739
	 H           1.7075286884        4.6493732297        0.7184355138
	 H           4.5922220751        3.1571056413        1.4989566543
	 H          -3.8036118921        0.3634139059        6.1114096300
	 H          -6.5867570660       -0.7826086132       -1.4679870620
	 H           5.9842340233        0.8749986729       -4.3060042133
	 H           7.0494291766        0.0533986658       -1.2205557717
	 H          -7.3888399816       -0.5053309885        3.1704137431
	 H           6.6959313384       -2.2892891427       -3.5548513065
	            -0.0092911220       -0.0188265476       -0.0119640167
	            -0.0008082499        0.0031293783        0.0117621258
	             0.0165316981       -0.0016988366       -0.0036713185
	            -0.0006981275        0.0022059810        0.0115507251
	            -0.0030249296        0.0089426468       -0.0010077732
	            -0.0069611969       -0.0008654579       -0.0062522494
	            -0.0007965252       -0.0013533654        0.0009928000
	            -0.0018538027       -0.0000354158       -0.0000396720
	            -0.0030518971        0.0000280268       -0.0003125590
	             0.0034421941        0.0019551499        0.0060053900
	            -0.0009230324        0.0000057556       -0.0085214053
	             0.0071878186       -0.0000247647       -0.0052175837
	             0.0081635029        0.0092595738        0.0017292852
	            -0.0005185748        0.0017535757        0.0000654742
	             0.0015057769        0.0059211928        0.0009967383
	            -0.0017990290       -0.0024749644       -0.0000596156
	            -0.0010716967        0.0005497397        0.0064560103
	            -0.0051556093       -0.0011677035       -0.0040676937
	            -0.0008871434       -0.0024665942       -0.0006464878
	             0.0006109411       -0.0033318833        0.0005050258
	            -0.0066092813       -0.0008410545        0.0023315444
	             0.0059555649       -0.0008015570       -0.0007307489

	Previous optimization step data not found.  Starting new optimization.

	---Fragment 1 Intrafragment Coordinates---
	 - Coordinate -           - BOHR/RAD -       - ANG/DEG -
	 R(1,2)           =         2.672294	       1.414117
	 R(1,12)          =         2.895097	       1.532019
	 R(1,13)          =         2.323511	       1.229549
	 R(2,3)           =         2.723893	       1.441422
	 R(2,5)           =         2.802859	       1.483209
	 R(3,4)           =         2.682191	       1.419355
	 R(3,6)           =         2.682833	       1.419694
	 R(4,7)           =         2.650143	       1.402395
	 R(4,10)          =         2.063600	       1.092010
	 R(5,14)          =         2.060927	       1.090596
	 R(5,15)          =         2.062349	       1.091348
	 R(5,16)          =         2.061449	       1.090872
	 R(6,9)           =         2.648463	       1.401506
	 R(6,11)          =         2.062197	       1.091268
	 R(7,8)           =         2.647185	       1.400830
	 R(7,17)          =         2.062693	       1.091530
	 R(8,9)           =         2.647193	       1.400834
	 R(8,21)          =         2.063116	       1.091754
	 R(9,18)          =         2.062378	       1.091364
	 R(12,19)         =         2.059980	       1.090094
	 R(12,20)         =         2.060084	       1.090150
	 R(12,22)         =         2.061411	       1.090852
	 B(1,2,3)         =         2.092382	     119.884682
	 B(1,2,5)         =         2.137825	     122.488344
	 B(1,12,19)       =         1.931240	     110.651875
	 B(1,12,20)       =         1.951027	     111.785599
	 B(1,12,22)       =         1.908410	     109.343830
	 B(2,1,12)        =         2.049786	     117.444098
	 B(2,1,13)        =         2.132080	     122.159203
	 B(2,3,4)         =         2.095440	     120.059885
	 B(2,3,6)         =         2.113084	     121.070794
	 B(2,5,14)        =         1.939673	     111.135066
	 B(2,5,15)        =         1.936027	     110.926187
	 B(2,5,16)        =         1.923881	     110.230246
	 B(3,2,5)         =         2.046242	     117.241018
	 B(3,4,7)         =         2.096320	     120.110303
	 B(3,4,10)        =         2.101873	     120.428423
	 B(3,6,9)         =         2.098530	     120.236927
	 B(3,6,11)        =         2.096010	     120.092548
	 B(4,3,6)         =         2.072488	     118.744837
	 B(4,7,8)         =         2.106761	     120.708502
	 B(4,7,17)        =         2.081931	     119.285852
	 B(6,9,8)         =         2.105115	     120.614201
	 B(6,9,18)        =         2.083819	     119.394015
	 B(7,4,10)        =         2.084986	     119.460900
	 B(7,8,9)         =         2.086941	     119.572912
	 B(7,8,21)        =         2.098642	     120.243355
	 B(8,7,17)        =         2.094488	     120.005295
	 B(8,9,18)        =         2.094244	     119.991325
	 B(9,6,11)        =         2.088611	     119.668586
	 B(9,8,21)        =         2.097600	     120.183646
	 B(12,1,13)       =         2.100997	     120.378271
	 B(14,5,15)       =         1.870326	     107.161782
	 B(14,5,16)       =         1.904008	     109.091650
	 B(15,5,16)       =         1.888315	     108.192457
	 B(19,12,20)      =         1.912264	     109.564630
	 B(19,12,22)      =         1.880758	     107.759487
	 B(20,12,22)      =         1.878046	     107.604134
	*D(1,2,3,4)       =         2.226395	     127.563047
	 D(1,2,3,6)       =        -0.986880	     -56.544033
	 D(1,2,5,14)      =         0.703800	      40.324790
	 D(1,2,5,15)      =         2.782687	     159.436238
	 D(1,2,5,16)      =        -1.409387	     -80.751946
	 D(2,1,12,19)     =        -1.352344	     -77.483631
	 D(2,1,12,20)     =         0.784184	      44.930440
	 D(2,1,12,22)     =         2.861911	     163.975432
	 D(2,3,4,7)       =         3.093256	     177.230512
	 D(2,3,4,10)      =        -0.052234	      -2.992801
	 D(2,3,6,9)       =        -3.093120	    -177.222715
	 D(2,3,6,11)      =         0.057343	       3.285504
	*D(3,2,1,12)      =        -3.056256	    -175.110577
	 D(3,2,1,13)      =         0.058159	       3.332247
	 D(3,2,5,14)      =        -2.313030	    -132.526857
	 D(3,2,5,15)      =        -0.234143	     -13.415408
	 D(3,2,5,16)      =         1.856968	     106.396407
	 D(3,4,7,8)       =        -0.009580	      -0.548894
	 D(3,4,7,17)      =         3.135769	     179.666344
	 D(3,6,9,8)       =         0.010745	       0.615619
	 D(3,6,9,18)      =        -3.135151	    -179.630932
	 D(4,3,2,5)       =        -1.036557	     -59.390344
	 D(4,3,6,9)       =        -0.022287	      -1.276925
	 D(4,3,6,11)      =         3.128176	     179.231294
	 D(4,7,8,9)       =        -0.002355	      -0.134905
	 D(4,7,8,21)      =         3.141102	     179.971901
	 D(5,2,1,12)      =         0.213290	      12.220630
	 D(5,2,1,13)      =        -2.955480	    -169.336546
	 D(5,2,3,6)       =         2.033354	     116.502575
	 D(6,3,4,7)       =         0.021688	       1.242625
	 D(6,3,4,10)      =        -3.123802	    -178.980688
	 D(6,9,8,7)       =         0.001775	       0.101675
	 D(6,9,8,21)      =         3.141504	     179.994934
	 D(7,8,9,18)      =        -3.135489	    -179.650303
	 D(8,7,4,10)      =         3.135872	     179.672257
	 D(8,9,6,11)      =        -3.139681	    -179.890443
	 D(9,8,7,17)      =         3.135455	     179.648313
	 D(10,4,7,17)     =        -0.001964	      -0.112504
	 D(11,6,9,18)     =        -0.002391	      -0.136995
	 D(13,1,12,19)    =         1.815918	     104.044418
	 D(13,1,12,20)    =        -2.330739	    -133.541511
	 D(13,1,12,22)    =        -0.253012	     -14.496519
	 D(17,7,8,21)     =        -0.004274	      -0.244881
	 D(18,9,8,21)     =         0.004240	       0.242955
	 R(6,13)          =         5.640869	       2.985019

	Current energy   :      -479.3764156838

	Generating empirical Hessian (Schlegel '84) for each fragment.
	Taking RFO optimization step.
	Going to follow RFO solution 1.
	Using RFO vector 1.
	Norm of target step-size    0.29374
	Projected energy change by RFO approximation:        -0.0077137478

	Back-transformation to cartesian coordinates...
	Successfully converged to displaced geometry.

	Back-transformation to cartesian coordinates to adjust frozen coordinates...
	Successfully converged to displaced geometry.

	--- Internal Coordinate Step in ANG or DEG, aJ/ANG or AJ/DEG ---
	 ---------------------------------------------------------------------------
	   Coordinate                Previous        Force       Change         New 
	   ----------                --------       ------       ------       ------
	    1 R(1,2)          =      1.414117    -0.198992    -0.029047     1.385070
	    2 R(1,12)         =      1.532019    -0.105279    -0.021694     1.510325
	    3 R(1,13)         =      1.229549     0.101073     0.007017     1.236566
	    4 R(2,3)          =      1.441422    -0.056970    -0.009183     1.432239
	    5 R(2,5)          =      1.483209    -0.091702    -0.016678     1.466531
	    6 R(3,4)          =      1.419355    -0.171852    -0.025256     1.394099
	    7 R(3,6)          =      1.419694    -0.165196    -0.025116     1.394578
	    8 R(4,7)          =      1.402395    -0.078776    -0.010216     1.392179
	    9 R(4,10)         =      1.092010    -0.055881    -0.009864     1.082146
	   10 R(5,14)         =      1.090596    -0.003392     0.000091     1.090687
	   11 R(5,15)         =      1.091348    -0.025730    -0.003962     1.087386
	   12 R(5,16)         =      1.090872     0.009280     0.002125     1.092997
	   13 R(6,9)          =      1.401506    -0.081226    -0.010462     1.391044
	   14 R(6,11)         =      1.091268    -0.067970    -0.011670     1.079598
	   15 R(7,8)          =      1.400830    -0.073712    -0.009326     1.391504
	   16 R(7,17)         =      1.091530    -0.054178    -0.009191     1.082339
	   17 R(8,9)          =      1.400834    -0.061959    -0.007200     1.393635
	   18 R(8,21)         =      1.091754    -0.058117    -0.009903     1.081851
	   19 R(9,18)         =      1.091364    -0.054845    -0.009668     1.081696
	   20 R(12,19)        =      1.090094     0.010402     0.002552     1.092647
	   21 R(12,20)        =      1.090150     0.001942     0.000542     1.090692
	   22 R(12,22)        =      1.090852    -0.026944    -0.004355     1.086497
	   23 B(1,2,3)        =    119.884682     0.000430     1.020123   120.904805
	   24 B(1,2,5)        =    122.488344    -0.000587    -1.339432   121.148912
	   25 B(1,12,19)      =    110.651875     0.000106     0.316149   110.968024
	   26 B(1,12,20)      =    111.785599     0.000071     0.358051   112.143649
	   27 B(1,12,22)      =    109.343830    -0.000509    -2.059990   107.283840
	   28 B(2,1,12)       =    117.444098    -0.000862    -2.358956   115.085142
	   29 B(2,1,13)       =    122.159203     0.000311     0.600806   122.760009
	   30 B(2,3,4)        =    120.059885    -0.000486    -1.112763   118.947121
	   31 B(2,3,6)        =    121.070794     0.000158     0.339645   121.410439
	   32 B(2,5,14)       =    111.135066    -0.000107    -0.607767   110.527299
	   33 B(2,5,15)       =    110.926187    -0.000628    -2.940805   107.985382
	   34 B(2,5,16)       =    110.230246     0.000434     2.113708   112.343954
	   35 B(3,2,5)        =    117.241018     0.000169     0.679389   117.920408
	   36 B(3,4,7)        =    120.110303     0.000084     0.129354   120.239658
	   37 B(3,4,10)       =    120.428423    -0.000222    -0.858949   119.569474
	   38 B(3,6,9)        =    120.236927    -0.000038    -0.232572   120.004355
	   39 B(3,6,11)       =    120.092548    -0.000147    -0.556435   119.536113
	   40 B(4,3,6)        =    118.744837     0.000330     0.849041   119.593878
	   41 B(4,7,8)        =    120.708502    -0.000184    -0.511148   120.197354
	   42 B(4,7,17)       =    119.285852     0.000095     0.273395   119.559248
	   43 B(6,9,8)        =    120.614201    -0.000088    -0.191559   120.422642
	   44 B(6,9,18)       =    119.394015     0.000030     0.022746   119.416761
	   45 B(7,4,10)       =    119.460900     0.000138     0.729628   120.190528
	   46 B(7,8,9)        =    119.572912    -0.000103    -0.040607   119.532305
	   47 B(7,8,21)       =    120.243355     0.000037    -0.016278   120.227078
	   48 B(8,7,17)       =    120.005295     0.000089     0.233413   120.238709
	   49 B(8,9,18)       =    119.991325     0.000058     0.168449   120.159773
	   50 B(9,6,11)       =    119.668586     0.000185     0.770089   120.438675
	   51 B(9,8,21)       =    120.183646     0.000066     0.056249   120.239895
	   52 B(12,1,13)      =    120.378271     0.000550     1.770401   122.148672
	   53 B(14,5,15)      =    107.161782     0.000293     0.929077   108.090859
	   54 B(14,5,16)      =    109.091650    -0.000100    -0.090344   109.001306
	   55 B(15,5,16)      =    108.192457     0.000111     0.591173   108.783629
	   56 B(19,12,20)     =    109.564630    -0.000164    -1.006442   108.558188
	   57 B(19,12,22)     =    107.759487     0.000188     0.753374   108.512860
	   58 B(20,12,22)     =    107.604134     0.000316     1.695148   109.299282
	   59 *D(1,2,3,4)     =    127.563047     0.000000    -0.000000   127.563047
	   60 D(1,2,3,6)      =    -56.544033     0.000009     1.561771   -54.982263
	   61 D(1,2,5,14)     =     40.324790     0.000032     3.197496    43.522285
	   62 D(1,2,5,15)     =    159.436238     0.000006     2.131153   161.567391
	   63 D(1,2,5,16)     =    -80.751946     0.000010     2.283200   -78.468746
	   64 D(2,1,12,19)    =    -77.483631     0.000006     0.988510   -76.495121
	   65 D(2,1,12,20)    =     44.930440    -0.000014     0.170714    45.101154
	   66 D(2,1,12,22)    =    163.975432     0.000011     1.146825   165.122258
	   67 D(2,3,4,7)      =    177.230512    -0.000000     0.061669   177.292181
	   68 D(2,3,4,10)     =     -2.992801    -0.000001     0.073378    -2.919424
	   69 D(2,3,6,9)      =   -177.222715    -0.000001    -0.912646  -178.135361
	   70 D(2,3,6,11)     =      3.285504     0.000008     0.232846     3.518350
	   71 *D(3,2,1,12)    =   -175.110577     0.000000    -0.000000  -175.110577
	   72 D(3,2,1,13)     =      3.332247    -0.000000     0.670146     4.002393
	   73 D(3,2,5,14)     =   -132.526857    -0.000001    -2.116714  -134.643571
	   74 D(3,2,5,15)     =    -13.415408    -0.000027    -3.183057   -16.598465
	   75 D(3,2,5,16)     =    106.396407    -0.000023    -3.031009   103.365398
	   76 D(3,4,7,8)      =     -0.548894     0.000010     1.323349     0.774455
	   77 D(3,4,7,17)     =    179.666344     0.000002     0.322313   179.988657
	   78 D(3,6,9,8)      =      0.615619     0.000005     0.431684     1.047303
	   79 D(3,6,9,18)     =   -179.630932     0.000004     0.348530  -179.282403
	   80 D(4,3,2,5)      =    -59.390344     0.000014     5.123943   -54.266401
	   81 D(4,3,6,9)      =     -1.276925     0.000001     0.580088    -0.696837
	   82 D(4,3,6,11)     =    179.231294     0.000010     1.725580   180.956874
	   83 D(4,7,8,9)      =     -0.134905    -0.000003    -0.292624    -0.427529
	   84 D(4,7,8,21)     =    179.971901    -0.000006    -0.707773   179.264128
	   85 D(5,2,1,12)     =     12.220630    -0.000029    -5.442370     6.778261
	   86 D(5,2,1,13)     =   -169.336546    -0.000029    -4.772224  -174.108769
	   87 D(5,2,3,6)      =    116.502575     0.000024     6.685714   123.188289
	   88 D(6,3,4,7)      =      1.242625    -0.000008    -1.452269    -0.209643
	   89 D(6,3,4,10)     =   -178.980688    -0.000009    -1.440559  -180.421247
	   90 D(6,9,8,7)      =      0.101675    -0.000005    -0.584444    -0.482769
	   91 D(6,9,8,21)     =    179.994934    -0.000002    -0.169320   179.825614
	   92 D(7,8,9,18)     =   -179.650303    -0.000003    -0.500303  -180.150606
	   93 D(8,7,4,10)     =    179.672257     0.000011     1.315124   180.987381
	   94 D(8,9,6,11)     =   -179.890443    -0.000004    -0.731070  -180.621514
	   95 D(9,8,7,17)     =    179.648313     0.000005     0.715332   180.363645
	   96 D(10,4,7,17)    =     -0.112504     0.000003     0.314088     0.201584
	   97 D(11,6,9,18)    =     -0.136995    -0.000006    -0.814224    -0.951219
	   98 D(13,1,12,19)   =    104.044418     0.000007     0.341492   104.385910
	   99 D(13,1,12,20)   =   -133.541511    -0.000013    -0.476304  -134.017815
	  100 D(13,1,12,22)   =    -14.496519     0.000011     0.499808   -13.996711
	  101 D(17,7,8,21)    =     -0.244881     0.000003     0.300184     0.055302
	  102 D(18,9,8,21)    =      0.242955    -0.000000    -0.085179     0.157776
	  103 R(6,13)         =      2.985019    -0.015229    -0.016043     2.968976
	 ---------------------------------------------------------------------------
	Successfully symmetrized geometry.

  ==> Convergence Check <==

  Measures of convergence in internal coordinates in au.
  Criteria marked as inactive (o), active & met (*), and active & unmet ( ).
  --------------------------------------------------------------------------------------------- ~
   Step     Total Energy     Delta E     MAX Force     RMS Force      MAX Disp      RMS Disp    ~
  --------------------------------------------------------------------------------------------- ~
    Convergence Criteria             o    2.50e-03 *    1.70e-03 *    1.00e-02 *    6.70e-03 *  ~
  --------------------------------------------------------------------------------------------- ~
      1    -479.37641568   -4.79e+02 o    2.42e-02      5.51e-03      1.17e-01      2.87e-02    ~
  ---------------------------------------------------------------------------------------------

	Writing optimization data to binary file.
	Structure for next step:
	Cartesian Geometry (in Angstrom)
	    C     1.5656888636  -0.4729514638  -1.1993687620
	    N     0.9856956890   0.4436532463  -0.3380537217
	    C    -0.2788521203   0.1755521912   0.2786718663
	    C    -0.3921398738   0.2906145959   1.6633875045
	    C     1.6250646345   1.7340341669  -0.0608586382
	    C    -1.4041778394  -0.1448964523  -0.4801444712
	    C    -1.6216718528   0.0913131275   2.2852341851
	    C    -2.7424412236  -0.2399502427   1.5299700173
	    C    -2.6269907036  -0.3618472142   0.1464853124
	    H     0.4827636760   0.5325527383   2.2524965743
	    H    -1.3121520859  -0.2490256439  -1.5507611132
	    C     2.9491693350  -0.1095752547  -1.6841594088
	    O     1.0045117851  -1.5218215269  -1.5370794624
	    H     2.0024562058   2.1795962096  -0.9820791489
	    H     0.8715325468   2.4002109235   0.3524277211
	    H     2.4468623165   1.6454587141   0.6542956163
	    H    -1.6970501216   0.1832048423   3.3610278876
	    H    -3.4911068522  -0.6213205030  -0.4502076444
	    H     2.9027637769   0.6621718730  -2.4562538200
	    H     3.5878871239   0.2468168509  -0.8750652306
	    H    -3.6955357076  -0.4065869132   2.0139580378
	    H     3.3849833163  -1.0054744313  -2.1176408767
			--------------------------
			 OPTKING Finished Execution 
			--------------------------

    Structure for next step:
    Molecular point group: c1
    Full point group: C1

    Geometry (in Angstrom), charge = 0, multiplicity = 1:

    C            1.563811052940    -0.466443705297    -1.203629084081
    N            0.983817876057     0.450161008381    -0.342314040431
    C           -0.280729938152     0.182059952236     0.274411549992
    C           -0.394017692162     0.297122357350     1.659127193632
    C            1.623186824048     1.740541934065    -0.065118955776
    C           -1.406055661750    -0.138388692547    -0.484404790464
    C           -1.623549675994     0.097820888233     2.280973876674
    C           -2.744319051209    -0.233442483313     1.525709705949
    C           -2.628868530704    -0.355339455218     0.142224995598
    H            0.480885861095     0.539060500750     2.248236265798
    H           -1.314029907853    -0.242517884481    -1.555021436677
    C            2.947291529760    -0.103067494814    -1.688419732814
    O            1.002633972250    -1.515313772479    -1.541339785842
    H            2.000578396875     2.186103978570    -0.986339470148
    H            0.869654733462     2.406718693336     0.348167405069
    H            2.444984509317     1.651966480938     0.650035301499
    H           -1.698927945118     0.189712603371     3.356767583472
    H           -3.492984682774    -0.614812745123    -0.454467963553
    H            2.900885971484     0.668679635963    -2.460514146980
    H            3.586009321218     0.253324612181    -0.879325551361
    H           -3.697413538907    -0.400079154431     2.009697728337
    H            3.383105512767    -0.998966674862    -2.121901202349


Scratch directory: /scratch/bdw2292/Psi4-3_24_Index_0-farH_in17/

Scratch directory: /scratch/bdw2292/Psi4-3_24_Index_0-farH_in17/
gradient() will perform analytic gradient computation.

*** tstart() called on node74.bme.utexas.edu
*** at Wed Jun  8 12:03:13 2022

   => Loading Basis Set <=

    Name: 6-311G
    Role: ORBITAL
    Keyword: BASIS
    atoms 1, 3-9, 12   entry C          line    92 file /home/bdw2292/miniconda3/envs/newamoebamdpoltype/share/psi4/basis/6-311g.gbs 
    atoms 2            entry N          line   109 file /home/bdw2292/miniconda3/envs/newamoebamdpoltype/share/psi4/basis/6-311g.gbs 
    atoms 10-11, 14-22 entry H          line    21 file /home/bdw2292/miniconda3/envs/newamoebamdpoltype/share/psi4/basis/6-311g.gbs 
    atoms 13           entry O          line   126 file /home/bdw2292/miniconda3/envs/newamoebamdpoltype/share/psi4/basis/6-311g.gbs 

   => WB97X-D: Empirical Dispersion <=

    Chai and Head-Gordon Dispersion Correction
    Chai, J.-D.; Head-Gordon, M. (2010), J. Chem. Phys., 132: 6615-6620

        s6 =       1.000000


         ---------------------------------------------------------
                                   SCF
               by Justin Turney, Rob Parrish, Andy Simmonett
                          and Daniel G. A. Smith
                              RKS Reference
                        2 Threads,   7788 MiB Core
         ---------------------------------------------------------

  ==> Geometry <==

    Molecular point group: c1
    Full point group: C1

    Geometry (in Angstrom), charge = 0, multiplicity = 1:

       Center              X                  Y                   Z               Mass       
    ------------   -----------------  -----------------  -----------------  -----------------
         C            1.563811052940    -0.466443705297    -1.203629084081    12.000000000000
         N            0.983817876057     0.450161008381    -0.342314040431    14.003074004430
         C           -0.280729938152     0.182059952236     0.274411549992    12.000000000000
         C           -0.394017692162     0.297122357350     1.659127193632    12.000000000000
         C            1.623186824048     1.740541934065    -0.065118955776    12.000000000000
         C           -1.406055661750    -0.138388692547    -0.484404790464    12.000000000000
         C           -1.623549675994     0.097820888233     2.280973876674    12.000000000000
         C           -2.744319051209    -0.233442483313     1.525709705949    12.000000000000
         C           -2.628868530704    -0.355339455218     0.142224995598    12.000000000000
         H            0.480885861095     0.539060500750     2.248236265798     1.007825032230
         H           -1.314029907853    -0.242517884481    -1.555021436677     1.007825032230
         C            2.947291529760    -0.103067494814    -1.688419732814    12.000000000000
         O            1.002633972250    -1.515313772479    -1.541339785842    15.994914619570
         H            2.000578396875     2.186103978570    -0.986339470148     1.007825032230
         H            0.869654733462     2.406718693336     0.348167405069     1.007825032230
         H            2.444984509317     1.651966480938     0.650035301499     1.007825032230
         H           -1.698927945118     0.189712603371     3.356767583472     1.007825032230
         H           -3.492984682774    -0.614812745123    -0.454467963553     1.007825032230
         H            2.900885971484     0.668679635963    -2.460514146980     1.007825032230
         H            3.586009321218     0.253324612181    -0.879325551361     1.007825032230
         H           -3.697413538907    -0.400079154431     2.009697728337     1.007825032230
         H            3.383105512767    -0.998966674862    -2.121901202349     1.007825032230

  Running in c1 symmetry.

  Rotational constants: A =      0.08122  B =      0.02443  C =      0.02078 [cm^-1]
  Rotational constants: A =   2434.96231  B =    732.46078  C =    623.09545 [MHz]
  Nuclear repulsion =  588.510137663614842

  Charge       = 0
  Multiplicity = 1
  Electrons    = 80
  Nalpha       = 40
  Nbeta        = 40

  ==> Algorithm <==

  SCF Algorithm Type is DF.
  DIIS enabled.
  MOM disabled.
  Fractional occupation disabled.
  Guess Type is READ.
  Energy threshold   = 1.00e-08
  Density threshold  = 1.00e-08
  Integral threshold = 1.00e-12

  ==> Primary Basis <==

  Basis Set: 6-311G
    Blend: 6-311G
    Number of shells: 110
    Number of basis functions: 176
    Number of Cartesian functions: 176
    Spherical Harmonics?: true
    Max angular momentum: 1

  ==> DFT Potential <==

   => LibXC <=

    Version 5.1.5
    S. Lehtola, C. Steigemann, M. J. Oliveira, and M. A. Marques, SoftwareX 7, 1 (2018) (10.1016/j.softx.2017.11.002)

   => Composite Functional: WB97X-D <= 

    wB97X-D Hyb-GGA Exchange-Correlation Functional

    J.-D. Chai and M. Head-Gordon, Phys. Chem. Chem. Phys. 10, 6615 (2008) (10.1039/B810189B)

    Deriv               =              1
    GGA                 =           TRUE
    Meta                =          FALSE

    Exchange Hybrid     =           TRUE
    MP2 Hybrid          =          FALSE

   => Exchange-Correlation Functionals <=

    1.0000   wB97X-D range-separated functional

   => Exact (HF) Exchange <=

    0.7780            HF,LR [omega = 0.2000]
    0.2220               HF 

   => LibXC Density Thresholds  <==

    XC_HYB_GGA_XC_WB97X_D:  1.00E-14 

   => Molecular Quadrature <=

    Radial Scheme          =       TREUTLER
    Pruning Scheme         =           NONE
    Nuclear Scheme         =       TREUTLER

    BS radius alpha        =              1
    Pruning alpha          =              1
    Radial Points          =             75
    Spherical Points       =            302
    Total Points           =         460125
    Total Blocks           =           3411
    Max Points             =            256
    Max Functions          =            151
    Weights Tolerance      =       1.00E-15

   => Loading Basis Set <=

    Name: (6-311G AUX)
    Role: JKFIT
    Keyword: DF_BASIS_SCF
    atoms 1, 3-9, 12   entry C          line   125 file /home/bdw2292/miniconda3/envs/newamoebamdpoltype/share/psi4/basis/cc-pvtz-jkfit.gbs 
    atoms 2            entry N          line   177 file /home/bdw2292/miniconda3/envs/newamoebamdpoltype/share/psi4/basis/cc-pvtz-jkfit.gbs 
    atoms 10-11, 14-22 entry H          line    51 file /home/bdw2292/miniconda3/envs/newamoebamdpoltype/share/psi4/basis/cc-pvtz-jkfit.gbs 
    atoms 13           entry O          line   229 file /home/bdw2292/miniconda3/envs/newamoebamdpoltype/share/psi4/basis/cc-pvtz-jkfit.gbs 

   => Loading Basis Set <=

    Name: 6-311G
    Role: ORBITAL
    Keyword: BASIS
    atoms 1, 3-9, 12   entry C          line    92 file /home/bdw2292/miniconda3/envs/newamoebamdpoltype/share/psi4/basis/6-311g.gbs 
    atoms 2            entry N          line   109 file /home/bdw2292/miniconda3/envs/newamoebamdpoltype/share/psi4/basis/6-311g.gbs 
    atoms 10-11, 14-22 entry H          line    21 file /home/bdw2292/miniconda3/envs/newamoebamdpoltype/share/psi4/basis/6-311g.gbs 
    atoms 13           entry O          line   126 file /home/bdw2292/miniconda3/envs/newamoebamdpoltype/share/psi4/basis/6-311g.gbs 

  Reading orbitals from file /scratch/bdw2292/Psi4-3_24_Index_0-farH_in17/3_24_Index_0-opt-1_2-3-128.default.1101700.180.npy, no projection.

  ==> Integral Setup <==

  DFHelper Memory: AOs need 0.750 GiB; user supplied 4.271 GiB. Using in-core AOs.

  ==> MemDFJK: Density-Fitted J/K Matrices <==

    J tasked:                   Yes
    K tasked:                   Yes
    wK tasked:                  Yes
    Omega:                2.000E-01
    OpenMP threads:               2
    Memory [MiB]:              4373
    Algorithm:                 Core
    Schwarz Cutoff:           1E-12
    Mask sparsity (%):      11.7058
    Fitting Condition:        1E-10

   => Auxiliary Basis Set <=

  Basis Set: (6-311G AUX)
    Blend: CC-PVTZ-JKFIT
    Number of shells: 385
    Number of basis functions: 1199
    Number of Cartesian functions: 1441
    Spherical Harmonics?: true
    Max angular momentum: 4

  Cached 100.0% of DFT collocation blocks in 1.434 [GiB].

  Minimum eigenvalue in the overlap matrix is 2.4748559549E-04.
  Reciprocal condition number of the overlap matrix is 3.6183625393E-05.
    Using symmetric orthogonalization.

  ==> Pre-Iterations <==

  SCF Guess: Orbitals guess was supplied from a previous computation.

   -------------------------------------------------------
    Irrep   Nso     Nmo     Nalpha   Nbeta   Ndocc  Nsocc
   -------------------------------------------------------
     A        176     176      40      40      40       0
   -------------------------------------------------------
    Total     176     176      40      40      40       0
   -------------------------------------------------------

  ==> Iterations <==

                           Total Energy        Delta E     RMS |[F,P]|

   @DF-RKS iter   0:  -479.41644376979258   -4.79416e+02   1.90223e-03 
   @DF-RKS iter   1:  -479.37929291760838    3.71509e-02   2.17723e-04 DIIS
   @DF-RKS iter   2:  -479.38067396458604   -1.38105e-03   1.22370e-04 DIIS
   @DF-RKS iter   3:  -479.38082509977670   -1.51135e-04   9.63537e-05 DIIS
   @DF-RKS iter   4:  -479.38094717581572   -1.22076e-04   2.45735e-05 DIIS
   @DF-RKS iter   5:  -479.38095692960059   -9.75378e-06   6.41553e-06 DIIS
   @DF-RKS iter   6:  -479.38095809391154   -1.16431e-06   2.86846e-06 DIIS
   @DF-RKS iter   7:  -479.38095839180437   -2.97893e-07   8.88355e-07 DIIS
   @DF-RKS iter   8:  -479.38095843747220   -4.56678e-08   4.01103e-07 DIIS
   @DF-RKS iter   9:  -479.38095844410691   -6.63471e-09   1.45512e-07 DIIS
   @DF-RKS iter  10:  -479.38095844536332   -1.25641e-09   5.93958e-08 DIIS
   @DF-RKS iter  11:  -479.38095844546109   -9.77707e-11   1.33093e-08 DIIS
   @DF-RKS iter  12:  -479.38095844546734   -6.25278e-12   4.70774e-09 DIIS
  Energy and wave function converged.


  ==> Post-Iterations <==

   Electrons on quadrature grid:
      Ntotal   =   79.9999993231 ; deviation = -6.769e-07 

    Orbital Energies [Eh]
    ---------------------

    Doubly Occupied:                                                      

       1A    -19.209469     2A    -14.474505     3A    -10.400416  
       4A    -10.336736     5A    -10.330697     6A    -10.295844  
       7A    -10.295108     8A    -10.293044     9A    -10.292090  
      10A    -10.291598    11A    -10.291071    12A     -1.151239  
      13A     -1.053834    14A     -0.964745    15A     -0.872969  
      16A     -0.857616    17A     -0.839476    18A     -0.811856  
      19A     -0.725387    20A     -0.710358    21A     -0.657333  
      22A     -0.609174    23A     -0.585708    24A     -0.577453  
      25A     -0.572020    26A     -0.542088    27A     -0.538943  
      28A     -0.517504    29A     -0.514909    30A     -0.500381  
      31A     -0.493539    32A     -0.482441    33A     -0.463482  
      34A     -0.450641    35A     -0.443430    36A     -0.434299  
      37A     -0.356520    38A     -0.339776    39A     -0.327923  
      40A     -0.305441  

    Virtual:                                                              

      41A      0.055826    42A      0.063603    43A      0.097922  
      44A      0.106585    45A      0.131791    46A      0.147854  
      47A      0.163003    48A      0.166583    49A      0.170132  
      50A      0.182138    51A      0.197023    52A      0.205838  
      53A      0.218043    54A      0.226573    55A      0.241326  
      56A      0.251613    57A      0.273924    58A      0.311439  
      59A      0.342402    60A      0.345929    61A      0.357686  
      62A      0.370293    63A      0.378035    64A      0.380180  
      65A      0.397854    66A      0.415922    67A      0.433590  
      68A      0.457234    69A      0.461957    70A      0.479886  
      71A      0.489185    72A      0.493346    73A      0.503856  
      74A      0.516221    75A      0.517344    76A      0.527523  
      77A      0.547189    78A      0.561587    79A      0.568550  
      80A      0.578065    81A      0.596455    82A      0.607337  
      83A      0.619853    84A      0.637532    85A      0.641800  
      86A      0.652380    87A      0.658247    88A      0.677920  
      89A      0.680933    90A      0.684801    91A      0.694317  
      92A      0.697290    93A      0.707698    94A      0.717022  
      95A      0.731826    96A      0.739539    97A      0.754261  
      98A      0.765399    99A      0.776950   100A      0.818173  
     101A      0.846291   102A      0.859949   103A      0.880295  
     104A      0.893423   105A      0.901801   106A      0.911213  
     107A      0.933795   108A      0.961644   109A      0.967874  
     110A      0.996954   111A      1.015571   112A      1.055679  
     113A      1.070119   114A      1.088229   115A      1.140653  
     116A      1.164356   117A      1.234364   118A      1.275846  
     119A      1.363857   120A      1.480431   121A      1.729864  
     122A      2.277424   123A      2.304006   124A      2.330094  
     125A      2.335746   126A      2.353085   127A      2.371017  
     128A      2.386162   129A      2.403256   130A      2.434555  
     131A      2.463077   132A      2.632407   133A      2.639798  
     134A      2.665412   135A      2.675116   136A      2.701685  
     137A      2.764055   138A      2.773053   139A      2.839734  
     140A      2.844984   141A      2.873486   142A      2.897539  
     143A      2.909629   144A      2.923533   145A      2.988697  
     146A      3.009413   147A      3.024516   148A      3.072609  
     149A      3.090560   150A      3.152656   151A      3.169903  
     152A      3.193797   153A      3.229421   154A      3.258370  
     155A      3.309514   156A      3.334685   157A      3.376556  
     158A      3.387590   159A      3.521893   160A      3.933485  
     161A      4.137857   162A      4.245847   163A      4.989943  
     164A      5.070520   165A      5.107506   166A     23.241203  
     167A     23.428496   168A     23.481909   169A     23.494467  
     170A     23.550473   171A     23.642165   172A     23.735254  
     173A     23.764315   174A     24.018237   175A     35.556084  
     176A     50.050213  

    Final Occupation by Irrep:
              A 
    DOCC [    40 ]

  @DF-RKS Final Energy:  -479.38095844546734

   => Energetics <=

    Nuclear Repulsion Energy =            588.5101376636148416
    One-Electron Energy =               -1815.3978240278643170
    Two-Electron Energy =                 794.6059834215395767
    DFT Exchange-Correlation Energy =     -47.0863735478023955
    Empirical Dispersion Energy =          -0.0128819549550367
    VV10 Nonlocal Energy =                  0.0000000000000000
    Total Energy =                       -479.3809584454673427

Computation Completed


Properties will be evaluated at   0.000000,   0.000000,   0.000000 [a0]

Properties computed using the SCF density matrix

  Nuclear Dipole Moment: [e a0]
     X:     5.1231      Y:     5.2780      Z:     0.1392

  Electronic Dipole Moment: [e a0]
     X:    -4.6624      Y:    -3.8066      Z:     0.3518

  Dipole Moment: [e a0]
     X:     0.4607      Y:     1.4714      Z:     0.4910     Total:     1.6181

  Dipole Moment: [D]
     X:     1.1710      Y:     3.7398      Z:     1.2479     Total:     4.1128


*** tstop() called on node74.bme.utexas.edu at Wed Jun  8 12:03:47 2022
Module time:
	user time   =      64.53 seconds =       1.08 minutes
	system time =       3.35 seconds =       0.06 minutes
	total time  =         34 seconds =       0.57 minutes
Total time:
	user time   =     162.81 seconds =       2.71 minutes
	system time =       5.80 seconds =       0.10 minutes
	total time  =         87 seconds =       1.45 minutes

*** tstart() called on node74.bme.utexas.edu
*** at Wed Jun  8 12:03:47 2022


         ------------------------------------------------------------
                                   SCF GRAD                          
                          Rob Parrish, Justin Turney,                
                       Andy Simmonett, and Alex Sokolov              
         ------------------------------------------------------------

  ==> Geometry <==

    Molecular point group: c1
    Full point group: C1

    Geometry (in Angstrom), charge = 0, multiplicity = 1:

       Center              X                  Y                   Z               Mass       
    ------------   -----------------  -----------------  -----------------  -----------------
         C            1.563811052940    -0.466443705297    -1.203629084081    12.000000000000
         N            0.983817876057     0.450161008381    -0.342314040431    14.003074004430
         C           -0.280729938152     0.182059952236     0.274411549992    12.000000000000
         C           -0.394017692162     0.297122357350     1.659127193632    12.000000000000
         C            1.623186824048     1.740541934065    -0.065118955776    12.000000000000
         C           -1.406055661750    -0.138388692547    -0.484404790464    12.000000000000
         C           -1.623549675994     0.097820888233     2.280973876674    12.000000000000
         C           -2.744319051209    -0.233442483313     1.525709705949    12.000000000000
         C           -2.628868530704    -0.355339455218     0.142224995598    12.000000000000
         H            0.480885861095     0.539060500750     2.248236265798     1.007825032230
         H           -1.314029907853    -0.242517884481    -1.555021436677     1.007825032230
         C            2.947291529760    -0.103067494814    -1.688419732814    12.000000000000
         O            1.002633972250    -1.515313772479    -1.541339785842    15.994914619570
         H            2.000578396875     2.186103978570    -0.986339470148     1.007825032230
         H            0.869654733462     2.406718693336     0.348167405069     1.007825032230
         H            2.444984509317     1.651966480938     0.650035301499     1.007825032230
         H           -1.698927945118     0.189712603371     3.356767583472     1.007825032230
         H           -3.492984682774    -0.614812745123    -0.454467963553     1.007825032230
         H            2.900885971484     0.668679635963    -2.460514146980     1.007825032230
         H            3.586009321218     0.253324612181    -0.879325551361     1.007825032230
         H           -3.697413538907    -0.400079154431     2.009697728337     1.007825032230
         H            3.383105512767    -0.998966674862    -2.121901202349     1.007825032230

  Nuclear repulsion =  588.510137663614842

  ==> Basis Set <==

  Basis Set: 6-311G
    Blend: 6-311G
    Number of shells: 110
    Number of basis functions: 176
    Number of Cartesian functions: 176
    Spherical Harmonics?: true
    Max angular momentum: 1

  ==> DFJKGrad: Density-Fitted SCF Gradients <==

    Gradient:                    1
    J tasked:                  Yes
    K tasked:                  Yes
    wK tasked:                 Yes
    Omega:               2.000E-01
    OpenMP threads:              2
    Integrals threads:           2
    Memory [MiB]:             5841
    Schwarz Cutoff:          1E-12
    Fitting Condition:       1E-10

   => Auxiliary Basis Set <=

  Basis Set: (6-311G AUX)
    Blend: CC-PVTZ-JKFIT
    Number of shells: 385
    Number of basis functions: 1199
    Number of Cartesian functions: 1441
    Spherical Harmonics?: true
    Max angular momentum: 4

  ==> DFT Potential <==

   => LibXC <=

    Version 5.1.5
    S. Lehtola, C. Steigemann, M. J. Oliveira, and M. A. Marques, SoftwareX 7, 1 (2018) (10.1016/j.softx.2017.11.002)

   => Composite Functional: WB97X-D <= 

    wB97X-D Hyb-GGA Exchange-Correlation Functional

    J.-D. Chai and M. Head-Gordon, Phys. Chem. Chem. Phys. 10, 6615 (2008) (10.1039/B810189B)

    Deriv               =              1
    GGA                 =           TRUE
    Meta                =          FALSE

    Exchange Hybrid     =           TRUE
    MP2 Hybrid          =          FALSE

   => Exchange-Correlation Functionals <=

    1.0000   wB97X-D range-separated functional

   => Exact (HF) Exchange <=

    0.7780            HF,LR [omega = 0.2000]
    0.2220               HF 

   => LibXC Density Thresholds  <==

    XC_HYB_GGA_XC_WB97X_D:  1.00E-14 

   => Molecular Quadrature <=

    Radial Scheme          =       TREUTLER
    Pruning Scheme         =           NONE
    Nuclear Scheme         =       TREUTLER

    BS radius alpha        =              1
    Pruning alpha          =              1
    Radial Points          =             75
    Spherical Points       =            302
    Total Points           =         460125
    Total Blocks           =           3411
    Max Points             =            256
    Max Functions          =            151
    Weights Tolerance      =       1.00E-15


  -Total Gradient:
     Atom            X                  Y                   Z
    ------   -----------------  -----------------  -----------------
       1       -0.003146462809    -0.009126270727    -0.006231003523
       2        0.000981892182     0.001787980138     0.005205801633
       3        0.000763060878    -0.001562659888    -0.000511474236
       4       -0.000256877233    -0.000613055381    -0.001444293763
       5        0.001902888194     0.000226980304    -0.001261854631
       6       -0.000743412104     0.001799099133     0.002683036234
       7       -0.000539601193    -0.000027373432    -0.001936999441
       8        0.001013380023     0.000365438652     0.000115143155
       9        0.000293337040    -0.000034602677     0.000100556347
      10       -0.000003781967     0.000357485538     0.000038683756
      11       -0.000255104289    -0.000013728787    -0.000538661278
      12       -0.000212135213     0.004334872277     0.001974055162
      13        0.002316110517     0.004819923106     0.001435021337
      14        0.000150961023    -0.000428036885    -0.001783395809
      15       -0.001023124153    -0.000595902175    -0.000184441597
      16       -0.000002134124    -0.000627789572     0.000158870971
      17        0.000096914818     0.000000510323     0.000507881488
      18       -0.000145170309    -0.000036681258    -0.000219214455
      19       -0.000709863966     0.000121076248    -0.000352803950
      20       -0.000130371929     0.000316270960     0.001495650413
      21       -0.000334725595    -0.000189987949     0.000167667253
      22       -0.000342180706    -0.000730858345     0.000632893871


*** tstop() called on node74.bme.utexas.edu at Wed Jun  8 12:04:05 2022
Module time:
	user time   =      34.77 seconds =       0.58 minutes
	system time =       0.77 seconds =       0.01 minutes
	total time  =         18 seconds =       0.30 minutes
Total time:
	user time   =     197.58 seconds =       3.29 minutes
	system time =       6.57 seconds =       0.11 minutes
	total time  =        105 seconds =       1.75 minutes

			-----------------------------------------
			 OPTKING 2.0: for geometry optimizations 
			  - R.A. King,  Bethel University        
			-----------------------------------------
	At level 1: Red. Int., RFO, no backsteps, dynamic trust

	Previous internal coordinate definitions found.
	---Fragment 1 Geometry and Gradient---
	 C           2.9551746020       -0.8814508560       -2.2745293255
	 N           1.8591463431        0.8506810182       -0.6468797853
	 C          -0.5305026983        0.3440434481        0.5185626751
	 C          -0.7445855268        0.5614798811        3.1352960033
	 C           3.0673785479        3.2891475653       -0.1230569920
	 C          -2.6570601179       -0.2615167278       -0.9153923878
	 C          -3.0680642387        0.1848546881        4.3104159262
	 C          -5.1860114077       -0.4411423595        2.8831734912
	 C          -4.9678415429       -0.6714942519        0.2687662899
	 H           0.9087425751        1.0186767115        4.2485508077
	 H          -2.4831566465       -0.4582923822       -2.9385646345
	 C           5.5695738031       -0.1947693376       -3.1906508798
	 O           1.8947036116       -2.8635280241       -2.9127100615
	 H           3.7805452626        4.1311378013       -1.8639114653
	 H           1.6434092700        4.5480391914        0.6579410414
	 H           4.6203511036        3.1217642174        1.2283886917
	 H          -3.2105085232        0.3585048629        6.3433713996
	 H          -6.6007844109       -1.1618277067       -0.8588199839
	 H           5.4818800073        1.2636213776       -4.6496978656
	 H           6.7765755004        0.4787141379       -1.6616844672
	 H          -6.9870989611       -0.7560400304        3.7977783015
	 H           6.3931428727       -1.8877734239       -4.0098121377
	            -0.0031464628       -0.0091262707       -0.0062310035
	             0.0009818922        0.0017879801        0.0052058016
	             0.0007630609       -0.0015626599       -0.0005114742
	            -0.0002568772       -0.0006130554       -0.0014442938
	             0.0019028882        0.0002269803       -0.0012618546
	            -0.0007434121        0.0017990991        0.0026830362
	            -0.0005396012       -0.0000273734       -0.0019369994
	             0.0010133800        0.0003654387        0.0001151432
	             0.0002933370       -0.0000346027        0.0001005563
	            -0.0000037820        0.0003574855        0.0000386838
	            -0.0002551043       -0.0000137288       -0.0005386613
	            -0.0002121352        0.0043348723        0.0019740552
	             0.0023161105        0.0048199231        0.0014350213
	             0.0001509610       -0.0004280369       -0.0017833958
	            -0.0010231242       -0.0005959022       -0.0001844416
	            -0.0000021341       -0.0006277896        0.0001588710
	             0.0000969148        0.0000005103        0.0005078815
	            -0.0001451703       -0.0000366813       -0.0002192145
	            -0.0007098640        0.0001210762       -0.0003528040
	            -0.0001303719        0.0003162710        0.0014956504
	            -0.0003347256       -0.0001899879        0.0001676673
	            -0.0003421807       -0.0007308583        0.0006328939

	---Fragment 1 Intrafragment Coordinates---
	 - Coordinate -           - BOHR/RAD -       - ANG/DEG -
	 R(1,2)           =         2.617404	       1.385070
	 R(1,12)          =         2.854101	       1.510325
	 R(1,13)          =         2.336772	       1.236566
	 R(2,3)           =         2.706540	       1.432239
	 R(2,5)           =         2.771342	       1.466531
	 R(3,4)           =         2.634465	       1.394099
	 R(3,6)           =         2.635370	       1.394578
	 R(4,7)           =         2.630838	       1.392179
	 R(4,10)          =         2.044959	       1.082146
	 R(5,14)          =         2.061099	       1.090687
	 R(5,15)          =         2.054861	       1.087386
	 R(5,16)          =         2.065465	       1.092997
	 R(6,9)           =         2.628692	       1.391044
	 R(6,11)          =         2.040144	       1.079598
	 R(7,8)           =         2.629561	       1.391504
	 R(7,17)          =         2.045325	       1.082339
	 R(8,9)           =         2.633588	       1.393635
	 R(8,21)          =         2.044402	       1.081851
	 R(9,18)          =         2.044109	       1.081696
	 R(12,19)         =         2.064803	       1.092647
	 R(12,20)         =         2.061109	       1.090692
	 R(12,22)         =         2.053181	       1.086497
	 B(1,2,3)         =         2.110187	     120.904805
	 B(1,2,5)         =         2.114447	     121.148912
	 B(1,12,19)       =         1.936757	     110.968024
	 B(1,12,20)       =         1.957276	     112.143649
	 B(1,12,22)       =         1.872456	     107.283840
	 B(2,1,12)        =         2.008615	     115.085142
	 B(2,1,13)        =         2.142566	     122.760009
	 B(2,3,4)         =         2.076019	     118.947121
	 B(2,3,6)         =         2.119012	     121.410439
	 B(2,5,14)        =         1.929065	     110.527299
	 B(2,5,15)        =         1.884700	     107.985382
	 B(2,5,16)        =         1.960772	     112.343954
	 B(3,2,5)         =         2.058099	     117.920408
	 B(3,4,7)         =         2.098578	     120.239658
	 B(3,4,10)        =         2.086881	     119.569474
	 B(3,6,9)         =         2.094471	     120.004355
	 B(3,6,11)        =         2.086299	     119.536113
	 B(4,3,6)         =         2.087307	     119.593878
	 B(4,7,8)         =         2.097840	     120.197354
	 B(4,7,17)        =         2.086703	     119.559248
	 B(6,9,8)         =         2.101772	     120.422642
	 B(6,9,18)        =         2.084216	     119.416761
	 B(7,4,10)        =         2.097720	     120.190528
	 B(7,8,9)         =         2.086232	     119.532305
	 B(7,8,21)        =         2.098358	     120.227078
	 B(8,7,17)        =         2.098561	     120.238709
	 B(8,9,18)        =         2.097184	     120.159773
	 B(9,6,11)        =         2.102051	     120.438675
	 B(9,8,21)        =         2.098582	     120.239895
	 B(12,1,13)       =         2.131897	     122.148672
	 B(14,5,15)       =         1.886541	     108.090859
	 B(14,5,16)       =         1.902432	     109.001306
	 B(15,5,16)       =         1.898633	     108.783629
	 B(19,12,20)      =         1.894698	     108.558188
	 B(19,12,22)      =         1.893907	     108.512860
	 B(20,12,22)      =         1.907632	     109.299282
	*D(1,2,3,4)       =         2.226395	     127.563047
	 D(1,2,3,6)       =        -0.959622	     -54.982263
	 D(1,2,5,14)      =         0.759607	      43.522285
	 D(1,2,5,15)      =         2.819883	     161.567391
	 D(1,2,5,16)      =        -1.369538	     -78.468746
	 D(2,1,12,19)     =        -1.335092	     -76.495121
	 D(2,1,12,20)     =         0.787164	      45.101154
	 D(2,1,12,22)     =         2.881927	     165.122258
	 D(2,3,4,7)       =         3.094332	     177.292181
	 D(2,3,4,10)      =        -0.050954	      -2.919424
	 D(2,3,6,9)       =        -3.109049	    -178.135361
	 D(2,3,6,11)      =         0.061407	       3.518350
	*D(3,2,1,12)      =        -3.056256	    -175.110577
	 D(3,2,1,13)      =         0.069855	       4.002393
	 D(3,2,5,14)      =        -2.349974	    -134.643571
	 D(3,2,5,15)      =        -0.289698	     -16.598465
	 D(3,2,5,16)      =         1.804067	     103.365398
	 D(3,4,7,8)       =         0.013517	       0.774455
	 D(3,4,7,17)      =         3.141395	     179.988657
	 D(3,6,9,8)       =         0.018279	       1.047303
	 D(3,6,9,18)      =        -3.129068	    -179.282403
	 D(4,3,2,5)       =        -0.947127	     -54.266401
	 D(4,3,6,9)       =        -0.012162	      -0.696837
	 D(4,3,6,11)      =        -3.124892	    -179.043126
	 D(4,7,8,9)       =        -0.007462	      -0.427529
	 D(4,7,8,21)      =         3.128749	     179.264128
	 D(5,2,1,12)      =         0.118303	       6.778261
	 D(5,2,1,13)      =        -3.038771	    -174.108769
	 D(5,2,3,6)       =         2.150041	     123.188289
	 D(6,3,4,7)       =        -0.003659	      -0.209643
	 D(6,3,4,10)      =         3.134240	     179.578753
	 D(6,9,8,7)       =        -0.008426	      -0.482769
	 D(6,9,8,21)      =         3.138549	     179.825614
	 D(7,8,9,18)      =         3.138964	     179.849394
	 D(8,7,4,10)      =        -3.124360	    -179.012619
	 D(8,9,6,11)      =         3.130745	     179.378486
	 D(9,8,7,17)      =        -3.135246	    -179.636355
	 D(10,4,7,17)     =         0.003518	       0.201584
[...]
	 R(2,5)           =         2.769425	       1.465517
	 R(3,4)           =         2.638343	       1.396151
	 R(3,6)           =         2.637137	       1.395513
	 R(4,7)           =         2.631716	       1.392644
	 R(4,10)          =         2.044175	       1.081731
	 R(5,14)          =         2.056236	       1.088113
	 R(5,15)          =         2.053729	       1.086787
	 R(5,16)          =         2.066515	       1.093553
	 R(6,9)           =         2.628912	       1.391161
	 R(6,11)          =         2.037129	       1.078002
	 R(7,8)           =         2.631186	       1.392364
	 R(7,17)          =         2.043751	       1.081507
	 R(8,9)           =         2.634369	       1.394048
	 R(8,21)          =         2.043244	       1.081238
	 R(9,18)          =         2.043467	       1.081356
	 R(12,19)         =         2.063960	       1.092201
	 R(12,20)         =         2.061112	       1.090693
	 R(12,22)         =         2.050958	       1.085320
	 B(1,2,3)         =         2.102785	     120.480731
	 B(1,2,5)         =         2.120467	     121.493782
	 B(1,12,19)       =         1.942533	     111.298943
	 B(1,12,20)       =         1.961930	     112.410306
	 B(1,12,22)       =         1.873676	     107.353746
	 B(2,1,12)        =         2.040425	     116.907718
	 B(2,1,13)        =         2.133694	     122.251644
	 B(2,3,4)         =         2.085127	     119.468978
	 B(2,3,6)         =         2.108310	     120.797239
	 B(2,5,14)        =         1.932860	     110.744747
	 B(2,5,15)        =         1.895477	     108.602816
	 B(2,5,16)        =         1.961464	     112.383598
	 B(3,2,5)         =         2.051877	     117.563903
	 B(3,4,7)         =         2.097576	     120.182262
	 B(3,4,10)        =         2.091628	     119.841430
	 B(3,6,9)         =         2.091082	     119.810186
	 B(3,6,11)        =         2.086371	     119.540238
	 B(4,3,6)         =         2.089706	     119.731315
	 B(4,7,8)         =         2.096825	     120.139239
	 B(4,7,17)        =         2.088024	     119.634951
	 B(6,9,8)         =         2.104174	     120.560302
	 B(6,9,18)        =         2.083562	     119.379312
	 B(7,4,10)        =         2.093956	     119.974819
	 B(7,8,9)         =         2.086838	     119.566996
	 B(7,8,21)        =         2.097758	     120.192667
	 B(8,7,17)        =         2.098268	     120.221921
	 B(8,9,18)        =         2.095447	     120.060280
	 B(9,6,11)        =         2.105474	     120.634774
	 B(9,8,21)        =         2.098575	     120.239465
	 B(12,1,13)       =         2.109054	     120.839878
	 B(14,5,15)       =         1.881974	     107.829161
	 B(14,5,16)       =         1.895048	     108.578229
	 B(15,5,16)       =         1.895051	     108.578441
	 B(19,12,20)      =         1.883430	     107.912606
	 B(19,12,22)      =         1.894826	     108.565529
	 B(20,12,22)      =         1.906352	     109.225949
	*D(1,2,3,4)       =         2.226395	     127.563047
	 D(1,2,3,6)       =        -0.925200	     -53.010040
	 D(1,2,5,14)      =         0.797834	      45.712520
	 D(1,2,5,15)      =         2.861259	     163.938052
	 D(1,2,5,16)      =        -1.325013	     -75.917667
	 D(2,1,12,19)     =        -1.180125	     -67.616170
	 D(2,1,12,20)     =         0.935011	      53.572164
	 D(2,1,12,22)     =         3.031773	     173.707786
	 D(2,3,4,7)       =         3.113660	     178.399560
	 D(2,3,4,10)      =        -0.035681	      -2.044352
	 D(2,3,6,9)       =        -3.126121	    -179.113540
	 D(2,3,6,11)      =         0.039739	       2.276863
	*D(3,2,1,12)      =        -3.056256	    -175.110577
	 D(3,2,1,13)      =         0.090833	       5.204372
	 D(3,2,5,14)      =        -2.479234	    -142.049662
	 D(3,2,5,15)      =        -0.415810	     -23.824130
	 D(3,2,5,16)      =         1.681104	      96.320151
	 D(3,4,7,8)       =         0.016561	       0.948861
	 D(3,4,7,17)      =        -3.137523	    -179.766837
	 D(3,6,9,8)       =         0.008689	       0.497843
	 D(3,6,9,18)      =        -3.134970	    -179.620564
	 D(4,3,2,5)       =        -0.781162	     -44.757258
	 D(4,3,6,9)       =         0.005443	       0.311881
	 D(4,3,6,11)      =        -3.111882	    -178.297717
	 D(4,7,8,9)       =        -0.002437	      -0.139623
	 D(4,7,8,21)      =         3.133241	     179.521476
	 D(5,2,1,12)      =        -0.054046	      -3.096621
	 D(5,2,1,13)      =         3.093043	     177.218328
	 D(5,2,3,6)       =         2.350429	     134.669656
	 D(6,3,4,7)       =        -0.018039	      -1.033542
	 D(6,3,4,10)      =         3.115806	     178.522547
	 D(6,9,8,7)       =        -0.010210	      -0.584999
	 D(6,9,8,21)      =         3.137300	     179.754064
	 D(7,8,9,18)      =         3.133463	     179.534214
	 D(8,7,4,10)      =        -3.117274	    -178.606633
	 D(8,9,6,11)      =         3.125744	     179.091962
	 D(9,8,7,17)      =        -3.131464	    -179.419692
	 D(10,4,7,17)     =         0.011828	       0.677669
	 D(11,6,9,18)     =        -0.017915	      -1.026444
	 D(13,1,12,19)    =         1.956053	     112.073609
	 D(13,1,12,20)    =        -2.211996	    -126.738057
	 D(13,1,12,22)    =        -0.115234	      -6.602434
	 D(17,7,8,21)     =         0.004213	       0.241407
	 D(18,9,8,21)     =        -0.002212	      -0.126724
	 R(6,13)          =         5.486670	       2.903421

	Current energy   :      -479.3818838716

	Energy change for the previous step:
		Projected    :        -0.0000068348
		Actual       :        -0.0000082432

	Performing BFGS update.
	Previous computed or guess Hessian on step 1.
	Steps to be used in Hessian update: 4 3
	Taking RFO optimization step.
	Going to follow RFO solution 1.
	Using RFO vector 1.
	Norm of target step-size    0.00705
	Projected energy change by RFO approximation:        -0.0000044952

	Back-transformation to cartesian coordinates...
	Could not converge backtransformation.
	Using first guess instead.

	Back-transformation to cartesian coordinates to adjust frozen coordinates...
	Successfully converged to displaced geometry.

	--- Internal Coordinate Step in ANG or DEG, aJ/ANG or AJ/DEG ---
	 ---------------------------------------------------------------------------
	   Coordinate                Previous        Force       Change         New 
	   ----------                --------       ------       ------       ------
	    1 R(1,2)          =      1.382202     0.002282     0.000247     1.382449
	    2 R(1,12)         =      1.509487     0.001280     0.000213     1.509701
	    3 R(1,13)         =      1.242156     0.001142     0.000089     1.242245
	    4 R(2,3)          =      1.433532     0.001366     0.000161     1.433693
	    5 R(2,5)          =      1.465517     0.000691     0.000082     1.465598
	    6 R(3,4)          =      1.396151     0.001926     0.000219     1.396370
	    7 R(3,6)          =      1.395513     0.001410     0.000159     1.395671
	    8 R(4,7)          =      1.392644     0.000877     0.000109     1.392753
	    9 R(4,10)         =      1.081731     0.000142     0.000010     1.081740
	   10 R(5,14)         =      1.088113     0.000612     0.000054     1.088167
	   11 R(5,15)         =      1.086787     0.000789     0.000141     1.086928
	   12 R(5,16)         =      1.093553     0.000257     0.000018     1.093570
	   13 R(6,9)          =      1.391161     0.000208     0.000011     1.391172
	   14 R(6,11)         =      1.078002     0.000254     0.000027     1.078029
	   15 R(7,8)          =      1.392364     0.000289     0.000013     1.392377
	   16 R(7,17)         =      1.081507     0.000304     0.000045     1.081551
	   17 R(8,9)          =      1.394048     0.001105     0.000126     1.394174
	   18 R(8,21)         =      1.081238     0.000230     0.000031     1.081268
	   19 R(9,18)         =      1.081356     0.000142     0.000015     1.081371
	   20 R(12,19)        =      1.092201     0.000274     0.000031     1.092231
	   21 R(12,20)        =      1.090693    -0.000424    -0.000066     1.090628
	   22 R(12,22)        =      1.085320     0.000203     0.000024     1.085345
	   23 B(1,2,3)        =    120.480731    -0.000006    -0.029988   120.450744
	   24 B(1,2,5)        =    121.493782    -0.000007    -0.015084   121.478698
	   25 B(1,12,19)      =    111.298943     0.000003     0.011367   111.310310
	   26 B(1,12,20)      =    112.410306    -0.000007    -0.024509   112.385797
	   27 B(1,12,22)      =    107.353746     0.000003     0.011623   107.365369
	   28 B(2,1,12)       =    116.907718    -0.000007    -0.013088   116.894631
	   29 B(2,1,13)       =    122.251644    -0.000001    -0.008946   122.242698
	   30 B(2,3,4)        =    119.468978     0.000016     0.047452   119.516430
	   31 B(2,3,6)        =    120.797239    -0.000010    -0.034050   120.763189
	   32 B(2,5,14)       =    110.744747     0.000002     0.004184   110.748931
	   33 B(2,5,15)       =    108.602816     0.000006     0.030822   108.633639
	   34 B(2,5,16)       =    112.383598    -0.000005    -0.023501   112.360097
	   35 B(3,2,5)        =    117.563903     0.000013     0.031557   117.595460
	   36 B(3,4,7)        =    120.182262     0.000002     0.006554   120.188816
	   37 B(3,4,10)       =    119.841430     0.000006     0.025906   119.867337
	   38 B(3,6,9)        =    119.810186     0.000002     0.005592   119.815778
	   39 B(3,6,11)       =    119.540238     0.000001     0.006001   119.546240
	   40 B(4,3,6)        =    119.731315    -0.000006    -0.014185   119.717130
	   41 B(4,7,8)        =    120.139239     0.000000     0.000818   120.140058
	   42 B(4,7,17)       =    119.634951    -0.000001    -0.004945   119.630006
	   43 B(6,9,8)        =    120.560302     0.000002     0.004957   120.565259
	   44 B(6,9,18)       =    119.379312    -0.000002    -0.005346   119.373966
	   45 B(7,4,10)       =    119.974819    -0.000007    -0.032750   119.942070
	   46 B(7,8,9)        =    119.566996     0.000000    -0.002774   119.564221
	   47 B(7,8,21)       =    120.192667     0.000000     0.001351   120.194018
	   48 B(8,7,17)       =    120.221921     0.000001     0.004134   120.226055
	   49 B(8,9,18)       =    120.060280    -0.000000     0.000363   120.060643
	   50 B(9,6,11)       =    120.634774    -0.000003    -0.010882   120.623893
	   51 B(9,8,21)       =    120.239465    -0.000000     0.001606   120.241070
	   52 B(12,1,13)      =    120.839878     0.000007     0.021945   120.861823
	   53 B(14,5,15)      =    107.829161    -0.000003    -0.003959   107.825201
	   54 B(14,5,16)      =    108.578229    -0.000001    -0.018426   108.559803
	   55 B(15,5,16)      =    108.578441     0.000001     0.011789   108.590230
	   56 B(19,12,20)     =    107.912606     0.000002     0.009073   107.921679
	   57 B(19,12,22)     =    108.565529    -0.000001     0.004690   108.570219
	   58 B(20,12,22)     =    109.225949    -0.000001    -0.011999   109.213949
	   59 *D(1,2,3,4)     =    127.563047     0.000000     0.000000   127.563047
	   60 D(1,2,3,6)      =    -53.010040    -0.000001    -0.084743   -53.094783
	   61 D(1,2,5,14)     =     45.712520    -0.000000     0.131763    45.844283
	   62 D(1,2,5,15)     =    163.938052     0.000000     0.148215   164.086267
	   63 D(1,2,5,16)     =    -75.917667     0.000001     0.168890   -75.748777
	   64 D(2,1,12,19)    =    -67.616170     0.000000    -0.009419   -67.625589
	   65 D(2,1,12,20)    =     53.572164     0.000000    -0.006831    53.565332
	   66 D(2,1,12,22)    =    173.707786    -0.000001    -0.028749   173.679037
	   67 D(2,3,4,7)      =    178.399560    -0.000000    -0.017823   178.381737
	   68 D(2,3,4,10)     =     -2.044352    -0.000000    -0.059221    -2.103573
	   69 D(2,3,6,9)      =   -179.113540     0.000000     0.039929  -179.073611
	   70 D(2,3,6,11)     =      2.276863     0.000000     0.006254     2.283117
	   71 *D(3,2,1,12)    =   -175.110577    -0.000000     0.000000  -175.110577
	   72 D(3,2,1,13)     =      5.204372    -0.000000     0.017730     5.222102
	   73 D(3,2,5,14)     =   -142.049662    -0.000001     0.017334  -142.032328
	   74 D(3,2,5,15)     =    -23.824130    -0.000000     0.033785   -23.790345
	   75 D(3,2,5,16)     =     96.320151     0.000000     0.054460    96.374611
	   76 D(3,4,7,8)      =      0.948861    -0.000000    -0.037378     0.911483
	   77 D(3,4,7,17)     =   -179.766837    -0.000000    -0.036647  -179.803484
	   78 D(3,6,9,8)      =      0.497843    -0.000000    -0.005531     0.492311
	   79 D(3,6,9,18)     =   -179.620564    -0.000000    -0.019443  -179.640006
	   80 D(4,3,2,5)      =    -44.757258     0.000000     0.112049   -44.645209
	   81 D(4,3,6,9)      =      0.311881    -0.000000    -0.044632     0.267248
	   82 D(4,3,6,11)     =   -178.297717    -0.000001    -0.078307  -178.376024
	   83 D(4,7,8,9)      =     -0.139623    -0.000000    -0.012728    -0.152351
	   84 D(4,7,8,21)     =    179.521476     0.000000     0.024653   179.546128
	   85 D(5,2,1,12)     =     -3.096621    -0.000000    -0.112916    -3.209537
	   86 D(5,2,1,13)     =    177.218328    -0.000000    -0.095186   177.123142
	   87 D(5,2,3,6)      =    134.669656    -0.000000     0.027306   134.696961
	   88 D(6,3,4,7)      =     -1.033542     0.000000     0.066143    -0.967398
	   89 D(6,3,4,10)     =    178.522547     0.000000     0.024745   178.547292
	   90 D(6,9,8,7)      =     -0.584999     0.000000     0.034264    -0.550734
	   91 D(6,9,8,21)     =    179.754064    -0.000000    -0.003133   179.750931
	   92 D(7,8,9,18)     =    179.534214     0.000000     0.048278   179.582491
	   93 D(8,7,4,10)     =   -178.606633     0.000000     0.003790  -178.602844
	   94 D(8,9,6,11)     =    179.091962     0.000000     0.028754   179.120716
	   95 D(9,8,7,17)     =   -179.419692    -0.000000    -0.013397  -179.433089
	   96 D(10,4,7,17)    =      0.677669     0.000000     0.004520     0.682189
	   97 D(11,6,9,18)    =     -1.026444     0.000000     0.014843    -1.011602
	   98 D(13,1,12,19)   =    112.073609     0.000000    -0.026989   112.046620
	   99 D(13,1,12,20)   =   -126.738057     0.000000    -0.024402  -126.762459
	  100 D(13,1,12,22)   =     -6.602434    -0.000000    -0.046320    -6.648754
	  101 D(17,7,8,21)    =      0.241407     0.000000     0.023983     0.265390
	  102 D(18,9,8,21)    =     -0.126724     0.000000     0.010881    -0.115843
	  103 R(6,13)         =      2.903421    -0.000194    -0.000288     2.903132
	 ---------------------------------------------------------------------------
	Successfully symmetrized geometry.

  ==> Convergence Check <==

  Measures of convergence in internal coordinates in au.
  Criteria marked as inactive (o), active & met (*), and active & unmet ( ).
  ---------------------------------------------------------------------------------------------
   Step     Total Energy     Delta E     MAX Force     RMS Force      MAX Disp      RMS Disp   
  ---------------------------------------------------------------------------------------------
    Convergence Criteria             o    2.50e-03 *    1.70e-03 *    1.00e-02 *    6.70e-03 *
  ---------------------------------------------------------------------------------------------
      5    -479.38188387   -8.24e-06 o    2.77e-04 *    6.81e-05 *    2.95e-03 *    6.95e-04 *  ~
  ---------------------------------------------------------------------------------------------


  **** Optimization is complete! (in 5 steps) ****

  ==> Optimization Summary <==

  Measures of convergence in internal coordinates in au.
  --------------------------------------------------------------------------------------------------------------- ~
   Step         Total Energy             Delta E       MAX Force       RMS Force        MAX Disp        RMS Disp  ~
  --------------------------------------------------------------------------------------------------------------- ~
      1    -479.381562109370   -479.381562109370      0.00384169      0.00098027      0.09310557      0.01968658  ~
      2    -479.381596946580     -0.000034837210      0.00273886      0.00071335      0.07054199      0.01670200  ~
      3    -479.381826648901     -0.000229702321      0.00299240      0.00055557      0.03303575      0.00732334  ~
      4    -479.381875628410     -0.000048979509      0.00130159      0.00020278      0.01665841      0.00424413  ~
      5    -479.381883871567     -0.000008243157      0.00027703      0.00006806      0.00294769      0.00069475  ~
  --------------------------------------------------------------------------------------------------------------- ~

	Writing optimization data to binary file.
	Final energy is   -479.3818838715674
	Final (previous) structure:
	Cartesian Geometry (in Angstrom)
	    C     1.4873411734  -0.3442847841  -1.3149892260
	    N     0.9886630521   0.4820317792  -0.3255426054
	    C    -0.2673762821   0.1903583278   0.3008011074
	    C    -0.3423638307   0.1283908880   1.6935588306
	    C     1.7897957229   1.5727487023   0.2368290247
	    C    -1.4154478688  -0.0200060640  -0.4641392473
	    C    -1.5616003333  -0.1208850909   2.3186837071
	    C    -2.7082276916  -0.3291307165   1.5567414795
	    C    -2.6275244876  -0.2834398357   0.1657818168
	    H     0.5510185605   0.2674223604   2.2874274448
	    H    -1.3486470244   0.0012230886  -1.5398603928
	    C     2.8667157823  -0.0266250539  -1.8393647941
	    O     0.8400281604  -1.3037581694  -1.7659305264
	    H     2.2799264747   2.1379811970  -0.5532813537
	    H     1.1276434984   2.2504587794   0.7691529072
	    H     2.5528670121   1.2130303139   0.9326611984
	    H    -1.6102509498  -0.1632546987   3.3982644002
	    H    -3.5115388265  -0.4514825530  -0.4338940323
	    H     2.8740839687   0.9160226775  -2.3909651140
	    H     3.6081128804   0.0451193626  -1.0426243703
	    H    -3.6537732194  -0.5303924118   2.0410067061
	    H     3.1472301679  -0.8261005356  -2.5176502256
	Saving final (previous) structure.
	Cleaning optimization helper files.
			--------------------------
			 OPTKING Finished Execution 
			--------------------------

    Final optimized geometry and variables:
    Molecular point group: c1
    Full point group: C1

    Geometry (in Angstrom), charge = 0, multiplicity = 1:

    C            1.487341179211    -0.344284785484    -1.314989231147
    N            0.988663055938     0.482031781096    -0.325542606685
    C           -0.267376283117     0.190358328525     0.300801108552
    C           -0.342363832049     0.128390888508     1.693558837297
    C            1.789795729969     1.572748708492     0.236829025656
    C           -1.415447874386    -0.020006064072    -0.464139249110
    C           -1.561600339427    -0.120885091418     2.318683716171
    C           -2.708227702271    -0.329130717793     1.556741485616
    C           -2.627524497918    -0.283439836807     0.165781817435
    H            0.551018562704     0.267422361452     2.287427453742
    H           -1.348647029687     0.001223088614    -1.539860398803
    C            2.866715793543    -0.026625053982    -1.839364801319
    O            0.840028163704    -1.303758174568    -1.765930533339
    H            2.279926483653     2.137981205358    -0.553281355916
    H            1.127643502865     2.250458788203     0.769152910261
    H            2.552867022178     1.213030318707     0.932661202059
    H           -1.610250956137    -0.163254699308     3.398264413536
    H           -3.511538840342    -0.451482554795    -0.433894034019
    H            2.874083979973     0.916022681111    -2.390965123436
    H            3.608112894626     0.045119362741    -1.042624374432
    H           -3.653773233766    -0.530392413867     2.041006714107
    H            3.147230180293    -0.826100538841    -2.517650235539

	Removing binary optimization data file.
	Cleaning optimization helper files.

    Psi4 stopped on: Wednesday, 08 June 2022 12:10PM
    Psi4 wall time for execution: 0:08:11.02

*** Psi4 exiting successfully. Buy a developer a beer!
