
    -----------------------------------------------------------------------
          Psi4: An Open-Source Ab Initio Electronic Structure Package
                               Psi4 1.5 release

                         Git: Rev {HEAD} e9f4d6d 


    D. G. A. Smith, L. A. Burns, A. C. Simmonett, R. M. Parrish,
    M. C. Schieber, R. Galvelis, P. Kraus, H. Kruse, R. Di Remigio,
    A. Alenaizan, A. M. James, S. Lehtola, J. P. Misiewicz, M. Scheurer,
    R. A. Shaw, J. B. Schriber, Y. Xie, Z. L. Glick, D. A. Sirianni,
    J. S. O'Brien, J. M. Waldrop, A. Kumar, E. G. Hohenstein,
    B. P. Pritchard, B. R. Brooks, H. F. Schaefer III, A. Yu. Sokolov,
    K. Patkowski, A. E. DePrince III, U. Bozkaya, R. A. King,
    F. A. Evangelista, J. M. Turney, T. D. Crawford, C. D. Sherrill,
    J. Chem. Phys. 152(18) 184108 (2020). https://doi.org/10.1063/5.0006002

                            Additional Code Authors
    E. T. Seidl, C. L. Janssen, E. F. Valeev, M. L. Leininger,
    J. F. Gonthier, R. M. Richard, H. R. McAlexander, M. Saitow, X. Wang,
    P. Verma, M. H. Lechner, and A. Jiang

             Previous Authors, Complete List of Code Contributors,
                       and Citations for Specific Modules
    https://github.com/psi4/psi4/blob/master/codemeta.json
    https://github.com/psi4/psi4/graphs/contributors
    http://psicode.org/psi4manual/master/introduction.html#citing-psifour

    -----------------------------------------------------------------------


    Psi4 started on: Wednesday, 08 June 2022 11:37AM

    Process ID: 1096737
    Host:       node74.bme.utexas.edu
    PSIDATADIR: /home/bdw2292/miniconda3/envs/newamoebamdpoltype/share/psi4
    Memory:     500.0 MiB
    Threads:    1
    
  ==> Input File <==

--------------------------------------------------------------------------
molecule { 
0 1
 C    1.839817   -0.707381   -0.683703
 N    0.870799    0.331640   -0.707318
 C   -0.429797    0.150905   -0.092297
 C   -0.588560   -0.547982    1.136561
 C    1.199747    1.697587   -1.195746
 C   -1.597542    0.637524   -0.743233
 C   -1.861651   -0.726444    1.694889
 C   -2.999650   -0.226110    1.051426
 C   -2.861714    0.451332   -0.165656
 H    0.281185   -0.953723    1.654058
 H   -1.525510    1.156520   -1.701313
 C    3.226933   -0.398748   -1.257923
 O    1.610829   -1.814804   -0.199616
 H    1.164266    1.724729   -2.285851
 H    0.492313    2.433630   -0.810671
 H    2.189294    2.011671   -0.863420
 H   -1.960665   -1.259024    2.642465
 H   -3.744101    0.841578   -0.676412
 H    3.163547    0.084934   -2.232707
 H    3.795511    0.229865   -0.572486
 H   -3.987539   -0.366080    1.494274
 H    3.779168   -1.330321   -1.389058
}
set optking { 
  frozen_dihedral = ("
    1 2 3 4
    12 1 2 3
  ")
}
set {
  geom_maxiter 400
  g_convergence GAU_LOOSE
  dynamic_level 1
}
memory 8.166666666666666GB
set_num_threads(2)
psi4_io.set_default_path("/scratch/bdw2292/Psi4-3_24_Index_0-farH_in17")
for _ in range(1):
  try:
    set opt_coordinates both
    optimize('wb97x-d/6-311G')
    break
  except OptimizationConvergenceError:
    break
  else:
    try:
      set opt_coordinates cartesian
      optimize('wb97x-d/6-311G')
      break
    except OptimizationConvergenceError:
      pass
clean()
--------------------------------------------------------------------------

  Memory set to   7.606 GiB by Python driver.
  Threads set to 2 by Python driver.

Scratch directory: /scratch/bdw2292/Psi4-3_24_Index_0-farH_in17/

Scratch directory: /scratch/bdw2292/Psi4-3_24_Index_0-farH_in17/
gradient() will perform analytic gradient computation.

*** tstart() called on node74.bme.utexas.edu
*** at Wed Jun  8 11:37:41 2022

   => Loading Basis Set <=

    Name: 6-311G
    Role: ORBITAL
    Keyword: BASIS
    atoms 1, 3-9, 12   entry C          line    92 file /home/bdw2292/miniconda3/envs/newamoebamdpoltype/share/psi4/basis/6-311g.gbs 
    atoms 2            entry N          line   109 file /home/bdw2292/miniconda3/envs/newamoebamdpoltype/share/psi4/basis/6-311g.gbs 
    atoms 10-11, 14-22 entry H          line    21 file /home/bdw2292/miniconda3/envs/newamoebamdpoltype/share/psi4/basis/6-311g.gbs 
    atoms 13           entry O          line   126 file /home/bdw2292/miniconda3/envs/newamoebamdpoltype/share/psi4/basis/6-311g.gbs 

   => WB97X-D: Empirical Dispersion <=

    Chai and Head-Gordon Dispersion Correction
    Chai, J.-D.; Head-Gordon, M. (2010), J. Chem. Phys., 132: 6615-6620

        s6 =       1.000000


         ---------------------------------------------------------
                                   SCF
               by Justin Turney, Rob Parrish, Andy Simmonett
                          and Daniel G. A. Smith
                              RKS Reference
                        2 Threads,   7788 MiB Core
         ---------------------------------------------------------

  ==> Geometry <==

    Molecular point group: c1
    Full point group: C1

    Geometry (in Angstrom), charge = 0, multiplicity = 1:

       Center              X                  Y                   Z               Mass       
    ------------   -----------------  -----------------  -----------------  -----------------
         C            1.888340350402    -0.601361012494    -0.543219362507    12.000000000000
         N            0.919322350402     0.437659987506    -0.566834362507    14.003074004430
         C           -0.381273649598     0.256924987506     0.048186637493    12.000000000000
         C           -0.540036649598    -0.441962012494     1.277044637493    12.000000000000
         C            1.248270350402     1.803606987506    -1.055262362507    12.000000000000
         C           -1.549018649598     0.743543987506    -0.602749362507    12.000000000000
         C           -1.813127649598    -0.620424012494     1.835372637493    12.000000000000
         C           -2.951126649598    -0.120090012494     1.191909637493    12.000000000000
         C           -2.813190649598     0.557351987506    -0.025172362507    12.000000000000
         H            0.329708350402    -0.847703012494     1.794541637493     1.007825032230
         H           -1.476986649598     1.262539987506    -1.560829362507     1.007825032230
         C            3.275456350402    -0.292728012494    -1.117439362507    12.000000000000
         O            1.659352350402    -1.708784012494    -0.059132362507    15.994914619570
         H            1.212789350402     1.830748987506    -2.145367362507     1.007825032230
         H            0.540836350402     2.539649987506    -0.670187362507     1.007825032230
         H            2.237817350402     2.117690987506    -0.722936362507     1.007825032230
         H           -1.912141649598    -1.153004012494     2.782948637493     1.007825032230
         H           -3.695577649598     0.947597987506    -0.535928362507     1.007825032230
         H            3.212070350402     0.190953987506    -2.092223362507     1.007825032230
         H            3.844034350402     0.335884987506    -0.432002362507     1.007825032230
         H           -3.939015649598    -0.260060012494     1.634757637493     1.007825032230
         H            3.827691350402    -1.224301012494    -1.248574362507     1.007825032230

  Running in c1 symmetry.

  Rotational constants: A =      0.07936  B =      0.02412  C =      0.01985 [cm^-1]
  Rotational constants: A =   2379.12899  B =    723.20217  C =    595.02109 [MHz]
  Nuclear repulsion =  581.454937405156102

  Charge       = 0
  Multiplicity = 1
  Electrons    = 80
  Nalpha       = 40
  Nbeta        = 40

  ==> Algorithm <==

  SCF Algorithm Type is DF.
  DIIS enabled.
  MOM disabled.
  Fractional occupation disabled.
  Guess Type is SAD.
  Energy threshold   = 1.00e-08
  Density threshold  = 1.00e-08
  Integral threshold = 1.00e-12

  ==> Primary Basis <==

  Basis Set: 6-311G
    Blend: 6-311G
    Number of shells: 110
    Number of basis functions: 176
    Number of Cartesian functions: 176
    Spherical Harmonics?: true
    Max angular momentum: 1

  ==> DFT Potential <==

   => LibXC <=

    Version 5.1.5
    S. Lehtola, C. Steigemann, M. J. Oliveira, and M. A. Marques, SoftwareX 7, 1 (2018) (10.1016/j.softx.2017.11.002)

   => Composite Functional: WB97X-D <= 

    wB97X-D Hyb-GGA Exchange-Correlation Functional

    J.-D. Chai and M. Head-Gordon, Phys. Chem. Chem. Phys. 10, 6615 (2008) (10.1039/B810189B)

    Deriv               =              1
    GGA                 =           TRUE
    Meta                =          FALSE

    Exchange Hybrid     =           TRUE
    MP2 Hybrid          =          FALSE

   => Exchange-Correlation Functionals <=

    1.0000   wB97X-D range-separated functional

   => Exact (HF) Exchange <=

    0.7780            HF,LR [omega = 0.2000]
    0.2220               HF 

   => LibXC Density Thresholds  <==

    XC_HYB_GGA_XC_WB97X_D:  1.00E-14 

   => Molecular Quadrature <=

    Radial Scheme          =       TREUTLER
    Pruning Scheme         =           NONE
    Nuclear Scheme         =       TREUTLER

    BS radius alpha        =              1
    Pruning alpha          =              1
    Radial Points          =             75
    Spherical Points       =            302
    Total Points           =         460453
    Total Blocks           =           3376
    Max Points             =            256
    Max Functions          =            156
    Weights Tolerance      =       1.00E-15

   => Loading Basis Set <=

    Name: (6-311G AUX)
    Role: JKFIT
    Keyword: DF_BASIS_SCF
    atoms 1, 3-9, 12   entry C          line   125 file /home/bdw2292/miniconda3/envs/newamoebamdpoltype/share/psi4/basis/cc-pvtz-jkfit.gbs 
    atoms 2            entry N          line   177 file /home/bdw2292/miniconda3/envs/newamoebamdpoltype/share/psi4/basis/cc-pvtz-jkfit.gbs 
    atoms 10-11, 14-22 entry H          line    51 file /home/bdw2292/miniconda3/envs/newamoebamdpoltype/share/psi4/basis/cc-pvtz-jkfit.gbs 
    atoms 13           entry O          line   229 file /home/bdw2292/miniconda3/envs/newamoebamdpoltype/share/psi4/basis/cc-pvtz-jkfit.gbs 

  ==> Integral Setup <==

  DFHelper Memory: AOs need 0.745 GiB; user supplied 4.285 GiB. Using in-core AOs.

  ==> MemDFJK: Density-Fitted J/K Matrices <==

    J tasked:                   Yes
    K tasked:                   Yes
    wK tasked:                  Yes
    Omega:                2.000E-01
    OpenMP threads:               2
    Memory [MiB]:              4387
    Algorithm:                 Core
    Schwarz Cutoff:           1E-12
    Mask sparsity (%):      12.3192
    Fitting Condition:        1E-10

   => Auxiliary Basis Set <=

  Basis Set: (6-311G AUX)
    Blend: CC-PVTZ-JKFIT
    Number of shells: 385
    Number of basis functions: 1199
    Number of Cartesian functions: 1441
    Spherical Harmonics?: true
    Max angular momentum: 4

  Cached 100.0% of DFT collocation blocks in 1.420 [GiB].

  Minimum eigenvalue in the overlap matrix is 2.7606349095E-04.
  Reciprocal condition number of the overlap matrix is 4.1524444209E-05.
    Using symmetric orthogonalization.

  ==> Pre-Iterations <==

  SCF Guess: Superposition of Atomic Densities via on-the-fly atomic UHF (no occupation information).

   -------------------------
    Irrep   Nso     Nmo    
   -------------------------
     A        176     176 
   -------------------------
    Total     176     176
   -------------------------

  ==> Iterations <==

                           Total Energy        Delta E     RMS |[F,P]|

   @DF-RKS iter SAD:  -478.42132870260360   -4.78421e+02   0.00000e+00 
   @DF-RKS iter   1:  -478.97105206636610   -5.49723e-01   5.23789e-03 DIIS
   @DF-RKS iter   2:  -479.03947083825693   -6.84188e-02   5.29393e-03 DIIS
   @DF-RKS iter   3:  -479.34948970088885   -3.10019e-01   1.46901e-03 DIIS
   @DF-RKS iter   4:  -479.37508990603209   -2.56002e-02   2.40042e-04 DIIS
   @DF-RKS iter   5:  -479.37581129827322   -7.21392e-04   9.63890e-05 DIIS
   @DF-RKS iter   6:  -479.37593733812076   -1.26040e-04   2.31767e-05 DIIS
   @DF-RKS iter   7:  -479.37594530573131   -7.96761e-06   7.19862e-06 DIIS
   @DF-RKS iter   8:  -479.37594638893654   -1.08321e-06   2.10982e-06 DIIS
   @DF-RKS iter   9:  -479.37594650724202   -1.18305e-07   1.02593e-06 DIIS
   @DF-RKS iter  10:  -479.37594653348083   -2.62388e-08   2.68753e-07 DIIS
   @DF-RKS iter  11:  -479.37594653632237   -2.84155e-09   1.10977e-07 DIIS
   @DF-RKS iter  12:  -479.37594653663314   -3.10763e-10   3.10521e-08 DIIS
   @DF-RKS iter  13:  -479.37594653668594   -5.28075e-11   8.62298e-09 DIIS
  Energy and wave function converged.


  ==> Post-Iterations <==

   Electrons on quadrature grid:
      Ntotal   =   79.9999464386 ; deviation = -5.356e-05 

    Orbital Energies [Eh]
    ---------------------

    Doubly Occupied:                                                      

       1A    -19.216927     2A    -14.480143     3A    -10.408959  
       4A    -10.344952     5A    -10.332244     6A    -10.299902  
       7A    -10.296765     8A    -10.295946     9A    -10.294235  
      10A    -10.293672    11A    -10.292426    12A     -1.157071  
      13A     -1.043549    14A     -0.954796    15A     -0.864618  
      16A     -0.851546    17A     -0.836961    18A     -0.807442  
      19A     -0.720640    20A     -0.702666    21A     -0.652540  
      22A     -0.604596    23A     -0.582497    24A     -0.571651  
      25A     -0.568726    26A     -0.537049    27A     -0.535883  
      28A     -0.520769    29A     -0.510726    30A     -0.497318  
      31A     -0.496483    32A     -0.483874    33A     -0.462036  
      34A     -0.449128    35A     -0.442552    36A     -0.431825  
      37A     -0.362389    38A     -0.340619    39A     -0.326835  
      40A     -0.297960  

    Virtual:                                                              

      41A      0.051365    42A      0.063611    43A      0.096474  
      44A      0.108450    45A      0.130512    46A      0.146848  
      47A      0.162499    48A      0.166732    49A      0.172427  
      50A      0.181544    51A      0.193889    52A      0.202635  
      53A      0.220426    54A      0.221021    55A      0.233375  
      56A      0.240190    57A      0.260412    58A      0.303897  
      59A      0.336167    60A      0.339187    61A      0.355906  
      62A      0.364652    63A      0.371540    64A      0.386617  
      65A      0.397620    66A      0.414523    67A      0.419384  
      68A      0.449381    69A      0.461427    70A      0.480309  
      71A      0.489722    72A      0.491699    73A      0.497804  
      74A      0.511115    75A      0.518453    76A      0.523999  
      77A      0.548744    78A      0.555258    79A      0.560108  
      80A      0.581004    81A      0.589096    82A      0.599592  
      83A      0.622312    84A      0.635985    85A      0.642695  
      86A      0.645521    87A      0.650678    88A      0.666643  
      89A      0.671880    90A      0.685888    91A      0.690140  
      92A      0.694136    93A      0.704772    94A      0.708037  
      95A      0.728201    96A      0.737295    97A      0.753860  
      98A      0.759615    99A      0.767357   100A      0.813948  
     101A      0.852532   102A      0.858094   103A      0.874608  
     104A      0.888820   105A      0.895580   106A      0.913316  
     107A      0.934000   108A      0.952026   109A      0.964789  
     110A      0.988644   111A      1.015734   112A      1.048602  
     113A      1.063652   114A      1.099572   115A      1.127987  
     116A      1.186616   117A      1.237281   118A      1.277178  
     119A      1.357365   120A      1.479568   121A      1.708644  
     122A      2.275123   123A      2.300560   124A      2.327959  
     125A      2.328472   126A      2.348757   127A      2.364808  
     128A      2.383132   129A      2.390064   130A      2.434161  
     131A      2.457046   132A      2.626379   133A      2.635181  
     134A      2.663226   135A      2.672180   136A      2.690967  
     137A      2.781344   138A      2.784196   139A      2.836398  
     140A      2.843300   141A      2.873712   142A      2.904407  
     143A      2.915287   144A      2.925678   145A      2.967087  
     146A      3.010207   147A      3.012717   148A      3.066780  
     149A      3.080173   150A      3.128006   151A      3.153666  
     152A      3.175290   153A      3.220208   154A      3.251604  
     155A      3.291308   156A      3.321417   157A      3.350876  
     158A      3.360157   159A      3.507013   160A      3.919872  
     161A      4.145765   162A      4.229334   163A      4.985154  
     164A      5.065830   165A      5.106279   166A     23.239508  
     167A     23.420036   168A     23.477091   169A     23.492312  
     170A     23.538976   171A     23.618486   172A     23.718363  
     173A     23.754556   174A     23.990218   175A     35.544501  
     176A     50.038999  

    Final Occupation by Irrep:
              A 
    DOCC [    40 ]

  @DF-RKS Final Energy:  -479.37594653668594

   => Energetics <=

    Nuclear Repulsion Energy =            581.4549374051561017
    One-Electron Energy =               -1801.4174408236322051
    Two-Electron Energy =                 787.5952450828198153
    DFT Exchange-Correlation Energy =     -46.9960769909990930
    Empirical Dispersion Energy =          -0.0126112100307542
    VV10 Nonlocal Energy =                  0.0000000000000000
    Total Energy =                       -479.3759465366860013

Computation Completed


Properties will be evaluated at   0.000000,   0.000000,   0.000000 [a0]

Properties computed using the SCF density matrix

  Nuclear Dipole Moment: [e a0]
     X:     3.9251      Y:     5.3716      Z:    -2.9946

  Electronic Dipole Moment: [e a0]
     X:    -3.6830      Y:    -3.8800      Z:     2.5699

  Dipole Moment: [e a0]
     X:     0.2421      Y:     1.4916      Z:    -0.4247     Total:     1.5697

  Dipole Moment: [D]
     X:     0.6154      Y:     3.7913      Z:    -1.0794     Total:     3.9897


*** tstop() called on node74.bme.utexas.edu at Wed Jun  8 11:38:17 2022
Module time:
	user time   =      68.29 seconds =       1.14 minutes
	system time =       3.88 seconds =       0.06 minutes
	total time  =         36 seconds =       0.60 minutes
Total time:
	user time   =      68.29 seconds =       1.14 minutes
	system time =       3.88 seconds =       0.06 minutes
	total time  =         36 seconds =       0.60 minutes

*** tstart() called on node74.bme.utexas.edu
*** at Wed Jun  8 11:38:17 2022


         ------------------------------------------------------------
                                   SCF GRAD                          
                          Rob Parrish, Justin Turney,                
                       Andy Simmonett, and Alex Sokolov              
         ------------------------------------------------------------

  ==> Geometry <==

    Molecular point group: c1
    Full point group: C1

    Geometry (in Angstrom), charge = 0, multiplicity = 1:

       Center              X                  Y                   Z               Mass       
    ------------   -----------------  -----------------  -----------------  -----------------
         C            1.888340350402    -0.601361012494    -0.543219362507    12.000000000000
         N            0.919322350402     0.437659987506    -0.566834362507    14.003074004430
         C           -0.381273649598     0.256924987506     0.048186637493    12.000000000000
         C           -0.540036649598    -0.441962012494     1.277044637493    12.000000000000
         C            1.248270350402     1.803606987506    -1.055262362507    12.000000000000
         C           -1.549018649598     0.743543987506    -0.602749362507    12.000000000000
         C           -1.813127649598    -0.620424012494     1.835372637493    12.000000000000
         C           -2.951126649598    -0.120090012494     1.191909637493    12.000000000000
         C           -2.813190649598     0.557351987506    -0.025172362507    12.000000000000
         H            0.329708350402    -0.847703012494     1.794541637493     1.007825032230
         H           -1.476986649598     1.262539987506    -1.560829362507     1.007825032230
         C            3.275456350402    -0.292728012494    -1.117439362507    12.000000000000
         O            1.659352350402    -1.708784012494    -0.059132362507    15.994914619570
         H            1.212789350402     1.830748987506    -2.145367362507     1.007825032230
         H            0.540836350402     2.539649987506    -0.670187362507     1.007825032230
         H            2.237817350402     2.117690987506    -0.722936362507     1.007825032230
         H           -1.912141649598    -1.153004012494     2.782948637493     1.007825032230
         H           -3.695577649598     0.947597987506    -0.535928362507     1.007825032230
         H            3.212070350402     0.190953987506    -2.092223362507     1.007825032230
         H            3.844034350402     0.335884987506    -0.432002362507     1.007825032230
         H           -3.939015649598    -0.260060012494     1.634757637493     1.007825032230
         H            3.827691350402    -1.224301012494    -1.248574362507     1.007825032230

  Nuclear repulsion =  581.454937405156102

  ==> Basis Set <==

  Basis Set: 6-311G
    Blend: 6-311G
    Number of shells: 110
    Number of basis functions: 176
    Number of Cartesian functions: 176
    Spherical Harmonics?: true
    Max angular momentum: 1

  ==> DFJKGrad: Density-Fitted SCF Gradients <==

    Gradient:                    1
    J tasked:                  Yes
    K tasked:                  Yes
    wK tasked:                 Yes
    Omega:               2.000E-01
    OpenMP threads:              2
    Integrals threads:           2
    Memory [MiB]:             5841
    Schwarz Cutoff:          1E-12
    Fitting Condition:       1E-10

   => Auxiliary Basis Set <=

  Basis Set: (6-311G AUX)
    Blend: CC-PVTZ-JKFIT
    Number of shells: 385
    Number of basis functions: 1199
    Number of Cartesian functions: 1441
    Spherical Harmonics?: true
    Max angular momentum: 4

  ==> DFT Potential <==

   => LibXC <=

    Version 5.1.5
    S. Lehtola, C. Steigemann, M. J. Oliveira, and M. A. Marques, SoftwareX 7, 1 (2018) (10.1016/j.softx.2017.11.002)

   => Composite Functional: WB97X-D <= 

    wB97X-D Hyb-GGA Exchange-Correlation Functional

    J.-D. Chai and M. Head-Gordon, Phys. Chem. Chem. Phys. 10, 6615 (2008) (10.1039/B810189B)

    Deriv               =              1
    GGA                 =           TRUE
    Meta                =          FALSE

    Exchange Hybrid     =           TRUE
    MP2 Hybrid          =          FALSE

   => Exchange-Correlation Functionals <=

    1.0000   wB97X-D range-separated functional

   => Exact (HF) Exchange <=

    0.7780            HF,LR [omega = 0.2000]
    0.2220               HF 

   => LibXC Density Thresholds  <==

    XC_HYB_GGA_XC_WB97X_D:  1.00E-14 

   => Molecular Quadrature <=

    Radial Scheme          =       TREUTLER
    Pruning Scheme         =           NONE
    Nuclear Scheme         =       TREUTLER

    BS radius alpha        =              1
    Pruning alpha          =              1
    Radial Points          =             75
    Spherical Points       =            302
    Total Points           =         460453
    Total Blocks           =           3376
    Max Points             =            256
    Max Functions          =            156
    Weights Tolerance      =       1.00E-15


  -Total Gradient:
     Atom            X                  Y                   Z
    ------   -----------------  -----------------  -----------------
       1        0.000219129018    -0.023620303810     0.006036288547
       2       -0.006474862045     0.001566910829    -0.012774832400
       3        0.012127352859     0.010694380797    -0.000727701269
       4       -0.003489958924    -0.006801280174     0.006087493729
       5       -0.000409932652     0.009313368655     0.002469092593
       6       -0.009044768719     0.003071921051    -0.006385667918
       7       -0.002012270213    -0.002058985543     0.003196633558
       8       -0.000111799159     0.000046275840     0.000565369672
       9       -0.002343578579    -0.001597176259    -0.000363483802
      10        0.005900694278    -0.003154853044     0.006148219698
      11       -0.001889559643     0.003859879444    -0.005738778587
      12        0.010065604221     0.000611177463     0.002722940200
      13        0.005703339965     0.009120465884    -0.003681092177
      14       -0.001067315277    -0.002166938675     0.000657425177
      15        0.001202457415     0.006184020341    -0.001020888119
      16       -0.000481647016     0.002552712820     0.000320743482
      17       -0.001197530827    -0.003191414055     0.006025273554
      18       -0.005420804072     0.002664943433    -0.002923925960
      19       -0.000708876002    -0.003247061111    -0.001126977069
      20        0.000395349157    -0.002722217906     0.000453039288
      21       -0.006169356709    -0.000778781954     0.003087161453
      22        0.005416575916    -0.000267482165    -0.003235835497


*** tstop() called on node74.bme.utexas.edu at Wed Jun  8 11:38:34 2022
Module time:
	user time   =      31.82 seconds =       0.53 minutes
	system time =       0.42 seconds =       0.01 minutes
	total time  =         17 seconds =       0.28 minutes
Total time:
	user time   =     100.11 seconds =       1.67 minutes
	system time =       4.30 seconds =       0.07 minutes
	total time  =         53 seconds =       0.88 minutes

			-----------------------------------------
			 OPTKING 2.0: for geometry optimizations 
			  - R.A. King,  Bethel University        
			-----------------------------------------
	At level 1: Red. Int., RFO, no backsteps, dynamic trust

	Internal coordinates to be generated automatically.
	Detected frag 1 with atoms:  1 2 3 4 5 6 7 8 9 10 11 12 13 14 15 16 17 18 19 20
	 21 22
	---Fragment 1 Bond Connectivity---
	 1 : 2 12 13
	 2 : 1 3 5
	 3 : 2 4 6
	 4 : 3 7 10
	 5 : 2 14 15 16
	 6 : 3 9 11
	 7 : 4 8 17
	 8 : 7 9 21
	 9 : 6 8 18
	 10 : 4
	 11 : 6
	 12 : 1 19 20 22
	 13 : 1
	 14 : 5
	 15 : 5
	 16 : 5
	 17 : 7
	 18 : 9
	 19 : 12
	 20 : 12
	 21 : 8
	 22 : 12

	Assuming in current code that numbering for constraints corresponds to unified fragment.
	Frozen dihedral atom list: 
	     1     2     3     4
	    12     1     2     3
	---Fragment 1 Geometry and Gradient---
	 C           3.5684460939       -1.1364076161       -1.0265358212
	 N           1.7372674633        0.8270575125       -1.0711617036
	 C          -0.7205027766        0.4855178612        0.0910595478
	 C          -1.0205213654       -0.8351871615        2.4132646148
	 C           2.3588890928        3.4083232443       -1.9941568556
	 C          -2.9272210110        1.4050944986       -1.1390312174
	 C          -3.4263146882       -1.1724314653        3.4683516230
	 C          -5.5768211293       -0.2269372340        2.2523827812
	 C          -5.3161598664        1.0532426119       -0.0475688711
	 H           0.6230584835       -1.6019265293        3.3911922156
	 H          -2.7911002587        2.3858547988       -2.9495400237
	 C           6.1897154382       -0.5531757729       -2.1116543569
	 O           3.1357214879       -3.2291337912       -0.1117439703
	 H           2.2918397201        3.4596141908       -4.0541567536
	 H           1.0220325810        4.7992429309       -1.2664705679
	 H           4.2288619111        4.0018559847       -1.3661517313
	 H          -3.6134240308       -2.1788618052        5.2590107461
	 H          -6.9836296331        1.7907006734       -1.0127578280
	 H           6.0699332580        0.3608507390       -3.9537291484
	 H           7.2641721391        0.6347306360       -0.8163661507
	 H          -7.4436607816       -0.4914421998        3.0892442164
	 H           7.2332883450       -2.3135936087       -2.3594635924
	             0.0002191290       -0.0236203038        0.0060362885
	            -0.0064748620        0.0015669108       -0.0127748324
	             0.0121273529        0.0106943808       -0.0007277013
	            -0.0034899589       -0.0068012802        0.0060874937
	            -0.0004099327        0.0093133687        0.0024690926
	            -0.0090447687        0.0030719211       -0.0063856679
	            -0.0020122702       -0.0020589855        0.0031966336
	            -0.0001117992        0.0000462758        0.0005653697
	            -0.0023435786       -0.0015971763       -0.0003634838
	             0.0059006943       -0.0031548530        0.0061482197
	            -0.0018895596        0.0038598794       -0.0057387786
	             0.0100656042        0.0006111775        0.0027229402
	             0.0057033400        0.0091204659       -0.0036810922
	            -0.0010673153       -0.0021669387        0.0006574252
	             0.0012024574        0.0061840203       -0.0010208881
	            -0.0004816470        0.0025527128        0.0003207435
	            -0.0011975308       -0.0031914141        0.0060252736
	            -0.0054208041        0.0026649434       -0.0029239260
	            -0.0007088760       -0.0032470611       -0.0011269771
	             0.0003953492       -0.0027222179        0.0004530393
	            -0.0061693567       -0.0007787820        0.0030871615
	             0.0054165759       -0.0002674822       -0.0032358355

	Previous optimization step data not found.  Starting new optimization.

	---Fragment 1 Intrafragment Coordinates---
	 - Coordinate -           - BOHR/RAD -       - ANG/DEG -
	 R(1,2)           =         2.685219	       1.420957
	 R(1,12)          =         2.896324	       1.532669
	 R(1,13)          =         2.324564	       1.230106
	 R(2,3)           =         2.740081	       1.449988
	 R(2,5)           =         2.810919	       1.487474
	 R(3,4)           =         2.688291	       1.422582
	 R(3,6)           =         2.688559	       1.422724
	 R(4,7)           =         2.648544	       1.401549
	 R(4,10)          =         2.060482	       1.090360
	 R(5,14)          =         2.061729	       1.091020
	 R(5,15)          =         2.061885	       1.091103
	 R(5,16)          =         2.059968	       1.090088
	 R(6,9)           =         2.649928	       1.402282
	 R(6,11)          =         2.063580	       1.091999
	 R(7,8)           =         2.645225	       1.399793
	 R(7,17)          =         2.062613	       1.091488
	 R(8,9)           =         2.645105	       1.399729
	 R(8,21)          =         2.062860	       1.091618
	 R(9,18)          =         2.062981	       1.091682
	 R(12,19)         =         2.059862	       1.090032
	 R(12,20)         =         2.059939	       1.090073
	 R(12,22)         =         2.061438	       1.090866
	 B(1,2,3)         =         2.110049	     120.896903
	 B(1,2,5)         =         2.124827	     121.743632
	 B(1,12,19)       =         1.951709	     111.824685
	 B(1,12,20)       =         1.931149	     110.646665
	 B(1,12,22)       =         1.908406	     109.343624
	 B(2,1,12)        =         2.052980	     117.627074
	 B(2,1,13)        =         2.138716	     122.539381
	 B(2,3,4)         =         2.126728	     121.852535
	 B(2,3,6)         =         2.093841	     119.968236
	 B(2,5,14)        =         1.921691	     110.104810
	 B(2,5,15)        =         1.939282	     111.112682
	 B(2,5,16)        =         1.944677	     111.421803
	 B(3,2,5)         =         2.039914	     116.878435
	 B(3,4,7)         =         2.103710	     120.533716
	 B(3,4,10)        =         2.098756	     120.249855
	 B(3,6,9)         =         2.101430	     120.403085
	 B(3,6,11)        =         2.105790	     120.652852
	 B(4,3,6)         =         2.061964	     118.141855
	 B(4,7,8)         =         2.105782	     120.652431
	 B(4,7,17)        =         2.083312	     119.365002
	 B(6,9,8)         =         2.107422	     120.746401
	 B(6,9,18)        =         2.081173	     119.242426
	 B(7,4,10)        =         2.080716	     119.216250
	 B(7,8,9)         =         2.085846	     119.510163
	 B(7,8,21)        =         2.098336	     120.225781
	 B(8,7,17)        =         2.094087	     119.982321
	 B(8,9,18)        =         2.094590	     120.011172
	 B(9,6,11)        =         2.075952	     118.943301
	 B(9,8,21)        =         2.098999	     120.263789
	 B(12,1,13)       =         2.091164	     119.814885
	 B(14,5,15)       =         1.890999	     108.346280
	 B(14,5,16)       =         1.903881	     109.084328
	 B(15,5,16)       =         1.861479	     106.654909
	 B(19,12,20)      =         1.914271	     109.679649
	 B(19,12,22)      =         1.876403	     107.509999
	 B(20,12,22)      =         1.879686	     107.698088
	*D(1,2,3,4)       =         0.676243	      38.745866
	 D(1,2,3,6)       =        -2.425812	    -138.988788
	 D(1,2,5,14)      =         1.415052	      81.076500
	 D(1,2,5,15)      =        -2.773000	    -158.881181
	 D(1,2,5,16)      =        -0.699817	     -40.096563
	 D(2,1,12,19)     =        -0.836078	     -47.903754
	 D(2,1,12,20)     =         1.303445	      74.681877
	 D(2,1,12,22)     =        -2.912184	    -166.855833
	 D(2,3,4,7)       =        -3.122311	    -178.895236
	 D(2,3,4,10)      =         0.016578	       0.949849
	 D(2,3,6,9)       =         3.126082	     179.111303
	 D(2,3,6,11)      =        -0.009909	      -0.567749
	*D(3,2,1,12)      =        -3.059297	    -175.284800
	 D(3,2,1,13)      =         0.054789	       3.139162
	 D(3,2,5,14)      =        -1.864297	    -106.816378
	 D(3,2,5,15)      =         0.230836	      13.225941
	 D(3,2,5,16)      =         2.304019	     132.010558
	 D(3,4,7,8)       =         0.005019	       0.287584
	 D(3,4,7,17)      =        -3.133422	    -179.531836
	 D(3,6,9,8)       =        -0.011154	      -0.639055
	 D(3,6,9,18)      =         3.130595	     179.369874
	 D(4,3,2,5)       =        -2.328834	    -133.432359
	 D(4,3,6,9)       =         0.022575	       1.293439
	 D(4,3,6,11)      =        -3.113416	    -178.385613
	 D(4,7,8,9)       =         0.006978	       0.399833
	 D(4,7,8,21)      =        -3.137887	    -179.787669
	 D(5,2,1,12)      =        -0.060936	      -3.491374
	 D(5,2,1,13)      =         3.053150	     174.932588
	 D(5,2,3,6)       =         0.852296	      48.832986
	 D(6,3,4,7)       =        -0.019562	      -1.120792
	 D(6,3,4,10)      =         3.119327	     178.724293
	 D(6,9,8,7)       =        -0.003907	      -0.223831
	 D(6,9,8,21)      =         3.140960	     179.963743
	 D(7,8,9,18)      =         3.137529	     179.767172
	 D(8,7,4,10)      =        -3.133897	    -179.559089
	 D(8,9,6,11)      =         3.124932	     179.045435
	 D(9,8,7,17)      =        -3.137785	    -179.781859
	 D(10,4,7,17)     =         0.010847	       0.621492
	 D(11,6,9,18)     =        -0.016504	      -0.945637
	 D(13,1,12,19)    =         2.332241	     133.627562
	 D(13,1,12,20)    =        -1.811422	    -103.786807
	 D(13,1,12,22)    =         0.256135	      14.675483
	 D(17,7,8,21)     =         0.000535	       0.030639
	 D(18,9,8,21)     =        -0.000790	      -0.045254
	 R(4,13)          =         5.420425	       2.868365

	Current energy   :      -479.3759465367

	Generating empirical Hessian (Schlegel '84) for each fragment.
	Taking RFO optimization step.
	Going to follow RFO solution 1.
	Using RFO vector 1.
	Norm of target step-size    0.26901
	Projected energy change by RFO approximation:        -0.0084559178

	Back-transformation to cartesian coordinates...
	Could not converge backtransformation.
	Using first guess instead.

	Back-transformation to cartesian coordinates to adjust frozen coordinates...
	Successfully converged to displaced geometry.

	--- Internal Coordinate Step in ANG or DEG, aJ/ANG or AJ/DEG ---
	 ---------------------------------------------------------------------------
	   Coordinate                Previous        Force       Change         New 
	   ----------                --------       ------       ------       ------
	    1 R(1,2)          =      1.420957    -0.226148    -0.034762     1.386195
	    2 R(1,12)         =      1.532669    -0.106956    -0.019935     1.512734
	    3 R(1,13)         =      1.230106     0.089405     0.006921     1.237027
	    4 R(2,3)          =      1.449988    -0.117108    -0.020829     1.429159
	    5 R(2,5)          =      1.487474    -0.111901    -0.019182     1.468293
	    6 R(3,4)          =      1.422582    -0.176862    -0.027583     1.395000
	    7 R(3,6)          =      1.422724    -0.176055    -0.025554     1.397170
	    8 R(4,7)          =      1.401549    -0.083057    -0.010944     1.390605
	    9 R(4,10)         =      1.090360    -0.072516    -0.012240     1.078120
	   10 R(5,14)         =      1.091020     0.005573     0.001062     1.092082
	   11 R(5,15)         =      1.091103    -0.024996    -0.003877     1.087225
	   12 R(5,16)         =      1.090088    -0.003162    -0.000494     1.089594
	   13 R(6,9)          =      1.402282    -0.083424    -0.010519     1.391762
	   14 R(6,11)         =      1.091999    -0.055439    -0.009087     1.082912
	   15 R(7,8)          =      1.399793    -0.057646    -0.006377     1.393416
	   16 R(7,17)         =      1.091488    -0.056951    -0.010097     1.081390
	   17 R(8,9)          =      1.399729    -0.069250    -0.008494     1.391236
	   18 R(8,21)         =      1.091618    -0.057246    -0.009957     1.081662
	   19 R(9,18)         =      1.091682    -0.055193    -0.009200     1.082482
	   20 R(12,19)        =      1.090032     0.003238     0.001311     1.091343
	   21 R(12,20)        =      1.090073     0.009021     0.002159     1.092232
	   22 R(12,22)        =      1.090866    -0.027698    -0.004745     1.086121
	   23 B(1,2,3)        =    120.896903     0.000533     0.881373   121.778276
	   24 B(1,2,5)        =    121.743632    -0.000627    -1.361960   120.381671
	   25 B(1,12,19)      =    111.824685     0.000178     0.909179   112.733864
	   26 B(1,12,20)      =    110.646665     0.000018    -0.067145   110.579520
	   27 B(1,12,22)      =    109.343624    -0.000545    -2.294360   107.049264
	   28 B(2,1,12)       =    117.627074    -0.000894    -2.330236   115.296838
	   29 B(2,1,13)       =    122.539381     0.000306     0.325102   122.864483
	   30 B(2,3,4)        =    121.852535     0.000145     0.104159   121.956695
	   31 B(2,3,6)        =    119.968236    -0.000590    -1.331836   118.636400
	   32 B(2,5,14)       =    110.104810     0.000403     1.957376   112.062185
	   33 B(2,5,15)       =    111.112682    -0.000627    -2.908655   108.204027
	   34 B(2,5,16)       =    111.421803    -0.000180    -0.834353   110.587450
	   35 B(3,2,5)        =    116.878435     0.000100     0.756830   117.635265
	   36 B(3,4,7)        =    120.533716    -0.000139    -0.635738   119.897978
	   37 B(3,4,10)       =    120.249855    -0.000092    -0.430915   119.818940
	   38 B(3,6,9)        =    120.403085     0.000049    -0.018514   120.384571
	   39 B(3,6,11)       =    120.652852    -0.000213    -0.807433   119.845419
	   40 B(4,3,6)        =    118.141855     0.000448     1.259562   119.401417
	   41 B(4,7,8)        =    120.652431    -0.000017     0.118368   120.770799
	   42 B(4,7,17)       =    119.365002    -0.000037    -0.277921   119.087081
	   43 B(6,9,8)        =    120.746401    -0.000184    -0.521745   120.224656
	   44 B(6,9,18)       =    119.242426     0.000085     0.236831   119.479257
	   45 B(7,4,10)       =    119.216250     0.000231     1.054699   120.270950
	   46 B(7,8,9)        =    119.510163    -0.000155    -0.196765   119.313398
	   47 B(7,8,21)       =    120.225781     0.000095     0.198312   120.424094
	   48 B(8,7,17)       =    119.982321     0.000055     0.159793   120.142113
	   49 B(8,9,18)       =    120.011172     0.000099     0.278991   120.290163
	   50 B(9,6,11)       =    118.943301     0.000165     0.826285   119.769586
	   51 B(9,8,21)       =    120.263789     0.000060    -0.001482   120.262306
	   52 B(12,1,13)      =    119.814885     0.000590     2.023408   121.838293
	   53 B(14,5,15)      =    108.346280     0.000117     0.502757   108.849038
	   54 B(14,5,16)      =    109.084328    -0.000055     0.015816   109.100144
	   55 B(15,5,16)      =    106.654909     0.000351     1.277566   107.932475
	   56 B(19,12,20)     =    109.679649    -0.000174    -1.118966   108.560683
	   57 B(19,12,22)     =    107.509999     0.000294     1.670518   109.180517
	   58 B(20,12,22)     =    107.698088     0.000239     0.953654   108.651742
	   59 *D(1,2,3,4)     =     38.745866     0.000000     0.000000    38.745866
	   60 D(1,2,3,6)      =   -138.988788    -0.000025    -3.123109  -142.111897
	   61 D(1,2,5,14)     =     81.076500    -0.000005    -0.905507    80.170993
	   62 D(1,2,5,15)     =   -158.881181    -0.000004    -0.931142  -159.812323
	   63 D(1,2,5,16)     =    -40.096563    -0.000024    -1.697173   -41.793736
	   64 D(2,1,12,19)    =    -47.903754     0.000021     1.120225   -46.783528
	   65 D(2,1,12,20)    =     74.681877     0.000001     0.268074    74.949951
	   66 D(2,1,12,22)    =   -166.855833    -0.000006     0.000095  -166.855739
	   67 D(2,3,4,7)      =   -178.895236    -0.000012    -1.997956  -180.893192
	   68 D(2,3,4,10)     =      0.949849    -0.000022    -3.106489    -2.156640
	   69 D(2,3,6,9)      =    179.111303     0.000020     2.465422   181.576725
	   70 D(2,3,6,11)     =     -0.567749     0.000019     2.381902     1.814153
	   71 *D(3,2,1,12)    =   -175.284800     0.000000     0.000000  -175.284800
	   72 D(3,2,1,13)     =      3.139162     0.000015     1.798435     4.937597
	   73 D(3,2,5,14)     =   -106.816378     0.000018     1.879457  -104.936921
	   74 D(3,2,5,15)     =     13.225941     0.000020     1.853822    15.079763
	   75 D(3,2,5,16)     =    132.010558    -0.000001     1.087791   133.098349
	   76 D(3,4,7,8)      =      0.287584    -0.000005    -0.708864    -0.421280
	   77 D(3,4,7,17)     =   -179.531836    -0.000007    -0.861478  -180.393314
	   78 D(3,6,9,8)      =     -0.639055    -0.000003    -0.370928    -1.009982
	   79 D(3,6,9,18)     =    179.369874     0.000004     0.502943   179.872816
	   80 D(4,3,2,5)      =   -133.432359    -0.000001    -2.638047  -136.070406
	   81 D(4,3,6,9)      =      1.293439    -0.000002    -0.552074     0.741365
	   82 D(4,3,6,11)     =   -178.385613    -0.000003    -0.635593  -179.021206
	   83 D(4,7,8,9)      =      0.399833    -0.000002    -0.241050     0.158783
	   84 D(4,7,8,21)     =   -179.787669    -0.000002    -0.216496  -180.004165
	   85 D(5,2,1,12)     =     -3.491374     0.000015     2.882785    -0.608589
	   86 D(5,2,1,13)     =    174.932588     0.000030     4.681221   179.613808
	   87 D(5,2,3,6)      =     48.832986    -0.000026    -5.761156    43.071830
	   88 D(6,3,4,7)      =     -1.120792     0.000007     1.091741    -0.029051
	   89 D(6,3,4,10)     =    178.724293    -0.000003    -0.016792   178.707501
	   90 D(6,9,8,7)      =     -0.223831     0.000007     0.779181     0.555350
	   91 D(6,9,8,21)     =    179.963743     0.000007     0.754285   180.718029
	   92 D(7,8,9,18)     =    179.767172    -0.000001    -0.101831   179.665341
	   93 D(8,7,4,10)     =   -179.559089     0.000004     0.407036  -179.152052
	   94 D(8,9,6,11)     =    179.045435    -0.000002    -0.292666   178.752769
	   95 D(9,8,7,17)     =   -179.781859    -0.000001    -0.087618  -179.869477
	   96 D(10,4,7,17)    =      0.621492     0.000002     0.254422     0.875913
	   97 D(11,6,9,18)    =     -0.945637     0.000005     0.581205    -0.364432
	   98 D(13,1,12,19)   =    133.627562     0.000008    -0.630979   132.996583
	   99 D(13,1,12,20)   =   -103.786807    -0.000012    -1.483130  -105.269937
	  100 D(13,1,12,22)   =     14.675483    -0.000020    -1.751110    12.924373
	  101 D(17,7,8,21)    =      0.030639    -0.000000    -0.063064    -0.032425
	  102 D(18,9,8,21)    =     -0.045254    -0.000001    -0.126726    -0.171980
	  103 R(4,13)         =      2.868365    -0.016267    -0.006391     2.861974
	 ---------------------------------------------------------------------------
	Successfully symmetrized geometry.

  ==> Convergence Check <==

  Measures of convergence in internal coordinates in au.
  Criteria marked as inactive (o), active & met (*), and active & unmet ( ).
  --------------------------------------------------------------------------------------------- ~
   Step     Total Energy     Delta E     MAX Force     RMS Force      MAX Disp      RMS Disp    ~
  --------------------------------------------------------------------------------------------- ~
    Convergence Criteria             o    2.50e-03 *    1.70e-03 *    1.00e-02 *    6.70e-03 *  ~
  --------------------------------------------------------------------------------------------- ~
      1    -479.37594654   -4.79e+02 o    2.74e-02      5.97e-03      1.01e-01      2.64e-02    ~
  ---------------------------------------------------------------------------------------------

	Writing optimization data to binary file.
	Structure for next step:
	Cartesian Geometry (in Angstrom)
	    C     1.8789122634  -0.6042255832  -0.5175496602
	    N     0.9124444363   0.3892453867  -0.5397188004
	    C    -0.3723318209   0.2028916022   0.0578739361
	    C    -0.5337595252  -0.4796344971   1.2637445402
	    C     1.2248168286   1.7171625849  -1.0828055391
	    C    -1.4926696279   0.7386704232  -0.5823351632
	    C    -1.8020925214  -0.6199820864   1.8163902731
	    C    -2.9192405091  -0.0781828878   1.1839010733
	    C    -2.7571408140   0.6071387007  -0.0159301924
	    H     0.3232952331  -0.9138012645   1.7529275991
	    H    -1.3776872985   1.2560770210  -1.5266701680
	    C     3.2216389546  -0.2127863890  -1.0939377447
	    O     1.6680306837  -1.7359068816  -0.0647121273
	    H     1.1835499231   1.7341700044  -2.1739748989
	    H     0.4962856702   2.4236417463  -0.6926918008
	    H     2.2132724276   2.0409999879  -0.7583049482
	    H    -1.9129448933  -1.1570845986   2.7483976208
	    H    -3.6147881264   1.0297100924  -0.5235153186
	    H     3.1354187314   0.2999535971  -2.0534657674
	    H     3.7627846153   0.4351547483  -0.4008970133
	    H    -3.9032320244  -0.1907612558   1.6187325898
	    H     3.7896310902  -1.1287127485  -1.2285554537
			--------------------------
			 OPTKING Finished Execution 
			--------------------------

    Structure for next step:
    Molecular point group: c1
    Full point group: C1

    Geometry (in Angstrom), charge = 0, multiplicity = 1:

    C            1.872457741130    -0.596260510020    -0.520877153171
    N            0.905989910258     0.397210463771    -0.543046293508
    C           -0.378786351986     0.210856678588     0.054546445363
    C           -0.540214056944    -0.471669423374     1.260417054200
    C            1.218362303796     1.725127667221    -1.086133034323
    C           -1.499124163444     0.746635501677    -0.585662656409
    C           -1.808547058145    -0.612017013265     1.813062789305
    C           -2.925695050270    -0.070217812483     1.180573586978
    C           -2.763595354471     0.615103778636    -0.019257683367
    H            0.316840704753    -0.905836192474     1.749600115065
    H           -1.384141833575     1.264042101566    -1.529997664948
    C            3.215184437580    -0.204821314249    -1.097265239971
    O            1.661576160595    -1.727941812863    -0.068039618473
    H            1.177095398096     1.742135086828    -2.177302398377
    H            0.489831142445     2.431606831433    -0.696019294477
    H            2.206817906672     2.048965071489    -0.761632442165
    H           -1.919399430488    -1.149119527567     2.745070140702
    H           -3.621242670218     1.037675172004    -0.526842811633
    H            3.128964214098     0.307918673884    -2.056793266446
    H            3.756330100456     0.443119825565    -0.404224505848
    H           -3.909686569375    -0.182796180958     1.615405105238
    H            3.783176575390    -1.120747677355    -1.231882949510


Scratch directory: /scratch/bdw2292/Psi4-3_24_Index_0-farH_in17/

Scratch directory: /scratch/bdw2292/Psi4-3_24_Index_0-farH_in17/
gradient() will perform analytic gradient computation.

*** tstart() called on node74.bme.utexas.edu
*** at Wed Jun  8 11:38:34 2022

   => Loading Basis Set <=

    Name: 6-311G
    Role: ORBITAL
    Keyword: BASIS
    atoms 1, 3-9, 12   entry C          line    92 file /home/bdw2292/miniconda3/envs/newamoebamdpoltype/share/psi4/basis/6-311g.gbs 
    atoms 2            entry N          line   109 file /home/bdw2292/miniconda3/envs/newamoebamdpoltype/share/psi4/basis/6-311g.gbs 
    atoms 10-11, 14-22 entry H          line    21 file /home/bdw2292/miniconda3/envs/newamoebamdpoltype/share/psi4/basis/6-311g.gbs 
    atoms 13           entry O          line   126 file /home/bdw2292/miniconda3/envs/newamoebamdpoltype/share/psi4/basis/6-311g.gbs 

   => WB97X-D: Empirical Dispersion <=

    Chai and Head-Gordon Dispersion Correction
    Chai, J.-D.; Head-Gordon, M. (2010), J. Chem. Phys., 132: 6615-6620

        s6 =       1.000000


         ---------------------------------------------------------
                                   SCF
               by Justin Turney, Rob Parrish, Andy Simmonett
                          and Daniel G. A. Smith
                              RKS Reference
                        2 Threads,   7788 MiB Core
         ---------------------------------------------------------

  ==> Geometry <==

    Molecular point group: c1
    Full point group: C1

    Geometry (in Angstrom), charge = 0, multiplicity = 1:

       Center              X                  Y                   Z               Mass       
    ------------   -----------------  -----------------  -----------------  -----------------
         C            1.872457741130    -0.596260510020    -0.520877153171    12.000000000000
         N            0.905989910258     0.397210463771    -0.543046293508    14.003074004430
         C           -0.378786351986     0.210856678588     0.054546445363    12.000000000000
         C           -0.540214056944    -0.471669423374     1.260417054200    12.000000000000
         C            1.218362303796     1.725127667221    -1.086133034323    12.000000000000
         C           -1.499124163444     0.746635501677    -0.585662656409    12.000000000000
         C           -1.808547058145    -0.612017013265     1.813062789305    12.000000000000
         C           -2.925695050270    -0.070217812483     1.180573586978    12.000000000000
         C           -2.763595354471     0.615103778636    -0.019257683367    12.000000000000
         H            0.316840704753    -0.905836192474     1.749600115065     1.007825032230
         H           -1.384141833575     1.264042101566    -1.529997664948     1.007825032230
         C            3.215184437580    -0.204821314249    -1.097265239971    12.000000000000
         O            1.661576160595    -1.727941812863    -0.068039618473    15.994914619570
         H            1.177095398096     1.742135086828    -2.177302398377     1.007825032230
         H            0.489831142445     2.431606831433    -0.696019294477     1.007825032230
         H            2.206817906672     2.048965071489    -0.761632442165     1.007825032230
         H           -1.919399430488    -1.149119527567     2.745070140702     1.007825032230
         H           -3.621242670218     1.037675172004    -0.526842811633     1.007825032230
         H            3.128964214098     0.307918673884    -2.056793266446     1.007825032230
         H            3.756330100456     0.443119825565    -0.404224505848     1.007825032230
         H           -3.909686569375    -0.182796180958     1.615405105238     1.007825032230
         H            3.783176575390    -1.120747677355    -1.231882949510     1.007825032230

  Running in c1 symmetry.

  Rotational constants: A =      0.08177  B =      0.02484  C =      0.02032 [cm^-1]
  Rotational constants: A =   2451.36481  B =    744.61103  C =    609.29469 [MHz]
  Nuclear repulsion =  588.944449204638545

  Charge       = 0
  Multiplicity = 1
  Electrons    = 80
  Nalpha       = 40
  Nbeta        = 40

  ==> Algorithm <==

  SCF Algorithm Type is DF.
  DIIS enabled.
  MOM disabled.
  Fractional occupation disabled.
  Guess Type is READ.
  Energy threshold   = 1.00e-08
  Density threshold  = 1.00e-08
  Integral threshold = 1.00e-12

  ==> Primary Basis <==

  Basis Set: 6-311G
    Blend: 6-311G
    Number of shells: 110
    Number of basis functions: 176
    Number of Cartesian functions: 176
    Spherical Harmonics?: true
    Max angular momentum: 1

  ==> DFT Potential <==

   => LibXC <=

    Version 5.1.5
    S. Lehtola, C. Steigemann, M. J. Oliveira, and M. A. Marques, SoftwareX 7, 1 (2018) (10.1016/j.softx.2017.11.002)

   => Composite Functional: WB97X-D <= 

    wB97X-D Hyb-GGA Exchange-Correlation Functional

    J.-D. Chai and M. Head-Gordon, Phys. Chem. Chem. Phys. 10, 6615 (2008) (10.1039/B810189B)

    Deriv               =              1
    GGA                 =           TRUE
    Meta                =          FALSE

    Exchange Hybrid     =           TRUE
    MP2 Hybrid          =          FALSE

   => Exchange-Correlation Functionals <=

    1.0000   wB97X-D range-separated functional

   => Exact (HF) Exchange <=

    0.7780            HF,LR [omega = 0.2000]
    0.2220               HF 

   => LibXC Density Thresholds  <==

    XC_HYB_GGA_XC_WB97X_D:  1.00E-14 

   => Molecular Quadrature <=

    Radial Scheme          =       TREUTLER
    Pruning Scheme         =           NONE
    Nuclear Scheme         =       TREUTLER

    BS radius alpha        =              1
    Pruning alpha          =              1
    Radial Points          =             75
    Spherical Points       =            302
    Total Points           =         459696
    Total Blocks           =           3377
    Max Points             =            256
    Max Functions          =            155
    Weights Tolerance      =       1.00E-15

   => Loading Basis Set <=

    Name: (6-311G AUX)
    Role: JKFIT
    Keyword: DF_BASIS_SCF
    atoms 1, 3-9, 12   entry C          line   125 file /home/bdw2292/miniconda3/envs/newamoebamdpoltype/share/psi4/basis/cc-pvtz-jkfit.gbs 
    atoms 2            entry N          line   177 file /home/bdw2292/miniconda3/envs/newamoebamdpoltype/share/psi4/basis/cc-pvtz-jkfit.gbs 
    atoms 10-11, 14-22 entry H          line    51 file /home/bdw2292/miniconda3/envs/newamoebamdpoltype/share/psi4/basis/cc-pvtz-jkfit.gbs 
    atoms 13           entry O          line   229 file /home/bdw2292/miniconda3/envs/newamoebamdpoltype/share/psi4/basis/cc-pvtz-jkfit.gbs 

   => Loading Basis Set <=

    Name: 6-311G
    Role: ORBITAL
    Keyword: BASIS
    atoms 1, 3-9, 12   entry C          line    92 file /home/bdw2292/miniconda3/envs/newamoebamdpoltype/share/psi4/basis/6-311g.gbs 
    atoms 2            entry N          line   109 file /home/bdw2292/miniconda3/envs/newamoebamdpoltype/share/psi4/basis/6-311g.gbs 
    atoms 10-11, 14-22 entry H          line    21 file /home/bdw2292/miniconda3/envs/newamoebamdpoltype/share/psi4/basis/6-311g.gbs 
    atoms 13           entry O          line   126 file /home/bdw2292/miniconda3/envs/newamoebamdpoltype/share/psi4/basis/6-311g.gbs 

  Reading orbitals from file /scratch/bdw2292/Psi4-3_24_Index_0-farH_in17/3_24_Index_0-opt-1_2-3-038.default.1096737.180.npy, no projection.

  ==> Integral Setup <==

  DFHelper Memory: AOs need 0.749 GiB; user supplied 4.271 GiB. Using in-core AOs.

  ==> MemDFJK: Density-Fitted J/K Matrices <==

    J tasked:                   Yes
    K tasked:                   Yes
    wK tasked:                  Yes
    Omega:                2.000E-01
    OpenMP threads:               2
    Memory [MiB]:              4373
    Algorithm:                 Core
    Schwarz Cutoff:           1E-12
    Mask sparsity (%):      11.8543
    Fitting Condition:        1E-10

   => Auxiliary Basis Set <=

  Basis Set: (6-311G AUX)
    Blend: CC-PVTZ-JKFIT
    Number of shells: 385
    Number of basis functions: 1199
    Number of Cartesian functions: 1441
    Spherical Harmonics?: true
    Max angular momentum: 4

  Cached 100.0% of DFT collocation blocks in 1.433 [GiB].

  Minimum eigenvalue in the overlap matrix is 2.5217970676E-04.
  Reciprocal condition number of the overlap matrix is 3.6613880446E-05.
    Using symmetric orthogonalization.

  ==> Pre-Iterations <==

  SCF Guess: Orbitals guess was supplied from a previous computation.

   -------------------------------------------------------
    Irrep   Nso     Nmo     Nalpha   Nbeta   Ndocc  Nsocc
   -------------------------------------------------------
     A        176     176      40      40      40       0
   -------------------------------------------------------
    Total     176     176      40      40      40       0
   -------------------------------------------------------

  ==> Iterations <==

                           Total Energy        Delta E     RMS |[F,P]|

   @DF-RKS iter   0:  -479.46831786951310   -4.79468e+02   1.11395e-03 
   @DF-RKS iter   1:  -479.38010080653964    8.82171e-02   1.62283e-04 DIIS
   @DF-RKS iter   2:  -479.38030582784353   -2.05021e-04   1.79582e-04 DIIS
   @DF-RKS iter   3:  -479.38070672429001   -4.00896e-04   4.29051e-05 DIIS
   @DF-RKS iter   4:  -479.38073136375590   -2.46395e-05   1.87740e-05 DIIS
   @DF-RKS iter   5:  -479.38073760503852   -6.24128e-06   4.92641e-06 DIIS
   @DF-RKS iter   6:  -479.38073808595709   -4.80919e-07   2.09010e-06 DIIS
   @DF-RKS iter   7:  -479.38073818913779   -1.03181e-07   4.45284e-07 DIIS
   @DF-RKS iter   8:  -479.38073819865497   -9.51718e-09   2.66767e-07 DIIS
   @DF-RKS iter   9:  -479.38073820085475   -2.19978e-09   7.13605e-08 DIIS
   @DF-RKS iter  10:  -479.38073820117182   -3.17073e-10   3.57331e-08 DIIS
   @DF-RKS iter  11:  -479.38073820124657   -7.47491e-11   9.84331e-09 DIIS
  Energy and wave function converged.


  ==> Post-Iterations <==

   Electrons on quadrature grid:
      Ntotal   =   79.9999572225 ; deviation = -4.278e-05 

    Orbital Energies [Eh]
    ---------------------

    Doubly Occupied:                                                      

       1A    -19.212836     2A    -14.479281     3A    -10.403619  
       4A    -10.338555     5A    -10.331519     6A    -10.294816  
       7A    -10.294003     8A    -10.293510     9A    -10.291231  
      10A    -10.289537    11A    -10.288246    12A     -1.154431  
      13A     -1.057015    14A     -0.963727    15A     -0.873954  
      16A     -0.857172    17A     -0.839279    18A     -0.813979  
      19A     -0.727381    20A     -0.708082    21A     -0.657366  
      22A     -0.609947    23A     -0.586833    24A     -0.578177  
      25A     -0.572755    26A     -0.541257    27A     -0.540364  
      28A     -0.519061    29A     -0.514781    30A     -0.500597  
      31A     -0.493344    32A     -0.483800    33A     -0.466543  
      34A     -0.450105    35A     -0.444091    36A     -0.433923  
      37A     -0.365965    38A     -0.340464    39A     -0.328137  
      40A     -0.299281  

    Virtual:                                                              

      41A      0.053524    42A      0.064713    43A      0.101789  
      44A      0.107816    45A      0.132117    46A      0.147662  
      47A      0.162698    48A      0.169190    49A      0.173328  
      50A      0.183052    51A      0.195409    52A      0.206176  
      53A      0.223807    54A      0.225206    55A      0.240327  
      56A      0.246627    57A      0.271208    58A      0.314992  
      59A      0.340612    60A      0.344667    61A      0.359587  
      62A      0.371203    63A      0.376562    64A      0.387459  
      65A      0.398883    66A      0.427653    67A      0.428614  
      68A      0.457640    69A      0.465114    70A      0.479550  
      71A      0.492807    72A      0.495083    73A      0.505781  
      74A      0.514602    75A      0.519819    76A      0.525663  
      77A      0.548921    78A      0.556075    79A      0.565404  
      80A      0.583361    81A      0.591532    82A      0.602537  
      83A      0.621304    84A      0.637506    85A      0.646757  
      86A      0.649569    87A      0.657916    88A      0.673919  
      89A      0.684291    90A      0.691250    91A      0.695476  
      92A      0.697362    93A      0.708301    94A      0.715436  
      95A      0.733701    96A      0.738248    97A      0.755181  
      98A      0.760522    99A      0.770628   100A      0.819408  
     101A      0.854908   102A      0.860712   103A      0.880540  
     104A      0.896989   105A      0.910834   106A      0.918646  
     107A      0.940259   108A      0.959061   109A      0.970987  
     110A      0.995884   111A      1.029235   112A      1.051218  
     113A      1.070185   114A      1.098996   115A      1.129451  
     116A      1.185666   117A      1.238948   118A      1.284178  
     119A      1.362012   120A      1.481157   121A      1.728272  
     122A      2.289322   123A      2.309719   124A      2.331390  
     125A      2.334726   126A      2.354953   127A      2.371444  
     128A      2.384541   129A      2.395160   130A      2.444646  
     131A      2.467993   132A      2.634769   133A      2.639890  
     134A      2.665449   135A      2.674680   136A      2.694760  
     137A      2.761873   138A      2.769098   139A      2.835756  
     140A      2.841144   141A      2.874343   142A      2.893882  
     143A      2.916450   144A      2.923195   145A      2.982465  
     146A      3.018084   147A      3.024115   148A      3.072718  
     149A      3.091645   150A      3.155416   151A      3.162212  
     152A      3.203883   153A      3.238086   154A      3.262907  
     155A      3.311743   156A      3.336752   157A      3.375494  
     158A      3.383690   159A      3.523167   160A      3.925909  
     161A      4.153292   162A      4.243486   163A      4.991801  
     164A      5.070124   165A      5.108135   166A     23.238690  
     167A     23.424691   168A     23.483355   169A     23.497257  
     170A     23.551546   171A     23.635725   172A     23.737658  
     173A     23.770488   174A     24.018580   175A     35.553893  
     176A     50.046579  

    Final Occupation by Irrep:
              A 
    DOCC [    40 ]

  @DF-RKS Final Energy:  -479.38073820124657

   => Energetics <=

    Nuclear Repulsion Energy =            588.9444492046385449
    One-Electron Energy =               -1816.2089584009183909
    Two-Electron Energy =                 794.9852759054111857
    DFT Exchange-Correlation Energy =     -47.0887339746952165
    Empirical Dispersion Energy =          -0.0127709356825057
    VV10 Nonlocal Energy =                  0.0000000000000000
    Total Energy =                       -479.3807382012465155

Computation Completed


Properties will be evaluated at   0.000000,   0.000000,   0.000000 [a0]

Properties computed using the SCF density matrix

  Nuclear Dipole Moment: [e a0]
     X:     3.7783      Y:     5.5375      Z:    -3.0686

  Electronic Dipole Moment: [e a0]
     X:    -3.6109      Y:    -3.9850      Z:     2.6358

  Dipole Moment: [e a0]
     X:     0.1673      Y:     1.5525      Z:    -0.4328     Total:     1.6204

  Dipole Moment: [D]
     X:     0.4253      Y:     3.9461      Z:    -1.1001     Total:     4.1186


*** tstop() called on node74.bme.utexas.edu at Wed Jun  8 11:39:07 2022
Module time:
	user time   =      61.68 seconds =       1.03 minutes
	system time =       2.95 seconds =       0.05 minutes
	total time  =         33 seconds =       0.55 minutes
Total time:
	user time   =     162.27 seconds =       2.70 minutes
	system time =       7.28 seconds =       0.12 minutes
	total time  =         86 seconds =       1.43 minutes

*** tstart() called on node74.bme.utexas.edu
*** at Wed Jun  8 11:39:07 2022


         ------------------------------------------------------------
                                   SCF GRAD                          
                          Rob Parrish, Justin Turney,                
                       Andy Simmonett, and Alex Sokolov              
         ------------------------------------------------------------

  ==> Geometry <==

    Molecular point group: c1
    Full point group: C1

    Geometry (in Angstrom), charge = 0, multiplicity = 1:

       Center              X                  Y                   Z               Mass       
    ------------   -----------------  -----------------  -----------------  -----------------
         C            1.872457741130    -0.596260510020    -0.520877153171    12.000000000000
         N            0.905989910258     0.397210463771    -0.543046293508    14.003074004430
         C           -0.378786351986     0.210856678588     0.054546445363    12.000000000000
         C           -0.540214056944    -0.471669423374     1.260417054200    12.000000000000
         C            1.218362303796     1.725127667221    -1.086133034323    12.000000000000
         C           -1.499124163444     0.746635501677    -0.585662656409    12.000000000000
         C           -1.808547058145    -0.612017013265     1.813062789305    12.000000000000
         C           -2.925695050270    -0.070217812483     1.180573586978    12.000000000000
         C           -2.763595354471     0.615103778636    -0.019257683367    12.000000000000
         H            0.316840704753    -0.905836192474     1.749600115065     1.007825032230
         H           -1.384141833575     1.264042101566    -1.529997664948     1.007825032230
         C            3.215184437580    -0.204821314249    -1.097265239971    12.000000000000
         O            1.661576160595    -1.727941812863    -0.068039618473    15.994914619570
         H            1.177095398096     1.742135086828    -2.177302398377     1.007825032230
         H            0.489831142445     2.431606831433    -0.696019294477     1.007825032230
         H            2.206817906672     2.048965071489    -0.761632442165     1.007825032230
         H           -1.919399430488    -1.149119527567     2.745070140702     1.007825032230
         H           -3.621242670218     1.037675172004    -0.526842811633     1.007825032230
         H            3.128964214098     0.307918673884    -2.056793266446     1.007825032230
         H            3.756330100456     0.443119825565    -0.404224505848     1.007825032230
         H           -3.909686569375    -0.182796180958     1.615405105238     1.007825032230
         H            3.783176575390    -1.120747677355    -1.231882949510     1.007825032230

  Nuclear repulsion =  588.944449204638545

  ==> Basis Set <==

  Basis Set: 6-311G
    Blend: 6-311G
    Number of shells: 110
    Number of basis functions: 176
    Number of Cartesian functions: 176
    Spherical Harmonics?: true
    Max angular momentum: 1

  ==> DFJKGrad: Density-Fitted SCF Gradients <==

    Gradient:                    1
    J tasked:                  Yes
    K tasked:                  Yes
    wK tasked:                 Yes
    Omega:               2.000E-01
    OpenMP threads:              2
    Integrals threads:           2
    Memory [MiB]:             5841
    Schwarz Cutoff:          1E-12
    Fitting Condition:       1E-10

   => Auxiliary Basis Set <=

  Basis Set: (6-311G AUX)
    Blend: CC-PVTZ-JKFIT
    Number of shells: 385
    Number of basis functions: 1199
    Number of Cartesian functions: 1441
    Spherical Harmonics?: true
    Max angular momentum: 4

  ==> DFT Potential <==

   => LibXC <=

    Version 5.1.5
    S. Lehtola, C. Steigemann, M. J. Oliveira, and M. A. Marques, SoftwareX 7, 1 (2018) (10.1016/j.softx.2017.11.002)

   => Composite Functional: WB97X-D <= 

    wB97X-D Hyb-GGA Exchange-Correlation Functional

    J.-D. Chai and M. Head-Gordon, Phys. Chem. Chem. Phys. 10, 6615 (2008) (10.1039/B810189B)

    Deriv               =              1
    GGA                 =           TRUE
    Meta                =          FALSE

    Exchange Hybrid     =           TRUE
    MP2 Hybrid          =          FALSE

   => Exchange-Correlation Functionals <=

    1.0000   wB97X-D range-separated functional

   => Exact (HF) Exchange <=

    0.7780            HF,LR [omega = 0.2000]
    0.2220               HF 

   => LibXC Density Thresholds  <==

    XC_HYB_GGA_XC_WB97X_D:  1.00E-14 

   => Molecular Quadrature <=

    Radial Scheme          =       TREUTLER
    Pruning Scheme         =           NONE
    Nuclear Scheme         =       TREUTLER

    BS radius alpha        =              1
    Pruning alpha          =              1
    Radial Points          =             75
    Spherical Points       =            302
    Total Points           =         459696
    Total Blocks           =           3377
    Max Points             =            256
    Max Functions          =            155
    Weights Tolerance      =       1.00E-15


  -Total Gradient:
     Atom            X                  Y                   Z
    ------   -----------------  -----------------  -----------------
       1        0.001693093159    -0.009799289086     0.006421942176
       2       -0.005219882142    -0.000957330915    -0.007188867967
       3        0.002344781906     0.001545865350     0.005001972121
       4       -0.001788578229     0.000673363806    -0.002056333271
       5        0.002172243479    -0.000316394134    -0.001660807271
       6        0.001259025218    -0.001328164792     0.000411178705
       7        0.000552933721     0.000306846348    -0.000413277088
       8        0.000438313156     0.000148525271    -0.000913542662
       9        0.000852602698    -0.000558587193     0.001470500809
      10        0.000627774562     0.000082753181     0.000449370951
      11        0.000426658083     0.001111913983    -0.000465149204
      12        0.000073728607     0.005765470123     0.000960191813
      13       -0.000553997280     0.004516363146    -0.002398298266
      14       -0.000138005926    -0.000397554953     0.000066385978
      15       -0.001096953372    -0.000727284942     0.000815395350
      16        0.001565928614    -0.000857016847     0.000794057618
      17        0.000170531082    -0.000136854706    -0.000082502524
      18       -0.000345880880     0.000292869884    -0.000403662992
      19       -0.000826720674     0.001086538082    -0.001365797624
      20       -0.000507028821    -0.000093752242     0.000603160402
      21       -0.000382579654     0.000007277345    -0.000033233351
      22       -0.000931631526    -0.000522898245    -0.000278393755


*** tstop() called on node74.bme.utexas.edu at Wed Jun  8 11:39:25 2022
Module time:
	user time   =      34.14 seconds =       0.57 minutes
	system time =       0.66 seconds =       0.01 minutes
	total time  =         18 seconds =       0.30 minutes
Total time:
	user time   =     196.41 seconds =       3.27 minutes
	system time =       7.94 seconds =       0.13 minutes
	total time  =        104 seconds =       1.73 minutes

			-----------------------------------------
			 OPTKING 2.0: for geometry optimizations 
			  - R.A. King,  Bethel University        
			-----------------------------------------
	At level 1: Red. Int., RFO, no backsteps, dynamic trust

	Previous internal coordinate definitions found.
	---Fragment 1 Geometry and Gradient---
	 C           3.5384323122       -1.1267690634       -0.9843151645
	 N           1.7120728028        0.7506189907       -1.0262087682
	 C          -0.7158024653        0.3984613743        0.1030778429
	 C          -1.0208566167       -0.8913260319        2.3818430363
	 C           2.3023710758        3.2600188225       -2.0524939707
	 C          -2.8329340970        1.4109366137       -1.1067420225
	 C          -3.4176586249       -1.1565445392        3.4261921200
	 C          -5.5287623716       -0.1326924347        2.2309607503
	 C          -5.2224383415        1.1623776804       -0.0363917474
	 H           0.5987421574       -1.7117823183        3.3062650465
	 H          -2.6156489842        2.3886933830       -2.8912765593
	 C           6.0758180299       -0.3870561886       -2.0735307905
	 O           3.1399238801       -3.2653367870       -0.1285762446
	 H           2.2243879259        3.2921581877       -4.1145052252
	 H           0.9256467069        4.5950709562       -1.3152858446
	 H           4.1702814524        3.8719828257       -1.4392767240
	 H          -3.6271392490       -2.1715211925        5.1874307611
	 H          -6.8431568805        1.9609218823       -0.9955886252
	 H           5.9128854210        0.5818819626       -3.8867759703
	 H           7.0984351267        0.8373751111       -0.7638736093
	 H          -7.3882368525       -0.3454347188        3.0526732306
	 H           7.1491676117       -2.1179061659       -2.3279213932
	             0.0016930932       -0.0097992891        0.0064219422
	            -0.0052198821       -0.0009573309       -0.0071888680
	             0.0023447819        0.0015458654        0.0050019721
	            -0.0017885782        0.0006733638       -0.0020563333
	             0.0021722435       -0.0003163941       -0.0016608073
	             0.0012590252       -0.0013281648        0.0004111787
	             0.0005529337        0.0003068463       -0.0004132771
	             0.0004383132        0.0001485253       -0.0009135427
	             0.0008526027       -0.0005585872        0.0014705008
	             0.0006277746        0.0000827532        0.0004493710
	             0.0004266581        0.0011119140       -0.0004651492
	             0.0000737286        0.0057654701        0.0009601918
	            -0.0005539973        0.0045163631       -0.0023982983
	            -0.0001380059       -0.0003975550        0.0000663860
	            -0.0010969534       -0.0007272849        0.0008153953
	             0.0015659286       -0.0008570168        0.0007940576
	             0.0001705311       -0.0001368547       -0.0000825025
	            -0.0003458809        0.0002928699       -0.0004036630
	            -0.0008267207        0.0010865381       -0.0013657976
	            -0.0005070288       -0.0000937522        0.0006031604
	            -0.0003825797        0.0000072773       -0.0000332334
	            -0.0009316315       -0.0005228982       -0.0002783938

	---Fragment 1 Intrafragment Coordinates---
	 - Coordinate -           - BOHR/RAD -       - ANG/DEG -
	 R(1,2)           =         2.619529	       1.386195
	 R(1,12)          =         2.858652	       1.512734
	 R(1,13)          =         2.337642	       1.237027
	 R(2,3)           =         2.700719	       1.429159
	 R(2,5)           =         2.774671	       1.468293
	 R(3,4)           =         2.636168	       1.395000
	 R(3,6)           =         2.640268	       1.397170
	 R(4,7)           =         2.627863	       1.390605
	 R(4,10)          =         2.037352	       1.078120
	 R(5,14)          =         2.063736	       1.092082
	 R(5,15)          =         2.054558	       1.087225
	 R(5,16)          =         2.059035	       1.089594
	 R(6,9)           =         2.630050	       1.391762
	 R(6,11)          =         2.046408	       1.082912
	 R(7,8)           =         2.633175	       1.393416
	 R(7,17)          =         2.043532	       1.081390
	 R(8,9)           =         2.629055	       1.391236
	 R(8,21)          =         2.044044	       1.081662
	 R(9,18)          =         2.045595	       1.082482
	 R(12,19)         =         2.062340	       1.091343
	 R(12,20)         =         2.064020	       1.092232
	 R(12,22)         =         2.052471	       1.086121
	 B(1,2,3)         =         2.125432	     121.778276
	 B(1,2,5)         =         2.101057	     120.381671
	 B(1,12,19)       =         1.967577	     112.733864
	 B(1,12,20)       =         1.929977	     110.579520
	 B(1,12,22)       =         1.868362	     107.049264
	 B(2,1,12)        =         2.012309	     115.296838
	 B(2,1,13)        =         2.144390	     122.864483
	 B(2,3,4)         =         2.128546	     121.956695
	 B(2,3,6)         =         2.070596	     118.636400
	 B(2,5,14)        =         1.955854	     112.062185
	 B(2,5,15)        =         1.888517	     108.204027
	 B(2,5,16)        =         1.930115	     110.587450
	 B(3,2,5)         =         2.053123	     117.635265
	 B(3,4,7)         =         2.092614	     119.897978
	 B(3,4,10)        =         2.091235	     119.818940
	 B(3,6,9)         =         2.101107	     120.384571
	 B(3,6,11)        =         2.091697	     119.845419
	 B(4,3,6)         =         2.083948	     119.401417
	 B(4,7,8)         =         2.107848	     120.770799
	 B(4,7,17)        =         2.078462	     119.087081
	 B(6,9,8)         =         2.098316	     120.224656
	 B(6,9,18)        =         2.085306	     119.479257
	 B(7,4,10)        =         2.099124	     120.270950
	 B(7,8,9)         =         2.082412	     119.313398
	 B(7,8,21)        =         2.101797	     120.424094
	 B(8,7,17)        =         2.096875	     120.142113
	 B(8,9,18)        =         2.099459	     120.290163
	 B(9,6,11)        =         2.090374	     119.769586
	 B(9,8,21)        =         2.098973	     120.262306
	 B(12,1,13)       =         2.126479	     121.838293
	 B(14,5,15)       =         1.899774	     108.849038
	 B(14,5,16)       =         1.904157	     109.100144
	 B(15,5,16)       =         1.883777	     107.932475
	 B(19,12,20)      =         1.894741	     108.560683
	 B(19,12,22)      =         1.905560	     109.180517
	 B(20,12,22)      =         1.896331	     108.651742
	*D(1,2,3,4)       =         0.676243	      38.745866
	 D(1,2,3,6)       =        -2.480321	    -142.111897
	 D(1,2,5,14)      =         1.399248	      80.170993
	 D(1,2,5,15)      =        -2.789251	    -159.812323
	 D(1,2,5,16)      =        -0.729438	     -41.793736
	 D(2,1,12,19)     =        -0.816527	     -46.783528
	 D(2,1,12,20)     =         1.308123	      74.949951
	 D(2,1,12,22)     =        -2.912182	    -166.855739
	 D(2,3,4,7)       =         3.126004	     179.106808
	 D(2,3,4,10)      =        -0.037640	      -2.156640
	 D(2,3,6,9)       =        -3.114074	    -178.423275
	 D(2,3,6,11)      =         0.031663	       1.814153
	*D(3,2,1,12)      =        -3.059297	    -175.284800
	 D(3,2,1,13)      =         0.086177	       4.937597
	 D(3,2,5,14)      =        -1.831495	    -104.936921
	 D(3,2,5,15)      =         0.263192	      15.079763
	 D(3,2,5,16)      =         2.323004	     133.098349
	 D(3,4,7,8)       =        -0.007353	      -0.421280
	 D(3,4,7,17)      =         3.134728	     179.606686
	 D(3,6,9,8)       =        -0.017628	      -1.009982
	 D(3,6,9,18)      =         3.139373	     179.872816
	 D(4,3,2,5)       =        -2.374877	    -136.070406
	 D(4,3,6,9)       =         0.012939	       0.741365
	 D(4,3,6,11)      =        -3.124509	    -179.021206
	 D(4,7,8,9)       =         0.002771	       0.158783
	 D(4,7,8,21)      =         3.141520	     179.995835
	 D(5,2,1,12)      =        -0.010622	      -0.608589
	 D(5,2,1,13)      =         3.134852	     179.613808
	 D(5,2,3,6)       =         0.751745	      43.071830
	 D(6,3,4,7)       =        -0.000507	      -0.029051
	 D(6,3,4,10)      =         3.119034	     178.707501
	 D(6,9,8,7)       =         0.009693	       0.555350
	 D(6,9,8,21)      =        -3.129061	    -179.281971
	 D(7,8,9,18)      =         3.135752	     179.665341
	 D(8,7,4,10)      =        -3.126793	    -179.152052
	 D(8,9,6,11)      =         3.119824	     178.752769
	 D(9,8,7,17)      =        -3.139315	    -179.869477
	 D(10,4,7,17)     =         0.015288	       0.875913
	 D(11,6,9,18)     =        -0.006361	      -0.364432
[...]
	 - Coordinate -           - BOHR/RAD -       - ANG/DEG -
	 R(1,2)           =         2.614748	       1.383665
	 R(1,12)          =         2.854874	       1.510734
	 R(1,13)          =         2.348172	       1.242599
	 R(2,3)           =         2.707790	       1.432901
	 R(2,5)           =         2.772218	       1.466994
	 R(3,4)           =         2.642434	       1.398316
	 R(3,6)           =         2.643110	       1.398674
	 R(4,7)           =         2.628725	       1.391061
	 R(4,10)          =         2.034465	       1.076592
	 R(5,14)          =         2.065301	       1.092910
	 R(5,15)          =         2.053971	       1.086915
	 R(5,16)          =         2.054475	       1.087181
	 R(6,9)           =         2.631238	       1.392391
	 R(6,11)          =         2.043261	       1.081247
	 R(7,8)           =         2.633499	       1.393588
	 R(7,17)          =         2.043629	       1.081442
	 R(8,9)           =         2.630013	       1.391743
	 R(8,21)          =         2.043126	       1.081176
	 R(9,18)          =         2.043904	       1.081587
	 R(12,19)         =         2.061064	       1.090668
	 R(12,20)         =         2.063970	       1.092206
	 R(12,22)         =         2.051223	       1.085461
	 B(1,2,3)         =         2.121272	     121.539905
	 B(1,2,5)         =         2.111039	     120.953621
	 B(1,12,19)       =         1.967333	     112.719857
	 B(1,12,20)       =         1.940146	     111.162176
	 B(1,12,22)       =         1.870758	     107.186515
	 B(2,1,12)        =         2.046251	     117.241533
	 B(2,1,13)        =         2.136937	     122.437460
	 B(2,3,4)         =         2.121504	     121.553233
	 B(2,3,6)         =         2.079865	     119.167505
	 B(2,5,14)        =         1.956630	     112.106623
	 B(2,5,15)        =         1.900992	     108.918832
	 B(2,5,16)        =         1.933773	     110.797056
	 B(3,2,5)         =         2.050820	     117.503305
	 B(3,4,7)         =         2.092152	     119.871502
	 B(3,4,10)        =         2.092378	     119.884401
	 B(3,6,9)         =         2.102224	     120.448570
	 B(3,6,11)        =         2.095238	     120.048278
	 B(4,3,6)         =         2.081721	     119.273824
	 B(4,7,8)         =         2.109255	     120.851428
	 B(4,7,17)        =         2.078852	     119.109453
	 B(6,9,8)         =         2.098625	     120.242353
	 B(6,9,18)        =         2.085745	     119.504378
	 B(7,4,10)        =         2.098377	     120.228121
	 B(7,8,9)         =         2.082247	     119.303993
	 B(7,8,21)        =         2.100685	     120.360398
	 B(8,7,17)        =         2.095078	     120.039105
	 B(8,9,18)        =         2.098751	     120.249559
	 B(9,6,11)        =         2.085591	     119.495549
	 B(9,8,21)        =         2.100230	     120.334292
	 B(12,1,13)       =         2.099763	     120.307576
	 B(14,5,15)       =         1.897754	     108.733309
	 B(14,5,16)       =         1.895498	     108.604015
	 B(15,5,16)       =         1.877215	     107.556478
	 B(19,12,20)      =         1.885916	     108.055013
	 B(19,12,22)      =         1.903050	     109.036731
	 B(20,12,22)      =         1.895319	     108.593763
	*D(1,2,3,4)       =         0.676243	      38.745866
	 D(1,2,3,6)       =        -2.480267	    -142.108827
	 D(1,2,5,14)      =         1.424858	      81.638356
	 D(1,2,5,15)      =        -2.757381	    -157.986272
	 D(1,2,5,16)      =        -0.695852	     -39.869372
	 D(2,1,12,19)     =        -0.975138	     -55.871289
	 D(2,1,12,20)     =         1.145312	      65.621523
	 D(2,1,12,22)     =        -3.069126	    -175.847938
	 D(2,3,4,7)       =         3.115007	     178.476769
	 D(2,3,4,10)      =        -0.051900	      -2.973654
	 D(2,3,6,9)       =        -3.107946	    -178.072211
	 D(2,3,6,11)      =         0.051240	       2.935843
	*D(3,2,1,12)      =        -3.059297	    -175.284800
	 D(3,2,1,13)      =         0.059070	       3.384471
	 D(3,2,5,14)      =        -1.705602	     -97.723804
	 D(3,2,5,15)      =         0.395344	      22.651568
	 D(3,2,5,16)      =         2.456873	     140.768468
	 D(3,4,7,8)       =        -0.001694	      -0.097078
	 D(3,4,7,17)      =         3.140667	     179.946990
	 D(3,6,9,8)       =        -0.013137	      -0.752681
	 D(3,6,9,18)      =         3.140654	     179.946209
	 D(4,3,2,5)       =        -2.476551	    -141.895946
	 D(4,3,6,9)       =         0.019073	       1.092829
	 D(4,3,6,11)      =        -3.104925	    -177.899116
	 D(4,7,8,9)       =         0.007751	       0.444117
	 D(4,7,8,21)      =        -3.141103	    -179.971964
	 D(5,2,1,12)      =         0.093882	       5.379016
	 D(5,2,1,13)      =        -3.070937	    -175.951713
	 D(5,2,3,6)       =         0.650124	      37.249361
	 D(6,3,4,7)       =        -0.011653	      -0.667650
	 D(6,3,4,10)      =         3.104625	     177.881927
	 D(6,9,8,7)       =        -0.000337	      -0.019323
	 D(6,9,8,21)      =        -3.134670	    -179.603353
	 D(7,8,9,18)      =         3.128966	     179.276545
	 D(8,7,4,10)      =        -3.117884	    -178.641610
	 D(8,9,6,11)      =         3.110959	     178.244813
	 D(9,8,7,17)      =        -3.134618	    -179.600359
	 D(10,4,7,17)     =         0.024478	       1.402458
	 D(11,6,9,18)     =        -0.018436	      -1.056297
	 D(13,1,12,19)    =         2.189160	     125.429607
	 D(13,1,12,20)    =        -1.973576	    -113.077581
	 D(13,1,12,22)    =         0.095172	       5.452958
	 D(17,7,8,21)     =        -0.000287	      -0.016440
	 D(18,9,8,21)     =        -0.005367	      -0.307485
	 R(4,13)          =         5.350061	       2.831131

	Current energy   :      -479.3814703688

	Energy change for the previous step:
		Projected    :        -0.0000223426
		Actual       :        -0.0000071721

	Performing BFGS update.
	Previous computed or guess Hessian on step 1.
	Steps to be used in Hessian update: 2 1
	Taking RFO optimization step.
	Going to follow RFO solution 1.
	Using RFO vector 1.
	Norm of target step-size    0.01696
	Projected energy change by RFO approximation:        -0.0000136577

	Back-transformation to cartesian coordinates...
	Could not converge backtransformation.
	Using first guess instead.

	Back-transformation to cartesian coordinates to adjust frozen coordinates...
	Successfully converged to displaced geometry.

	--- Internal Coordinate Step in ANG or DEG, aJ/ANG or AJ/DEG ---
	 ---------------------------------------------------------------------------
	   Coordinate                Previous        Force       Change         New 
	   ----------                --------       ------       ------       ------
	    1 R(1,2)          =      1.383665    -0.000553     0.000001     1.383666
	    2 R(1,12)         =      1.510734    -0.000144     0.000047     1.510782
	    3 R(1,13)         =      1.242599    -0.000948    -0.000156     1.242443
	    4 R(2,3)          =      1.432901     0.000933     0.000000     1.432901
	    5 R(2,5)          =      1.466994    -0.000058    -0.000081     1.466913
	    6 R(3,4)          =      1.398316     0.000649     0.000043     1.398359
	    7 R(3,6)          =      1.398674     0.000413    -0.000077     1.398597
	    8 R(4,7)          =      1.391061    -0.000047    -0.000053     1.391009
	    9 R(4,10)         =      1.076592     0.000108    -0.000011     1.076582
	   10 R(5,14)         =      1.092910    -0.000347    -0.000146     1.092765
	   11 R(5,15)         =      1.086915    -0.000625    -0.000216     1.086699
	   12 R(5,16)         =      1.087181     0.000294    -0.000187     1.086995
	   13 R(6,9)          =      1.392391     0.000654     0.000073     1.392464
	   14 R(6,11)         =      1.081247     0.000050    -0.000026     1.081221
	   15 R(7,8)          =      1.393588     0.000554     0.000059     1.393646
	   16 R(7,17)         =      1.081442     0.000084    -0.000003     1.081438
	   17 R(8,9)          =      1.391743    -0.000099    -0.000064     1.391679
	   18 R(8,21)         =      1.081176     0.000040    -0.000014     1.081162
	   19 R(9,18)         =      1.081587     0.000079    -0.000015     1.081572
	   20 R(12,19)        =      1.090668    -0.000391    -0.000107     1.090561
	   21 R(12,20)        =      1.092206    -0.000735    -0.000184     1.092022
	   22 R(12,22)        =      1.085461    -0.000474    -0.000139     1.085321
	   23 B(1,2,3)        =    121.539905    -0.000001    -0.009997   121.529908
	   24 B(1,2,5)        =    120.953621    -0.000019    -0.013353   120.940268
	   25 B(1,12,19)      =    112.719857    -0.000020    -0.069259   112.650598
	   26 B(1,12,20)      =    111.162176     0.000015     0.052157   111.214333
	   27 B(1,12,22)      =    107.186515     0.000003     0.008779   107.195294
	   28 B(2,1,12)       =    117.241533    -0.000023    -0.048166   117.193367
	   29 B(2,1,13)       =    122.437460     0.000008     0.010873   122.448332
	   30 B(2,3,4)        =    121.553233    -0.000007    -0.013466   121.539767
	   31 B(2,3,6)        =    119.167505     0.000010     0.016106   119.183611
	   32 B(2,5,14)       =    112.106623    -0.000003    -0.005594   112.101029
	   33 B(2,5,15)       =    108.918832     0.000006     0.008459   108.927292
	   34 B(2,5,16)       =    110.797056     0.000000     0.009609   110.806666
	   35 B(3,2,5)        =    117.503305     0.000020     0.020942   117.524248
	   36 B(3,4,7)        =    119.871502     0.000001     0.003519   119.875021
	   37 B(3,4,10)       =    119.884401     0.000000     0.001221   119.885622
	   38 B(3,6,9)        =    120.448570     0.000001     0.002112   120.450682
	   39 B(3,6,11)       =    120.048278     0.000001     0.004844   120.053122
	   40 B(4,3,6)        =    119.273824    -0.000003    -0.003531   119.270293
	   41 B(4,7,8)        =    120.851428     0.000000    -0.000416   120.851012
	   42 B(4,7,17)       =    119.109453     0.000000     0.001365   119.110818
	   43 B(6,9,8)        =    120.242353    -0.000000     0.000834   120.243187
	   44 B(6,9,18)       =    119.504378    -0.000000    -0.003706   119.500673
	   45 B(7,4,10)       =    120.228121    -0.000001    -0.004706   120.223415
	   46 B(7,8,9)        =    119.303993     0.000001    -0.002129   119.301864
	   47 B(7,8,21)       =    120.360398    -0.000001    -0.001538   120.358860
	   48 B(8,7,17)       =    120.039105    -0.000000    -0.000955   120.038150
	   49 B(8,9,18)       =    120.249559     0.000001     0.002857   120.252415
	   50 B(9,6,11)       =    119.495549    -0.000002    -0.006714   119.488835
	   51 B(9,8,21)       =    120.334292     0.000000     0.003815   120.338107
	   52 B(12,1,13)      =    120.307576     0.000015     0.039365   120.346941
	   53 B(14,5,15)      =    108.733309    -0.000001    -0.000985   108.732324
	   54 B(14,5,16)      =    108.604015    -0.000003    -0.030373   108.573643
	   55 B(15,5,16)      =    107.556478     0.000001     0.019853   107.576332
	   56 B(19,12,20)     =    108.055013    -0.000000    -0.005784   108.049229
	   57 B(19,12,22)     =    109.036731     0.000005     0.003803   109.040534
	   58 B(20,12,22)     =    108.593763    -0.000002     0.012338   108.606101
	   59 *D(1,2,3,4)     =     38.745866     0.000000    -0.000000    38.745866
	   60 D(1,2,3,6)      =   -142.108827    -0.000000    -0.067389  -142.176216
	   61 D(1,2,5,14)     =     81.638356    -0.000000     0.182830    81.821186
	   62 D(1,2,5,15)     =   -157.986272    -0.000000     0.183725  -157.802548
	   63 D(1,2,5,16)     =    -39.869372     0.000001     0.218879   -39.650492
	   64 D(2,1,12,19)    =    -55.871289     0.000001     0.030300   -55.840989
	   65 D(2,1,12,20)    =     65.621523    -0.000000     0.011540    65.633063
	   66 D(2,1,12,22)    =   -175.847938     0.000001     0.061212  -175.786726
	   67 D(2,3,4,7)      =    178.476769    -0.000000    -0.029734   178.447035
	   68 D(2,3,4,10)     =     -2.973654    -0.000000    -0.028259    -3.001914
	   69 D(2,3,6,9)      =   -178.072211     0.000000     0.038661  -178.033550
	   70 D(2,3,6,11)     =      2.935843     0.000000     0.022531     2.958374
	   71 *D(3,2,1,12)    =   -175.284800     0.000000    -0.000000  -175.284800
	   72 D(3,2,1,13)     =      3.384471     0.000001     0.107364     3.491835
	   73 D(3,2,5,14)     =    -97.723804     0.000000     0.391174   -97.332629
	   74 D(3,2,5,15)     =     22.651568     0.000000     0.392069    23.043637
	   75 D(3,2,5,16)     =    140.768468     0.000001     0.427224   141.195692
	   76 D(3,4,7,8)      =     -0.097078    -0.000000    -0.017309    -0.114387
	   77 D(3,4,7,17)     =    179.946990    -0.000000    -0.010216   179.936774
	   78 D(3,6,9,8)      =     -0.752681    -0.000000    -0.003708    -0.756389
	   79 D(3,6,9,18)     =    179.946209    -0.000000    -0.002316   179.943893
	   80 D(4,3,2,5)      =   -141.895946    -0.000001    -0.209670  -142.105616
	   81 D(4,3,6,9)      =      1.092829    -0.000000    -0.027271     1.065558
	   82 D(4,3,6,11)     =   -177.899116    -0.000000    -0.043401  -177.942518
	   83 D(4,7,8,9)      =      0.444117    -0.000000    -0.013715     0.430402
	   84 D(4,7,8,21)     =   -179.971964     0.000000     0.010272  -179.961692
	   85 D(5,2,1,12)     =      5.379016     0.000001     0.216568     5.595585
	   86 D(5,2,1,13)     =   -175.951713     0.000001     0.323933  -175.627780
	   87 D(5,2,3,6)      =     37.249361    -0.000001    -0.277059    36.972302
	   88 D(6,3,4,7)      =     -0.667650     0.000000     0.037549    -0.630101
	   89 D(6,3,4,10)     =    177.881927     0.000000     0.039023   177.920950
	   90 D(6,9,8,7)      =     -0.019323     0.000000     0.024140     0.004817
	   91 D(6,9,8,21)     =   -179.603353    -0.000000     0.000181  -179.603172
	   92 D(7,8,9,18)     =    179.276545     0.000000     0.022691   179.299236
	   93 D(8,7,4,10)     =   -178.641610    -0.000000    -0.018876  -178.660486
	   94 D(8,9,6,11)     =    178.244813    -0.000000     0.012447   178.257260
	   95 D(9,8,7,17)     =   -179.600359    -0.000000    -0.020872  -179.621231
	   96 D(10,4,7,17)    =      1.402458    -0.000000    -0.011783     1.390675
	   97 D(11,6,9,18)    =     -1.056297     0.000000     0.013839    -1.042458
	   98 D(13,1,12,19)   =    125.429607    -0.000000    -0.074320   125.355287
	   99 D(13,1,12,20)   =   -113.077581    -0.000001    -0.093080  -113.170661
	  100 D(13,1,12,22)   =      5.452958     0.000001    -0.043408     5.409549
	  101 D(17,7,8,21)    =     -0.016440     0.000000     0.003115    -0.013325
	  102 D(18,9,8,21)    =     -0.307485    -0.000000    -0.001268    -0.308753
	  103 R(4,13)         =      2.831131     0.000197     0.000254     2.831385
	 ---------------------------------------------------------------------------
	Successfully symmetrized geometry.

  ==> Convergence Check <==

  Measures of convergence in internal coordinates in au.
  Criteria marked as inactive (o), active & met (*), and active & unmet ( ).
  ---------------------------------------------------------------------------------------------
   Step     Total Energy     Delta E     MAX Force     RMS Force      MAX Disp      RMS Disp   
  ---------------------------------------------------------------------------------------------
    Convergence Criteria             o    2.50e-03 *    1.70e-03 *    1.00e-02 *    6.70e-03 *
  ---------------------------------------------------------------------------------------------
      3    -479.38147037   -7.17e-06 o    3.01e-04 *    7.18e-05 *    7.46e-03 *    1.67e-03 *  ~
  ---------------------------------------------------------------------------------------------


  **** Optimization is complete! (in 3 steps) ****

  ==> Optimization Summary <==

  Measures of convergence in internal coordinates in au.
  --------------------------------------------------------------------------------------------------------------- ~
   Step         Total Energy             Delta E       MAX Force       RMS Force        MAX Disp        RMS Disp  ~
  --------------------------------------------------------------------------------------------------------------- ~
      1    -479.381448837497   -479.381448837497      0.00094917      0.00022161      0.01803265      0.00536352  ~
      2    -479.381463196666     -0.000014359168      0.00065975      0.00016497      0.01423541      0.00355714  ~
      3    -479.381470368783     -0.000007172118      0.00030093      0.00007179      0.00745646      0.00167106  ~
  --------------------------------------------------------------------------------------------------------------- ~

	Writing optimization data to binary file.
	Final energy is   -479.3814703687832
	Final (previous) structure:
	Cartesian Geometry (in Angstrom)
	    C     1.8581691907  -0.6043014232  -0.5512507310
	    N     0.9153386988   0.4083179444  -0.5370742836
	    C    -0.3720220706   0.2254391571   0.0649744315
	    C    -0.5286570680  -0.4963028342   1.2523415940
	    C     1.1959140378   1.7092171750  -1.1543352443
	    C    -1.4953394875   0.7977067225  -0.5407943728
	    C    -1.7905437331  -0.6253735608   1.8233357078
	    C    -2.9073261951  -0.0416191688   1.2282607509
	    C    -2.7532260192   0.6706994015   0.0425949703
	    H     0.3237729023  -0.9696988760   1.7087519334
	    H    -1.3938427487   1.3294082075  -1.4767895837
	    C     3.2206631130  -0.2727573826  -1.1133960562
	    O     1.6241327126  -1.7392138264  -0.1026376604
	    H     1.0381356100   1.6939667047  -2.2356893209
	    H     0.5390356584   2.4561759413  -0.7162177524
	    H     2.2198620231   2.0170525875  -0.9575336705
	    H    -1.8976860481  -1.1869663445   2.7412956454
	    H    -3.6113656114   1.1200892332  -0.4385248462
	    H     3.1728895798   0.1192387823  -2.1300640258
	    H     3.7357710771   0.4622691611  -0.4910510086
	    H    -3.8843687612  -0.1465868471   1.6791607481
	    H     3.7991716055  -1.1912072815  -1.1148871849
	Saving final (previous) structure.
	Cleaning optimization helper files.
			--------------------------
			 OPTKING Finished Execution 
			--------------------------

    Final optimized geometry and variables:
    Molecular point group: c1
    Full point group: C1

    Geometry (in Angstrom), charge = 0, multiplicity = 1:

    C            1.858169198009    -0.604301425532    -0.551250733145
    N            0.915338702354     0.408317945997    -0.537074285689
    C           -0.372022072038     0.225439157974     0.064974431747
    C           -0.528657070088    -0.496302836184     1.252341598962
    C            1.195914042503     1.709217181732    -1.154335248849
    C           -1.495339493391     0.797706725598    -0.540794374950
    C           -1.790543740184    -0.625373563303     1.823335714938
    C           -2.907326206573    -0.041619168937     1.228260755713
    C           -2.753226030016     0.670699404158     0.042594970431
    H            0.323772903581    -0.969698879860     1.708751940142
    H           -1.393842754163     1.329408212691    -1.476789589469
    C            3.220663125682    -0.272757383700    -1.113396060534
    O            1.624132718942    -1.739213833194    -0.102637660834
    H            1.038135614057     1.693966711390    -2.235689329713
    H            0.539035660511     2.456175950998    -0.716217755183
    H            2.219862031814     2.017052595381    -0.957533674228
    H           -1.897686055541    -1.186966349159     2.741295656196
    H           -3.611365625635     1.120089237570    -0.438524847887
    H            3.172889592300     0.119238782806    -2.130064034179
    H            3.735771091752     0.462269162963    -0.491051010490
    H           -3.884368776424    -0.146586847710     1.679160754687
    H            3.799171620395    -1.191207286170    -1.114887189314

	Removing binary optimization data file.
	Cleaning optimization helper files.

    Psi4 stopped on: Wednesday, 08 June 2022 11:46AM
    Psi4 wall time for execution: 0:09:04.75

*** Psi4 exiting successfully. Buy a developer a beer!
