
    -----------------------------------------------------------------------
          Psi4: An Open-Source Ab Initio Electronic Structure Package
                               Psi4 1.5 release

                         Git: Rev {HEAD} e9f4d6d 


    D. G. A. Smith, L. A. Burns, A. C. Simmonett, R. M. Parrish,
    M. C. Schieber, R. Galvelis, P. Kraus, H. Kruse, R. Di Remigio,
    A. Alenaizan, A. M. James, S. Lehtola, J. P. Misiewicz, M. Scheurer,
    R. A. Shaw, J. B. Schriber, Y. Xie, Z. L. Glick, D. A. Sirianni,
    J. S. O'Brien, J. M. Waldrop, A. Kumar, E. G. Hohenstein,
    B. P. Pritchard, B. R. Brooks, H. F. Schaefer III, A. Yu. Sokolov,
    K. Patkowski, A. E. DePrince III, U. Bozkaya, R. A. King,
    F. A. Evangelista, J. M. Turney, T. D. Crawford, C. D. Sherrill,
    J. Chem. Phys. 152(18) 184108 (2020). https://doi.org/10.1063/5.0006002

                            Additional Code Authors
    E. T. Seidl, C. L. Janssen, E. F. Valeev, M. L. Leininger,
    J. F. Gonthier, R. M. Richard, H. R. McAlexander, M. Saitow, X. Wang,
    P. Verma, M. H. Lechner, and A. Jiang

             Previous Authors, Complete List of Code Contributors,
                       and Citations for Specific Modules
    https://github.com/psi4/psi4/blob/master/codemeta.json
    https://github.com/psi4/psi4/graphs/contributors
    http://psicode.org/psi4manual/master/introduction.html#citing-psifour

    -----------------------------------------------------------------------


    Psi4 started on: Wednesday, 08 June 2022 11:54AM

    Process ID: 1099841
    Host:       node74.bme.utexas.edu
    PSIDATADIR: /home/bdw2292/miniconda3/envs/newamoebamdpoltype/share/psi4
    Memory:     500.0 MiB
    Threads:    1
    
  ==> Input File <==

--------------------------------------------------------------------------
molecule { 
0 1
 C    1.627753   -0.709450   -1.149090
 N    0.907208    0.369183   -0.599113
 C   -0.403278    0.134393   -0.065094
 C   -0.583523   -0.049057    1.328139
 C    1.416332    1.757792   -0.573486
 C   -1.535926    0.134741   -0.916405
 C   -1.872204   -0.240803    1.846722
 C   -2.989473   -0.247873    1.000098
 C   -2.815851   -0.059053   -0.377906
 H    0.276488   -0.043467    2.001118
 H   -1.415337    0.281570   -1.991461
 C    3.064508   -0.438764   -1.604037
 O    1.143928   -1.836032   -1.233304
 H    1.704912    2.080821   -1.574525
 H    0.650335    2.446237   -0.212195
 H    2.277649    1.835705    0.091387
 H   -2.001267   -0.380482    2.921507
 H   -3.682019   -0.056898   -1.042069
 H    3.083536    0.250344   -2.448397
 H    3.668204   -0.035928   -0.790477
 H   -3.989744   -0.397894    1.411514
 H    3.524450   -1.373788   -1.926659
}
set optking { 
  frozen_dihedral = ("
    1 2 3 4
    12 1 2 3
  ")
}
set {
  geom_maxiter 400
  g_convergence GAU_LOOSE
  dynamic_level 1
}
memory 8.166666666666666GB
set_num_threads(2)
psi4_io.set_default_path("/scratch/bdw2292/Psi4-3_24_Index_0-farH_in17")
for _ in range(1):
  try:
    set opt_coordinates both
    optimize('wb97x-d/6-311G')
    break
  except OptimizationConvergenceError:
    break
  else:
    try:
      set opt_coordinates cartesian
      optimize('wb97x-d/6-311G')
      break
    except OptimizationConvergenceError:
      pass
clean()
--------------------------------------------------------------------------

  Memory set to   7.606 GiB by Python driver.
  Threads set to 2 by Python driver.

Scratch directory: /scratch/bdw2292/Psi4-3_24_Index_0-farH_in17/

Scratch directory: /scratch/bdw2292/Psi4-3_24_Index_0-farH_in17/
gradient() will perform analytic gradient computation.

*** tstart() called on node74.bme.utexas.edu
*** at Wed Jun  8 11:54:36 2022

   => Loading Basis Set <=

    Name: 6-311G
    Role: ORBITAL
    Keyword: BASIS
    atoms 1, 3-9, 12   entry C          line    92 file /home/bdw2292/miniconda3/envs/newamoebamdpoltype/share/psi4/basis/6-311g.gbs 
    atoms 2            entry N          line   109 file /home/bdw2292/miniconda3/envs/newamoebamdpoltype/share/psi4/basis/6-311g.gbs 
    atoms 10-11, 14-22 entry H          line    21 file /home/bdw2292/miniconda3/envs/newamoebamdpoltype/share/psi4/basis/6-311g.gbs 
    atoms 13           entry O          line   126 file /home/bdw2292/miniconda3/envs/newamoebamdpoltype/share/psi4/basis/6-311g.gbs 

   => WB97X-D: Empirical Dispersion <=

    Chai and Head-Gordon Dispersion Correction
    Chai, J.-D.; Head-Gordon, M. (2010), J. Chem. Phys., 132: 6615-6620

        s6 =       1.000000


         ---------------------------------------------------------
                                   SCF
               by Justin Turney, Rob Parrish, Andy Simmonett
                          and Daniel G. A. Smith
                              RKS Reference
                        2 Threads,   7788 MiB Core
         ---------------------------------------------------------

  ==> Geometry <==

    Molecular point group: c1
    Full point group: C1

    Geometry (in Angstrom), charge = 0, multiplicity = 1:

       Center              X                  Y                   Z               Mass       
    ------------   -----------------  -----------------  -----------------  -----------------
         C            1.721458151295    -0.600973601134    -0.895294664858    12.000000000000
         N            1.000913151295     0.477659398866    -0.345317664858    14.003074004430
         C           -0.309572848705     0.242869398866     0.188701335142    12.000000000000
         C           -0.489817848705     0.059419398866     1.581934335142    12.000000000000
         C            1.510037151295     1.866268398866    -0.319690664858    12.000000000000
         C           -1.442220848705     0.243217398866    -0.662609664858    12.000000000000
         C           -1.778498848705    -0.132326601134     2.100517335142    12.000000000000
         C           -2.895767848705    -0.139396601134     1.253893335142    12.000000000000
         C           -2.722145848705     0.049423398866    -0.124110664858    12.000000000000
         H            0.370193151295     0.065009398866     2.254913335142     1.007825032230
         H           -1.321631848705     0.390046398866    -1.737665664858     1.007825032230
         C            3.158213151295    -0.330287601134    -1.350241664858    12.000000000000
         O            1.237633151295    -1.727555601134    -0.979508664858    15.994914619570
         H            1.798617151295     2.189297398866    -1.320729664858     1.007825032230
         H            0.744040151295     2.554713398866     0.041600335142     1.007825032230
         H            2.371354151295     1.944181398866     0.345182335142     1.007825032230
         H           -1.907561848705    -0.272005601134     3.175302335142     1.007825032230
         H           -3.588313848705     0.051578398866    -0.788273664858     1.007825032230
         H            3.177241151295     0.358820398866    -2.194601664858     1.007825032230
         H            3.761909151295     0.072548398866    -0.536681664858     1.007825032230
         H           -3.896038848705    -0.289417601134     1.665309335142     1.007825032230
         H            3.618155151295    -1.265311601134    -1.672863664858     1.007825032230

  Running in c1 symmetry.

  Rotational constants: A =      0.07870  B =      0.02278  C =      0.02172 [cm^-1]
  Rotational constants: A =   2359.43631  B =    682.88226  C =    651.08345 [MHz]
  Nuclear repulsion =  582.435836363389285

  Charge       = 0
  Multiplicity = 1
  Electrons    = 80
  Nalpha       = 40
  Nbeta        = 40

  ==> Algorithm <==

  SCF Algorithm Type is DF.
  DIIS enabled.
  MOM disabled.
  Fractional occupation disabled.
  Guess Type is SAD.
  Energy threshold   = 1.00e-08
  Density threshold  = 1.00e-08
  Integral threshold = 1.00e-12

  ==> Primary Basis <==

  Basis Set: 6-311G
    Blend: 6-311G
    Number of shells: 110
    Number of basis functions: 176
    Number of Cartesian functions: 176
    Spherical Harmonics?: true
    Max angular momentum: 1

  ==> DFT Potential <==

   => LibXC <=

    Version 5.1.5
    S. Lehtola, C. Steigemann, M. J. Oliveira, and M. A. Marques, SoftwareX 7, 1 (2018) (10.1016/j.softx.2017.11.002)

   => Composite Functional: WB97X-D <= 

    wB97X-D Hyb-GGA Exchange-Correlation Functional

    J.-D. Chai and M. Head-Gordon, Phys. Chem. Chem. Phys. 10, 6615 (2008) (10.1039/B810189B)

    Deriv               =              1
    GGA                 =           TRUE
    Meta                =          FALSE

    Exchange Hybrid     =           TRUE
    MP2 Hybrid          =          FALSE

   => Exchange-Correlation Functionals <=

    1.0000   wB97X-D range-separated functional

   => Exact (HF) Exchange <=

    0.7780            HF,LR [omega = 0.2000]
    0.2220               HF 

   => LibXC Density Thresholds  <==

    XC_HYB_GGA_XC_WB97X_D:  1.00E-14 

   => Molecular Quadrature <=

    Radial Scheme          =       TREUTLER
    Pruning Scheme         =           NONE
    Nuclear Scheme         =       TREUTLER

    BS radius alpha        =              1
    Pruning alpha          =              1
    Radial Points          =             75
    Spherical Points       =            302
    Total Points           =         460943
    Total Blocks           =           3400
    Max Points             =            256
    Max Functions          =            148
    Weights Tolerance      =       1.00E-15

   => Loading Basis Set <=

    Name: (6-311G AUX)
    Role: JKFIT
    Keyword: DF_BASIS_SCF
    atoms 1, 3-9, 12   entry C          line   125 file /home/bdw2292/miniconda3/envs/newamoebamdpoltype/share/psi4/basis/cc-pvtz-jkfit.gbs 
    atoms 2            entry N          line   177 file /home/bdw2292/miniconda3/envs/newamoebamdpoltype/share/psi4/basis/cc-pvtz-jkfit.gbs 
    atoms 10-11, 14-22 entry H          line    51 file /home/bdw2292/miniconda3/envs/newamoebamdpoltype/share/psi4/basis/cc-pvtz-jkfit.gbs 
    atoms 13           entry O          line   229 file /home/bdw2292/miniconda3/envs/newamoebamdpoltype/share/psi4/basis/cc-pvtz-jkfit.gbs 

  ==> Integral Setup <==

  DFHelper Memory: AOs need 0.747 GiB; user supplied 4.285 GiB. Using in-core AOs.

  ==> MemDFJK: Density-Fitted J/K Matrices <==

    J tasked:                   Yes
    K tasked:                   Yes
    wK tasked:                  Yes
    Omega:                2.000E-01
    OpenMP threads:               2
    Memory [MiB]:              4387
    Algorithm:                 Core
    Schwarz Cutoff:           1E-12
    Mask sparsity (%):      12.0610
    Fitting Condition:        1E-10

   => Auxiliary Basis Set <=

  Basis Set: (6-311G AUX)
    Blend: CC-PVTZ-JKFIT
    Number of shells: 385
    Number of basis functions: 1199
    Number of Cartesian functions: 1441
    Spherical Harmonics?: true
    Max angular momentum: 4

  Cached 100.0% of DFT collocation blocks in 1.420 [GiB].

  Minimum eigenvalue in the overlap matrix is 2.6057721153E-04.
  Reciprocal condition number of the overlap matrix is 3.9469086632E-05.
    Using symmetric orthogonalization.

  ==> Pre-Iterations <==

  SCF Guess: Superposition of Atomic Densities via on-the-fly atomic UHF (no occupation information).

   -------------------------
    Irrep   Nso     Nmo    
   -------------------------
     A        176     176 
   -------------------------
    Total     176     176
   -------------------------

  ==> Iterations <==

                           Total Energy        Delta E     RMS |[F,P]|

   @DF-RKS iter SAD:  -478.43542341597851   -4.78435e+02   0.00000e+00 
   @DF-RKS iter   1:  -478.97189982938488   -5.36476e-01   5.24799e-03 DIIS
   @DF-RKS iter   2:  -479.04837669135532   -7.64769e-02   5.24486e-03 DIIS
   @DF-RKS iter   3:  -479.35107720466470   -3.02701e-01   1.43834e-03 DIIS
   @DF-RKS iter   4:  -479.37542413099476   -2.43469e-02   2.38116e-04 DIIS
   @DF-RKS iter   5:  -479.37611490534272   -6.90774e-04   9.81215e-05 DIIS
   @DF-RKS iter   6:  -479.37624194260292   -1.27037e-04   2.26794e-05 DIIS
   @DF-RKS iter   7:  -479.37624924273746   -7.30013e-06   7.14064e-06 DIIS
   @DF-RKS iter   8:  -479.37625020768769   -9.64950e-07   2.00647e-06 DIIS
   @DF-RKS iter   9:  -479.37625029959645   -9.19088e-08   9.92973e-07 DIIS
   @DF-RKS iter  10:  -479.37625032137311   -2.17767e-08   2.39260e-07 DIIS
   @DF-RKS iter  11:  -479.37625032311314   -1.74003e-09   9.49256e-08 DIIS
   @DF-RKS iter  12:  -479.37625032330493   -1.91790e-10   2.21101e-08 DIIS
   @DF-RKS iter  13:  -479.37625032332494   -2.00089e-11   5.82693e-09 DIIS
  Energy and wave function converged.


  ==> Post-Iterations <==

   Electrons on quadrature grid:
      Ntotal   =   79.9999820322 ; deviation = -1.797e-05 

    Orbital Energies [Eh]
    ---------------------

    Doubly Occupied:                                                      

       1A    -19.208484     2A    -14.468844     3A    -10.400798  
       4A    -10.340101     5A    -10.329119     6A    -10.300871  
       7A    -10.299888     8A    -10.299343     9A    -10.298837  
      10A    -10.298345    11A    -10.291725    12A     -1.150805  
      13A     -1.042892    14A     -0.957387    15A     -0.863936  
      16A     -0.854452    17A     -0.836193    18A     -0.805038  
      19A     -0.719172    20A     -0.708836    21A     -0.653160  
      22A     -0.604415    23A     -0.581469    24A     -0.573343  
      25A     -0.567001    26A     -0.539082    27A     -0.535552  
      28A     -0.516634    29A     -0.514305    30A     -0.498295  
      31A     -0.493308    32A     -0.478592    33A     -0.455600  
      34A     -0.450687    35A     -0.444466    36A     -0.433023  
      37A     -0.335373    38A     -0.333184    39A     -0.329247  
      40A     -0.320287  

    Virtual:                                                              

      41A      0.054725    42A      0.058922    43A      0.093877  
      44A      0.106368    45A      0.129260    46A      0.149076  
      47A      0.157501    48A      0.163572    49A      0.168576  
      50A      0.179321    51A      0.199986    52A      0.201000  
      53A      0.208415    54A      0.218634    55A      0.234200  
      56A      0.250054    57A      0.270337    58A      0.296429  
      59A      0.335988    60A      0.344571    61A      0.348944  
      62A      0.363483    63A      0.366413    64A      0.380646  
      65A      0.385485    66A      0.408911    67A      0.422543  
      68A      0.446658    69A      0.460068    70A      0.479026  
      71A      0.481162    72A      0.491618    73A      0.494237  
      74A      0.507977    75A      0.511321    76A      0.520007  
      77A      0.544772    78A      0.547959    79A      0.562002  
      80A      0.587093    81A      0.594391    82A      0.599158  
      83A      0.624587    84A      0.631955    85A      0.635250  
      86A      0.641709    87A      0.656983    88A      0.673784  
      89A      0.676635    90A      0.683355    91A      0.688250  
      92A      0.695192    93A      0.701268    94A      0.730429  
      95A      0.738189    96A      0.746953    97A      0.752823  
      98A      0.760157    99A      0.774175   100A      0.811255  
     101A      0.821258   102A      0.850894   103A      0.860444  
     104A      0.874047   105A      0.881195   106A      0.909499  
     107A      0.910380   108A      0.953372   109A      0.969682  
     110A      0.977834   111A      1.015601   112A      1.071158  
     113A      1.088700   114A      1.117016   115A      1.126689  
     116A      1.167600   117A      1.221240   118A      1.278714  
     119A      1.362333   120A      1.480909   121A      1.735868  
     122A      2.291862   123A      2.295901   124A      2.326702  
     125A      2.333884   126A      2.339956   127A      2.350715  
     128A      2.370990   129A      2.409465   130A      2.431956  
     131A      2.441076   132A      2.623082   133A      2.636089  
     134A      2.660567   135A      2.677186   136A      2.714243  
     137A      2.781514   138A      2.807535   139A      2.832891  
     140A      2.853743   141A      2.880816   142A      2.895959  
     143A      2.927917   144A      2.941125   145A      2.975360  
     146A      2.998434   147A      3.011343   148A      3.049014  
     149A      3.111619   150A      3.123893   151A      3.144883  
     152A      3.174012   153A      3.201424   154A      3.262967  
     155A      3.298349   156A      3.300966   157A      3.345730  
     158A      3.396772   159A      3.515417   160A      3.946472  
     161A      4.114607   162A      4.239990   163A      4.990746  
     164A      5.071939   165A      5.093053   166A     23.249586  
     167A     23.440002   168A     23.473685   169A     23.489422  
     170A     23.545467   171A     23.634872   172A     23.717837  
     173A     23.743555   174A     23.989191   175A     35.559457  
     176A     50.051201  

    Final Occupation by Irrep:
              A 
    DOCC [    40 ]

  @DF-RKS Final Energy:  -479.37625032332494

   => Energetics <=

    Nuclear Repulsion Energy =            582.4358363633892850
    One-Electron Energy =               -1803.4481702742539255
    Two-Electron Energy =                 788.6584638434181898
    DFT Exchange-Correlation Energy =     -47.0097042242111485
    Empirical Dispersion Energy =          -0.0126760316674503
    VV10 Nonlocal Energy =                  0.0000000000000000
    Total Energy =                       -479.3762503233249390

Computation Completed


Properties will be evaluated at   0.000000,   0.000000,   0.000000 [a0]

Properties computed using the SCF density matrix

  Nuclear Dipole Moment: [e a0]
     X:     4.8103      Y:     5.4271      Z:    -0.7242

  Electronic Dipole Moment: [e a0]
     X:    -4.5253      Y:    -3.8559      Z:     0.9528

  Dipole Moment: [e a0]
     X:     0.2850      Y:     1.5712      Z:     0.2287     Total:     1.6131

  Dipole Moment: [D]
     X:     0.7245      Y:     3.9936      Z:     0.5813     Total:     4.1002


*** tstop() called on node74.bme.utexas.edu at Wed Jun  8 11:55:12 2022
Module time:
	user time   =      67.90 seconds =       1.13 minutes
	system time =       2.95 seconds =       0.05 minutes
	total time  =         36 seconds =       0.60 minutes
Total time:
	user time   =      67.90 seconds =       1.13 minutes
	system time =       2.95 seconds =       0.05 minutes
	total time  =         36 seconds =       0.60 minutes

*** tstart() called on node74.bme.utexas.edu
*** at Wed Jun  8 11:55:12 2022


         ------------------------------------------------------------
                                   SCF GRAD                          
                          Rob Parrish, Justin Turney,                
                       Andy Simmonett, and Alex Sokolov              
         ------------------------------------------------------------

  ==> Geometry <==

    Molecular point group: c1
    Full point group: C1

    Geometry (in Angstrom), charge = 0, multiplicity = 1:

       Center              X                  Y                   Z               Mass       
    ------------   -----------------  -----------------  -----------------  -----------------
         C            1.721458151295    -0.600973601134    -0.895294664858    12.000000000000
         N            1.000913151295     0.477659398866    -0.345317664858    14.003074004430
         C           -0.309572848705     0.242869398866     0.188701335142    12.000000000000
         C           -0.489817848705     0.059419398866     1.581934335142    12.000000000000
         C            1.510037151295     1.866268398866    -0.319690664858    12.000000000000
         C           -1.442220848705     0.243217398866    -0.662609664858    12.000000000000
         C           -1.778498848705    -0.132326601134     2.100517335142    12.000000000000
         C           -2.895767848705    -0.139396601134     1.253893335142    12.000000000000
         C           -2.722145848705     0.049423398866    -0.124110664858    12.000000000000
         H            0.370193151295     0.065009398866     2.254913335142     1.007825032230
         H           -1.321631848705     0.390046398866    -1.737665664858     1.007825032230
         C            3.158213151295    -0.330287601134    -1.350241664858    12.000000000000
         O            1.237633151295    -1.727555601134    -0.979508664858    15.994914619570
         H            1.798617151295     2.189297398866    -1.320729664858     1.007825032230
         H            0.744040151295     2.554713398866     0.041600335142     1.007825032230
         H            2.371354151295     1.944181398866     0.345182335142     1.007825032230
         H           -1.907561848705    -0.272005601134     3.175302335142     1.007825032230
         H           -3.588313848705     0.051578398866    -0.788273664858     1.007825032230
         H            3.177241151295     0.358820398866    -2.194601664858     1.007825032230
         H            3.761909151295     0.072548398866    -0.536681664858     1.007825032230
         H           -3.896038848705    -0.289417601134     1.665309335142     1.007825032230
         H            3.618155151295    -1.265311601134    -1.672863664858     1.007825032230

  Nuclear repulsion =  582.435836363389285

  ==> Basis Set <==

  Basis Set: 6-311G
    Blend: 6-311G
    Number of shells: 110
    Number of basis functions: 176
    Number of Cartesian functions: 176
    Spherical Harmonics?: true
    Max angular momentum: 1

  ==> DFJKGrad: Density-Fitted SCF Gradients <==

    Gradient:                    1
    J tasked:                  Yes
    K tasked:                  Yes
    wK tasked:                 Yes
    Omega:               2.000E-01
    OpenMP threads:              2
    Integrals threads:           2
    Memory [MiB]:             5841
    Schwarz Cutoff:          1E-12
    Fitting Condition:       1E-10

   => Auxiliary Basis Set <=

  Basis Set: (6-311G AUX)
    Blend: CC-PVTZ-JKFIT
    Number of shells: 385
    Number of basis functions: 1199
    Number of Cartesian functions: 1441
    Spherical Harmonics?: true
    Max angular momentum: 4

  ==> DFT Potential <==

   => LibXC <=

    Version 5.1.5
    S. Lehtola, C. Steigemann, M. J. Oliveira, and M. A. Marques, SoftwareX 7, 1 (2018) (10.1016/j.softx.2017.11.002)

   => Composite Functional: WB97X-D <= 

    wB97X-D Hyb-GGA Exchange-Correlation Functional

    J.-D. Chai and M. Head-Gordon, Phys. Chem. Chem. Phys. 10, 6615 (2008) (10.1039/B810189B)

    Deriv               =              1
    GGA                 =           TRUE
    Meta                =          FALSE

    Exchange Hybrid     =           TRUE
    MP2 Hybrid          =          FALSE

   => Exchange-Correlation Functionals <=

    1.0000   wB97X-D range-separated functional

   => Exact (HF) Exchange <=

    0.7780            HF,LR [omega = 0.2000]
    0.2220               HF 

   => LibXC Density Thresholds  <==

    XC_HYB_GGA_XC_WB97X_D:  1.00E-14 

   => Molecular Quadrature <=

    Radial Scheme          =       TREUTLER
    Pruning Scheme         =           NONE
    Nuclear Scheme         =       TREUTLER

    BS radius alpha        =              1
    Pruning alpha          =              1
    Radial Points          =             75
    Spherical Points       =            302
    Total Points           =         460943
    Total Blocks           =           3400
    Max Points             =            256
    Max Functions          =            148
    Weights Tolerance      =       1.00E-15


  -Total Gradient:
     Atom            X                  Y                   Z
    ------   -----------------  -----------------  -----------------
       1       -0.008285247319    -0.022137585870    -0.006368798430
       2       -0.008349752170     0.004946846684     0.007416654881
       3        0.019137750310     0.002355432999    -0.006418929719
       4        0.001898855967    -0.000830068033     0.011090739352
       5       -0.003314200890     0.007793825719     0.000677544288
       6       -0.006284145475     0.000910246499    -0.009208965862
       7       -0.000427860156    -0.000972828941     0.000569438434
       8       -0.002976052810    -0.000406970661     0.000913142936
       9       -0.001402368845    -0.000653502591     0.000310907585
      10        0.004108949380     0.000394991940     0.006535183146
      11       -0.001769992030     0.001444415888    -0.007436742499
      12        0.008009474354     0.000077509301    -0.001879612863
      13        0.008475978655     0.011080525780    -0.000214088483
      14       -0.001197735627    -0.000399699483     0.000027209247
      15        0.000953759070     0.006335830320     0.000423353467
      16       -0.001470673221    -0.001774146632     0.000362421734
      17       -0.000604864248    -0.000473167485     0.006516739791
      18       -0.005206385350     0.000375349124    -0.004129030388
      19       -0.001122331036    -0.002886079809    -0.000905805527
      20        0.000422625249    -0.003373552528     0.000497166956
      21       -0.006647903932    -0.000938318659     0.002612016363
      22        0.005680184848    -0.000599101893    -0.001543479734


*** tstop() called on node74.bme.utexas.edu at Wed Jun  8 11:55:28 2022
Module time:
	user time   =      30.79 seconds =       0.51 minutes
	system time =       0.31 seconds =       0.01 minutes
	total time  =         16 seconds =       0.27 minutes
Total time:
	user time   =      98.69 seconds =       1.64 minutes
	system time =       3.26 seconds =       0.05 minutes
	total time  =         52 seconds =       0.87 minutes

			-----------------------------------------
			 OPTKING 2.0: for geometry optimizations 
			  - R.A. King,  Bethel University        
			-----------------------------------------
	At level 1: Red. Int., RFO, no backsteps, dynamic trust

	Internal coordinates to be generated automatically.
	Detected frag 1 with atoms:  1 2 3 4 5 6 7 8 9 10 11 12 13 14 15 16 17 18 19 20
	 21 22
	---Fragment 1 Bond Connectivity---
	 1 : 2 12 13
	 2 : 1 3 5
	 3 : 2 4 6
	 4 : 3 7 10
	 5 : 2 14 15 16
	 6 : 3 9 11
	 7 : 4 8 17
	 8 : 7 9 21
	 9 : 6 8 18
	 10 : 4
	 11 : 6
	 12 : 1 19 20 22
	 13 : 1
	 14 : 5
	 15 : 5
	 16 : 5
	 17 : 7
	 18 : 9
	 19 : 12
	 20 : 12
	 21 : 8
	 22 : 12

	Assuming in current code that numbering for constraints corresponds to unified fragment.
	Frozen dihedral atom list: 
	     1     2     3     4
	    12     1     2     3
	---Fragment 1 Geometry and Gradient---
	 C           3.2530844424       -1.1356755148       -1.6918617182
	 N           1.8914517313        0.9026454451       -0.6525558129
	 C          -0.5850078999        0.4589566481        0.3565938429
	 C          -0.9256215854        0.1122863904        2.9894226419
	 C           2.8535566552        3.5267361505       -0.6041278014
	 C          -2.7254024165        0.4596142728       -1.2521507947
	 C          -3.3608757385       -0.2500610353        3.9694024852
	 C          -5.4722081570       -0.2634213990        2.3695149940
	 C          -5.1441101276        0.0933966880       -0.2345351658
	 H           0.6995636695        0.1228499594        4.2611686401
	 H          -2.4975222327        0.7370808701       -3.2837122042
	 C           5.9681579018       -0.6241531088       -2.5515869498
	 O           2.3387876997       -3.2646069526       -1.8510031141
	 H           3.3988938205        4.1371724910       -2.4958173523
	 H           1.4060321123        4.8277086529        0.0786132401
	 H           4.4812098924        3.6739703821        0.6523000768
	 H          -3.6047694614       -0.5140160907        6.0004517789
	 H          -6.7809304262        0.0974690478       -1.4896213385
	 H           6.0041156105        0.6780722821       -4.1471961011
	 H           7.1089780048        0.1370966047       -1.0141813631
	 H          -7.3624463982       -0.5469200020        3.1469785576
	 H           6.8373223154       -2.3910923895       -3.1612541718
	            -0.0082852473       -0.0221375859       -0.0063687984
	            -0.0083497522        0.0049468467        0.0074166549
	             0.0191377503        0.0023554330       -0.0064189297
	             0.0018988560       -0.0008300680        0.0110907394
	            -0.0033142009        0.0077938257        0.0006775443
	            -0.0062841455        0.0009102465       -0.0092089659
	            -0.0004278602       -0.0009728289        0.0005694384
	            -0.0029760528       -0.0004069707        0.0009131429
	            -0.0014023688       -0.0006535026        0.0003109076
	             0.0041089494        0.0003949919        0.0065351831
	            -0.0017699920        0.0014444159       -0.0074367425
	             0.0080094744        0.0000775093       -0.0018796129
	             0.0084759787        0.0110805258       -0.0002140885
	            -0.0011977356       -0.0003996995        0.0000272092
	             0.0009537591        0.0063358303        0.0004233535
	            -0.0014706732       -0.0017741466        0.0003624217
	            -0.0006048642       -0.0004731675        0.0065167398
	            -0.0052063853        0.0003753491       -0.0041290304
	            -0.0011223310       -0.0028860798       -0.0009058055
	             0.0004226252       -0.0033735525        0.0004971670
	            -0.0066479039       -0.0009383187        0.0026120164
	             0.0056801848       -0.0005991019       -0.0015434797

	Previous optimization step data not found.  Starting new optimization.

	---Fragment 1 Intrafragment Coordinates---
	 - Coordinate -           - BOHR/RAD -       - ANG/DEG -
	 R(1,2)           =         2.662509	       1.408939
	 R(1,12)          =         2.893511	       1.531180
	 R(1,13)          =         2.322415	       1.228969
	 R(2,3)           =         2.710737	       1.434460
	 R(2,5)           =         2.795325	       1.479222
	 R(3,4)           =         2.677309	       1.416771
	 R(3,6)           =         2.677564	       1.416906
	 R(4,7)           =         2.649928	       1.402282
	 R(4,10)          =         2.063656	       1.092040
	 R(5,14)          =         2.061192	       1.090736
	 R(5,15)          =         2.062521	       1.091439
	 R(5,16)          =         2.061442	       1.090868
	 R(6,9)           =         2.649491	       1.402050
	 R(6,11)          =         2.063046	       1.091717
	 R(7,8)           =         2.649065	       1.401825
	 R(7,17)          =         2.062600	       1.091481
	 R(8,9)           =         2.648782	       1.401675
	 R(8,21)          =         2.063449	       1.091930
	 R(9,18)          =         2.062629	       1.091496
	 R(12,19)         =         2.059867	       1.090035
	 R(12,20)         =         2.060240	       1.090232
	 R(12,22)         =         2.061362	       1.090826
	 B(1,2,3)         =         2.079703	     119.158213
	 B(1,2,5)         =         2.152456	     123.326641
	 B(1,12,19)       =         1.937238	     110.995560
	 B(1,12,20)       =         1.942480	     111.295885
	 B(1,12,22)       =         1.909206	     109.389433
	 B(2,1,12)        =         2.049371	     117.420316
	 B(2,1,13)        =         2.126097	     121.816358
	 B(2,3,4)         =         2.098458	     120.232799
	 B(2,3,6)         =         2.102010	     120.436294
	 B(2,5,14)        =         1.931761	     110.681758
	 B(2,5,15)        =         1.935110	     110.873621
	 B(2,5,16)        =         1.927689	     110.448418
	 B(3,2,5)         =         2.050639	     117.492946
	 B(3,4,7)         =         2.092423	     119.887010
	 B(3,4,10)        =         2.100371	     120.342394
	 B(3,6,9)         =         2.093187	     119.930762
	 B(3,6,11)        =         2.098313	     120.224506
	 B(4,3,6)         =         2.081939	     119.286343
	 B(4,7,8)         =         2.105733	     120.649607
	 B(4,7,17)        =         2.083256	     119.361759
	 B(6,9,8)         =         2.105158	     120.616642
	 B(6,9,18)        =         2.083410	     119.370576
	 B(7,4,10)        =         2.090390	     119.770535
	 B(7,8,9)         =         2.087874	     119.626372
	 B(7,8,21)        =         2.098149	     120.215067
	 B(8,7,17)        =         2.094184	     119.987931
	 B(8,9,18)        =         2.094606	     120.012060
	 B(9,6,11)        =         2.091678	     119.844300
	 B(9,8,21)        =         2.097161	     120.158480
	 B(12,1,13)       =         2.107261	     120.737151
	 B(14,5,15)       =         1.878298	     107.618543
	 B(14,5,16)       =         1.906376	     109.227283
	 B(15,5,16)       =         1.883185	     107.898535
	 B(19,12,20)      =         1.912171	     109.559338
	 B(19,12,22)      =         1.881190	     107.784221
	 B(20,12,22)      =         1.879628	     107.694751
	*D(1,2,3,4)       =         1.709710	      97.959143
	 D(1,2,3,6)       =        -1.474559	     -84.485996
	 D(1,2,5,14)      =         0.940277	      53.873921
	 D(1,2,5,15)      =         3.023403	     173.228213
	 D(1,2,5,16)      =        -1.173194	     -67.219074
	 D(2,1,12,19)     =        -1.151107	     -65.953599
	 D(2,1,12,20)     =         0.983565	      56.354124
	 D(2,1,12,22)     =         3.058468	     175.237298
	 D(2,3,4,7)       =         3.110487	     178.217790
	 D(2,3,4,10)      =        -0.032695	      -1.873268
	 D(2,3,6,9)       =        -3.110768	    -178.233876
	 D(2,3,6,11)      =         0.035002	       2.005457
	*D(3,2,1,12)      =        -3.057233	    -175.166543
	 D(3,2,1,13)      =         0.052093	       2.984729
	 D(3,2,5,14)      =        -2.171100	    -124.394871
	 D(3,2,5,15)      =        -0.087975	      -5.040579
	 D(3,2,5,16)      =         1.998614	     114.512134
	 D(3,4,7,8)       =        -0.004459	      -0.255488
	 D(3,4,7,17)      =        -3.140729	    -179.950532
	 D(3,6,9,8)       =         0.005196	       0.297681
	 D(3,6,9,18)      =         3.141397	     179.988810
	 D(4,3,2,5)       =        -1.460793	     -83.697256
	 D(4,3,6,9)       =        -0.011450	      -0.656015
	 D(4,3,6,11)      =         3.134320	     179.583318
	 D(4,7,8,9)       =        -0.001907	      -0.109291
	 D(4,7,8,21)      =         3.141492	     179.994231
	 D(5,2,1,12)      =         0.115052	       6.592012
	 D(5,2,1,13)      =        -3.058807	    -175.256717
	 D(5,2,3,6)       =         1.638124	      93.857606
	 D(6,3,4,7)       =         0.011081	       0.634897
	 D(6,3,4,10)      =        -3.132101	    -179.456161
	 D(6,9,8,7)       =         0.001537	       0.088084
	 D(6,9,8,21)      =         3.141324	     179.984622
	 D(7,8,9,18)      =        -3.134630	    -179.601066
	 D(8,7,4,10)      =         3.138714	     179.835045
	 D(8,9,6,11)      =        -3.140558	    -179.940735
	 D(9,8,7,17)      =         3.134329	     179.583847
	 D(10,4,7,17)     =         0.002443	       0.140002
	 D(11,6,9,18)     =        -0.004356	      -0.249607
	 D(13,1,12,19)    =         2.022384	     115.874089
	 D(13,1,12,20)    =        -2.126128	    -121.818187
	 D(13,1,12,22)    =        -0.051226	      -2.935014
	 D(17,7,8,21)     =        -0.005456	      -0.312631
	 D(18,9,8,21)     =         0.005157	       0.295472
	 R(6,13)          =         6.314623	       3.341555

	Current energy   :      -479.3762503233

	Generating empirical Hessian (Schlegel '84) for each fragment.
	Taking RFO optimization step.
	Going to follow RFO solution 1.
	Using RFO vector 1.
	Norm of target step-size    0.19975
	Projected energy change by RFO approximation:        -0.0093158142

	Back-transformation to cartesian coordinates...
	Successfully converged to displaced geometry.

	Back-transformation to cartesian coordinates to adjust frozen coordinates...
	Successfully converged to displaced geometry.

	--- Internal Coordinate Step in ANG or DEG, aJ/ANG or AJ/DEG ---
	 ---------------------------------------------------------------------------
	   Coordinate                Previous        Force       Change         New 
	   ----------                --------       ------       ------       ------
	    1 R(1,2)          =      1.408939    -0.185545    -0.028078     1.380861
	    2 R(1,12)         =      1.531180    -0.100169    -0.021348     1.509832
	    3 R(1,13)         =      1.228969     0.115357     0.007825     1.236794
	    4 R(2,3)          =      1.434460     0.009900     0.000246     1.434706
	    5 R(2,5)          =      1.479222    -0.078166    -0.014150     1.465072
	    6 R(3,4)          =      1.416771    -0.165736    -0.024916     1.391855
	    7 R(3,6)          =      1.416906    -0.156122    -0.024560     1.392346
	    8 R(4,7)          =      1.402282    -0.075413    -0.010527     1.391755
	    9 R(4,10)         =      1.092040    -0.059974    -0.010881     1.081158
	   10 R(5,14)         =      1.090736     0.003964     0.000716     1.091452
	   11 R(5,15)         =      1.091439    -0.028358    -0.005135     1.086304
	   12 R(5,16)         =      1.090868     0.008481     0.001533     1.092401
	   13 R(6,9)          =      1.402050    -0.079041    -0.010989     1.391062
	   14 R(6,11)         =      1.091717    -0.060298    -0.010929     1.080788
	   15 R(7,8)          =      1.401825    -0.075874    -0.010013     1.391812
	   16 R(7,17)         =      1.091481    -0.053980    -0.009776     1.081705
	   17 R(8,9)          =      1.401675    -0.071479    -0.009378     1.392297
	   18 R(8,21)         =      1.091930    -0.059249    -0.010746     1.081184
	   19 R(9,18)         =      1.091496    -0.054627    -0.009894     1.081602
	   20 R(12,19)        =      1.090035     0.009532     0.001718     1.091753
	   21 R(12,20)        =      1.090232     0.005286     0.000954     1.091185
	   22 R(12,22)        =      1.090826    -0.027917    -0.005045     1.085781
	   23 B(1,2,3)        =    119.158213     0.000414     0.588935   119.747148
	   24 B(1,2,5)        =    123.326641    -0.000629    -1.484756   121.841886
	   25 B(1,12,19)      =    110.995560     0.000146     0.565448   111.561007
	   26 B(1,12,20)      =    111.295885     0.000055     0.195483   111.491369
	   27 B(1,12,22)      =    109.389433    -0.000501    -2.045863   107.343570
	   28 B(2,1,12)       =    117.420316    -0.000861    -2.276602   115.143714
	   29 B(2,1,13)       =    121.816358     0.000299     0.404165   122.220523
	   30 B(2,3,4)        =    120.232799    -0.000224    -0.404803   119.827996
	   31 B(2,3,6)        =    120.436294     0.000037    -0.036687   120.399608
	   32 B(2,5,14)       =    110.681758     0.000138     0.616133   111.297892
	   33 B(2,5,15)       =    110.873621    -0.000665    -3.180297   107.693324
	   34 B(2,5,16)       =    110.448418     0.000310     1.548175   111.996593
	   35 B(3,2,5)        =    117.492946     0.000217     0.914354   118.407300
	   36 B(3,4,7)        =    119.887010     0.000116     0.239523   120.126532
	   37 B(3,4,10)       =    120.342394    -0.000257    -1.015675   119.326719
	   38 B(3,6,9)        =    119.930762     0.000096     0.180437   120.111199
	   39 B(3,6,11)       =    120.224506    -0.000246    -0.980899   119.243607
	   40 B(4,3,6)        =    119.286343     0.000185     0.442666   119.729009
	   41 B(4,7,8)        =    120.649607    -0.000173    -0.480972   120.168636
	   42 B(4,7,17)       =    119.361759     0.000103     0.315486   119.677245
	   43 B(6,9,8)        =    120.616642    -0.000166    -0.423309   120.193334
	   44 B(6,9,18)       =    119.370576     0.000097     0.258735   119.629311
	   45 B(7,4,10)       =    119.770535     0.000141     0.774658   120.545192
	   46 B(7,8,9)        =    119.626372    -0.000057     0.043965   119.670336
	   47 B(7,8,21)       =    120.215067     0.000020    -0.062752   120.152315
	   48 B(8,7,17)       =    119.987931     0.000070     0.164711   120.152642
	   49 B(8,9,18)       =    120.012060     0.000069     0.165069   120.177129
	   50 B(9,6,11)       =    119.844300     0.000150     0.794876   120.639176
	   51 B(9,8,21)       =    120.158480     0.000038     0.017664   120.176144
	   52 B(12,1,13)      =    120.737151     0.000562     1.891019   122.628170
	   53 B(14,5,15)      =    107.618543     0.000206     0.653518   108.272061
	   54 B(14,5,16)      =    109.227283    -0.000138    -0.206946   109.020337
	   55 B(15,5,16)      =    107.898535     0.000149     0.546384   108.444920
	   56 B(19,12,20)     =    109.559338    -0.000193    -1.236762   108.322576
	   57 B(19,12,22)     =    107.784221     0.000215     1.093112   108.877333
	   58 B(20,12,22)     =    107.694751     0.000286     1.497659   109.192410
	   59 *D(1,2,3,4)     =     97.959143    -0.000000    -0.000000    97.959143
	   60 D(1,2,3,6)      =    -84.485996    -0.000008     0.043139   -84.442857
	   61 D(1,2,5,14)     =     53.873921     0.000022     1.853830    55.727752
	   62 D(1,2,5,15)     =    173.228213     0.000003     1.027283   174.255496
	   63 D(1,2,5,16)     =    -67.219074    -0.000006     0.620953   -66.598121
	   64 D(2,1,12,19)    =    -65.953599     0.000010     0.845443   -65.108156
	   65 D(2,1,12,20)    =     56.354124    -0.000014    -0.206613    56.147511
	   66 D(2,1,12,22)    =    175.237298     0.000001     0.454627   175.691925
	   67 D(2,3,4,7)      =    178.217790    -0.000009    -0.648479   177.569311
	   68 D(2,3,4,10)     =     -1.873268    -0.000013    -1.008792    -2.882060
	   69 D(2,3,6,9)      =   -178.233876     0.000009     0.401855  -177.832021
	   70 D(2,3,6,11)     =      2.005457     0.000014     1.049086     3.054543
	   71 *D(3,2,1,12)    =   -175.166543     0.000000    -0.000000  -175.166543
	   72 D(3,2,1,13)     =      2.984729    -0.000001     0.870546     3.855275
	   73 D(3,2,5,14)     =   -124.394871     0.000009    -0.576047  -124.970918
	   74 D(3,2,5,15)     =     -5.040579    -0.000010    -1.402595    -6.443174
	   75 D(3,2,5,16)     =    114.512134    -0.000019    -1.808925   112.703209
	   76 D(3,4,7,8)      =     -0.255488     0.000002     0.459982     0.204493
	   77 D(3,4,7,17)     =   -179.950532    -0.000003    -0.286431  -180.236962
	   78 D(3,6,9,8)      =      0.297681     0.000002     0.052342     0.350024
	   79 D(3,6,9,18)     =    179.988810     0.000005     0.533639   180.522449
	   80 D(4,3,2,5)      =    -83.697256     0.000009     2.340006   -81.357249
	   81 D(4,3,6,9)      =     -0.656015    -0.000002     0.424369    -0.231646
	   82 D(4,3,6,11)     =    179.583318     0.000004     1.071600   180.654918
	   83 D(4,7,8,9)      =     -0.109291    -0.000001     0.022370    -0.086921
	   84 D(4,7,8,21)     =    179.994231    -0.000004    -0.479742   179.514489
	   85 D(5,2,1,12)     =      6.592012    -0.000013    -2.466370     4.125642
	   86 D(5,2,1,13)     =   -175.256717    -0.000014    -1.595824  -176.852541
	   87 D(5,2,3,6)      =     93.857606     0.000000     2.383145    96.240751
	   88 D(6,3,4,7)      =      0.634897    -0.000000    -0.679814    -0.044917
	   89 D(6,3,4,10)     =   -179.456161    -0.000004    -1.040127  -180.496288
	   90 D(6,9,8,7)      =      0.088084    -0.000001    -0.278020    -0.189936
	   91 D(6,9,8,21)     =    179.984622     0.000001     0.224129   180.208751
	   92 D(7,8,9,18)     =   -179.601066    -0.000004    -0.762246  -180.363312
	   93 D(8,7,4,10)     =    179.835045     0.000005     0.826381   180.661426
	   94 D(8,9,6,11)     =   -179.940735    -0.000003    -0.608333  -180.549068
	   95 D(9,8,7,17)     =    179.583847     0.000005     0.772800   180.356648
	   96 D(10,4,7,17)    =      0.140002     0.000000     0.079968     0.219970
	   97 D(11,6,9,18)    =     -0.249607    -0.000000    -0.127036    -0.376642
	   98 D(13,1,12,19)   =    115.874089     0.000012     0.000369   115.874458
	   99 D(13,1,12,20)   =   -121.818187    -0.000012    -1.051688  -122.869875
	  100 D(13,1,12,22)   =     -2.935014     0.000003    -0.390447    -3.325461
	  101 D(17,7,8,21)    =     -0.312631     0.000002     0.270688    -0.041943
	  102 D(18,9,8,21)    =      0.295472    -0.000002    -0.260097     0.035375
	  103 R(6,13)         =      3.341555    -0.018946    -0.020572     3.320983
	 ---------------------------------------------------------------------------
	Successfully symmetrized geometry.

  ==> Convergence Check <==

  Measures of convergence in internal coordinates in au.
  Criteria marked as inactive (o), active & met (*), and active & unmet ( ).
  --------------------------------------------------------------------------------------------- ~
   Step     Total Energy     Delta E     MAX Force     RMS Force      MAX Disp      RMS Disp    ~
  --------------------------------------------------------------------------------------------- ~
    Convergence Criteria             o    2.50e-03 *    1.70e-03 *    1.00e-02 *    6.70e-03 *  ~
  --------------------------------------------------------------------------------------------- ~
      1    -479.37625032   -4.79e+02 o    2.25e-02      5.29e-03      5.55e-02      1.97e-02    ~
  ---------------------------------------------------------------------------------------------

	Writing optimization data to binary file.
	Structure for next step:
	Cartesian Geometry (in Angstrom)
	    C     1.6728796990  -0.6016246042  -0.9438759119
	    N     0.9734756049   0.4543368834  -0.3938238815
	    C    -0.3138457729   0.2250300125   0.1966022539
	    C    -0.4256956123   0.0717176994   1.5754588338
	    C     1.5145917052   1.8157364432  -0.3789268145
	    C    -1.4587205011   0.2044664065  -0.5955248626
	    C    -1.6769819664  -0.1004827323   2.1599330461
	    C    -2.8214496654  -0.1244343339   1.3682509429
	    C    -2.7085152287   0.0265542219  -0.0112195335
	    H     0.4682379047   0.0806204591   2.1834941562
	    H    -1.3618562543   0.3135549607  -1.6664216308
	    C     3.0612558990  -0.2660704873  -1.4331685860
	    O     1.1995108600  -1.7422405384  -1.0115339248
	    H     1.7753246956   2.1497323466  -1.3847762806
	    H     0.7422025642   2.4737874276   0.0089392264
	    H     2.3943740312   1.8993411597   0.2632052051
	    H    -1.7551443194  -0.2228076883   3.2318527622
	    H    -3.5919363547   0.0033570388  -0.6348321062
	    H     3.0333093551   0.4343844364  -2.2701313353
	    H     3.6698175712   0.1712634314  -0.6400246610
	    H    -3.7926490621  -0.2660700128   1.8217594360
	    H     3.5200091595  -1.1923747779  -1.7654719595
			--------------------------
			 OPTKING Finished Execution 
			--------------------------

    Structure for next step:
    Molecular point group: c1
    Full point group: C1

    Geometry (in Angstrom), charge = 0, multiplicity = 1:

    C            1.672332647911    -0.597575617773    -0.948552011636
    N            0.972928551035     0.458385874031    -0.398499979074
    C           -0.314392831784     0.229079002199     0.191926158623
    C           -0.426242671657     0.075766688532     1.570782743959
    C            1.514044653451     1.819785439189    -0.383602912049
    C           -1.459267564451     0.208515396136    -0.600200960985
    C           -1.677529030605    -0.096433743922     2.155256958568
    C           -2.821996734103    -0.120385345532     1.363574852265
    C           -2.709062297026     0.030603210815    -0.015895629599
    H            0.467690848917     0.084669448233     2.178818068719
    H           -1.362403317329     0.317603950713    -1.671097733389
    C            3.060708853398    -0.262021499536    -1.437844687639
    O            1.198963807017    -1.738191556457    -1.016210024817
    H            1.774777644932     2.153781343900    -1.389452382048
    H            0.741655509440     2.477836426114     0.004263130346
    H            2.393826982953     1.903390155993     0.258529110074
    H           -1.755691383997    -0.218758700418     3.227176678839
    H           -3.592483426443     0.007406027573    -0.639508204759
    H            3.032762309398     0.438433426927    -2.274807440241
    H            3.669270528013     0.175312420855    -0.644700759588
    H           -3.793196134696    -0.262021025017     1.817083347071
    H            3.519462115723    -1.188325793755    -1.770148062499


Scratch directory: /scratch/bdw2292/Psi4-3_24_Index_0-farH_in17/

Scratch directory: /scratch/bdw2292/Psi4-3_24_Index_0-farH_in17/
gradient() will perform analytic gradient computation.

*** tstart() called on node74.bme.utexas.edu
*** at Wed Jun  8 11:55:28 2022

   => Loading Basis Set <=

    Name: 6-311G
    Role: ORBITAL
    Keyword: BASIS
    atoms 1, 3-9, 12   entry C          line    92 file /home/bdw2292/miniconda3/envs/newamoebamdpoltype/share/psi4/basis/6-311g.gbs 
    atoms 2            entry N          line   109 file /home/bdw2292/miniconda3/envs/newamoebamdpoltype/share/psi4/basis/6-311g.gbs 
    atoms 10-11, 14-22 entry H          line    21 file /home/bdw2292/miniconda3/envs/newamoebamdpoltype/share/psi4/basis/6-311g.gbs 
    atoms 13           entry O          line   126 file /home/bdw2292/miniconda3/envs/newamoebamdpoltype/share/psi4/basis/6-311g.gbs 

   => WB97X-D: Empirical Dispersion <=

    Chai and Head-Gordon Dispersion Correction
    Chai, J.-D.; Head-Gordon, M. (2010), J. Chem. Phys., 132: 6615-6620

        s6 =       1.000000


         ---------------------------------------------------------
                                   SCF
               by Justin Turney, Rob Parrish, Andy Simmonett
                          and Daniel G. A. Smith
                              RKS Reference
                        2 Threads,   7788 MiB Core
         ---------------------------------------------------------

  ==> Geometry <==

    Molecular point group: c1
    Full point group: C1

    Geometry (in Angstrom), charge = 0, multiplicity = 1:

       Center              X                  Y                   Z               Mass       
    ------------   -----------------  -----------------  -----------------  -----------------
         C            1.672332647911    -0.597575617773    -0.948552011636    12.000000000000
         N            0.972928551035     0.458385874031    -0.398499979074    14.003074004430
         C           -0.314392831784     0.229079002199     0.191926158623    12.000000000000
         C           -0.426242671657     0.075766688532     1.570782743959    12.000000000000
         C            1.514044653451     1.819785439189    -0.383602912049    12.000000000000
         C           -1.459267564451     0.208515396136    -0.600200960985    12.000000000000
         C           -1.677529030605    -0.096433743922     2.155256958568    12.000000000000
         C           -2.821996734103    -0.120385345532     1.363574852265    12.000000000000
         C           -2.709062297026     0.030603210815    -0.015895629599    12.000000000000
         H            0.467690848917     0.084669448233     2.178818068719     1.007825032230
         H           -1.362403317329     0.317603950713    -1.671097733389     1.007825032230
         C            3.060708853398    -0.262021499536    -1.437844687639    12.000000000000
         O            1.198963807017    -1.738191556457    -1.016210024817    15.994914619570
         H            1.774777644932     2.153781343900    -1.389452382048     1.007825032230
         H            0.741655509440     2.477836426114     0.004263130346     1.007825032230
         H            2.393826982953     1.903390155993     0.258529110074     1.007825032230
         H           -1.755691383997    -0.218758700418     3.227176678839     1.007825032230
         H           -3.592483426443     0.007406027573    -0.639508204759     1.007825032230
         H            3.032762309398     0.438433426927    -2.274807440241     1.007825032230
         H            3.669270528013     0.175312420855    -0.644700759588     1.007825032230
         H           -3.793196134696    -0.262021025017     1.817083347071     1.007825032230
         H            3.519462115723    -1.188325793755    -1.770148062499     1.007825032230

  Running in c1 symmetry.

  Rotational constants: A =      0.08074  B =      0.02324  C =      0.02209 [cm^-1]
  Rotational constants: A =   2420.43447  B =    696.57499  C =    662.13078 [MHz]
  Nuclear repulsion =  588.156519323973725

  Charge       = 0
  Multiplicity = 1
  Electrons    = 80
  Nalpha       = 40
  Nbeta        = 40

  ==> Algorithm <==

  SCF Algorithm Type is DF.
  DIIS enabled.
  MOM disabled.
  Fractional occupation disabled.
  Guess Type is READ.
  Energy threshold   = 1.00e-08
  Density threshold  = 1.00e-08
  Integral threshold = 1.00e-12

  ==> Primary Basis <==

  Basis Set: 6-311G
    Blend: 6-311G
    Number of shells: 110
    Number of basis functions: 176
    Number of Cartesian functions: 176
    Spherical Harmonics?: true
    Max angular momentum: 1

  ==> DFT Potential <==

   => LibXC <=

    Version 5.1.5
    S. Lehtola, C. Steigemann, M. J. Oliveira, and M. A. Marques, SoftwareX 7, 1 (2018) (10.1016/j.softx.2017.11.002)

   => Composite Functional: WB97X-D <= 

    wB97X-D Hyb-GGA Exchange-Correlation Functional

    J.-D. Chai and M. Head-Gordon, Phys. Chem. Chem. Phys. 10, 6615 (2008) (10.1039/B810189B)

    Deriv               =              1
    GGA                 =           TRUE
    Meta                =          FALSE

    Exchange Hybrid     =           TRUE
    MP2 Hybrid          =          FALSE

   => Exchange-Correlation Functionals <=

    1.0000   wB97X-D range-separated functional

   => Exact (HF) Exchange <=

    0.7780            HF,LR [omega = 0.2000]
    0.2220               HF 

   => LibXC Density Thresholds  <==

    XC_HYB_GGA_XC_WB97X_D:  1.00E-14 

   => Molecular Quadrature <=

    Radial Scheme          =       TREUTLER
    Pruning Scheme         =           NONE
    Nuclear Scheme         =       TREUTLER

    BS radius alpha        =              1
    Pruning alpha          =              1
    Radial Points          =             75
    Spherical Points       =            302
    Total Points           =         460475
    Total Blocks           =           3404
    Max Points             =            256
    Max Functions          =            150
    Weights Tolerance      =       1.00E-15

   => Loading Basis Set <=

    Name: (6-311G AUX)
    Role: JKFIT
    Keyword: DF_BASIS_SCF
    atoms 1, 3-9, 12   entry C          line   125 file /home/bdw2292/miniconda3/envs/newamoebamdpoltype/share/psi4/basis/cc-pvtz-jkfit.gbs 
    atoms 2            entry N          line   177 file /home/bdw2292/miniconda3/envs/newamoebamdpoltype/share/psi4/basis/cc-pvtz-jkfit.gbs 
    atoms 10-11, 14-22 entry H          line    51 file /home/bdw2292/miniconda3/envs/newamoebamdpoltype/share/psi4/basis/cc-pvtz-jkfit.gbs 
    atoms 13           entry O          line   229 file /home/bdw2292/miniconda3/envs/newamoebamdpoltype/share/psi4/basis/cc-pvtz-jkfit.gbs 

   => Loading Basis Set <=

    Name: 6-311G
    Role: ORBITAL
    Keyword: BASIS
    atoms 1, 3-9, 12   entry C          line    92 file /home/bdw2292/miniconda3/envs/newamoebamdpoltype/share/psi4/basis/6-311g.gbs 
    atoms 2            entry N          line   109 file /home/bdw2292/miniconda3/envs/newamoebamdpoltype/share/psi4/basis/6-311g.gbs 
    atoms 10-11, 14-22 entry H          line    21 file /home/bdw2292/miniconda3/envs/newamoebamdpoltype/share/psi4/basis/6-311g.gbs 
    atoms 13           entry O          line   126 file /home/bdw2292/miniconda3/envs/newamoebamdpoltype/share/psi4/basis/6-311g.gbs 

  Reading orbitals from file /scratch/bdw2292/Psi4-3_24_Index_0-farH_in17/3_24_Index_0-opt-1_2-3-098.default.1099841.180.npy, no projection.

  ==> Integral Setup <==

  DFHelper Memory: AOs need 0.750 GiB; user supplied 4.276 GiB. Using in-core AOs.

  ==> MemDFJK: Density-Fitted J/K Matrices <==

    J tasked:                   Yes
    K tasked:                   Yes
    wK tasked:                  Yes
    Omega:                2.000E-01
    OpenMP threads:               2
    Memory [MiB]:              4378
    Algorithm:                 Core
    Schwarz Cutoff:           1E-12
    Mask sparsity (%):      11.7639
    Fitting Condition:        1E-10

   => Auxiliary Basis Set <=

  Basis Set: (6-311G AUX)
    Blend: CC-PVTZ-JKFIT
    Number of shells: 385
    Number of basis functions: 1199
    Number of Cartesian functions: 1441
    Spherical Harmonics?: true
    Max angular momentum: 4

  Cached 100.0% of DFT collocation blocks in 1.428 [GiB].

  Minimum eigenvalue in the overlap matrix is 2.3366907476E-04.
  Reciprocal condition number of the overlap matrix is 3.4446146409E-05.
    Using symmetric orthogonalization.

  ==> Pre-Iterations <==

  SCF Guess: Orbitals guess was supplied from a previous computation.

   -------------------------------------------------------
    Irrep   Nso     Nmo     Nalpha   Nbeta   Ndocc  Nsocc
   -------------------------------------------------------
     A        176     176      40      40      40       0
   -------------------------------------------------------
    Total     176     176      40      40      40       0
   -------------------------------------------------------

  ==> Iterations <==

                           Total Energy        Delta E     RMS |[F,P]|

   @DF-RKS iter   0:  -479.44849431073868   -4.79448e+02   1.08068e-03 
   @DF-RKS iter   1:  -479.37943980049317    6.90545e-02   1.38792e-04 DIIS
   @DF-RKS iter   2:  -479.37972891407071   -2.89114e-04   1.24199e-04 DIIS
   @DF-RKS iter   3:  -479.37991209957374   -1.83186e-04   4.62434e-05 DIIS
   @DF-RKS iter   4:  -479.37993830451614   -2.62049e-05   1.70606e-05 DIIS
   @DF-RKS iter   5:  -479.37994313455181   -4.83004e-06   3.85225e-06 DIIS
   @DF-RKS iter   6:  -479.37994346712952   -3.32578e-07   1.84534e-06 DIIS
   @DF-RKS iter   7:  -479.37994356480374   -9.76742e-08   4.64813e-07 DIIS
   @DF-RKS iter   8:  -479.37994357899879   -1.41951e-08   2.66271e-07 DIIS
   @DF-RKS iter   9:  -479.37994358136041   -2.36162e-09   7.24941e-08 DIIS
   @DF-RKS iter  10:  -479.37994358168237   -3.21961e-10   3.58508e-08 DIIS
   @DF-RKS iter  11:  -479.37994358173466   -5.22959e-11   7.33041e-09 DIIS
  Energy and wave function converged.


  ==> Post-Iterations <==

   Electrons on quadrature grid:
      Ntotal   =   79.9999747022 ; deviation = -2.530e-05 

    Orbital Energies [Eh]
    ---------------------

    Doubly Occupied:                                                      

       1A    -19.204319     2A    -14.468632     3A    -10.395667  
       4A    -10.335183     5A    -10.328636     6A    -10.296795  
       7A    -10.296253     8A    -10.296084     9A    -10.295505  
      10A    -10.295100    11A    -10.289222    12A     -1.146710  
      13A     -1.049948    14A     -0.966676    15A     -0.872170  
      16A     -0.859212    17A     -0.839268    18A     -0.809646  
      19A     -0.722700    20A     -0.714920    21A     -0.657895  
      22A     -0.609067    23A     -0.584861    24A     -0.578572  
      25A     -0.569307    26A     -0.543916    27A     -0.538688  
      28A     -0.519250    29A     -0.512499    30A     -0.500154  
      31A     -0.492221    32A     -0.478125    33A     -0.460669  
      34A     -0.450160    35A     -0.445897    36A     -0.433503  
      37A     -0.338448    38A     -0.336906    39A     -0.327859  
      40A     -0.321290  

    Virtual:                                                              

      41A      0.057971    42A      0.060228    43A      0.096558  
      44A      0.104979    45A      0.130634    46A      0.149022  
      47A      0.159607    48A      0.163888    49A      0.169089  
      50A      0.179373    51A      0.201349    52A      0.203883  
      53A      0.211772    54A      0.223258    55A      0.242175  
      56A      0.254259    57A      0.279241    58A      0.302876  
      59A      0.340962    60A      0.351317    61A      0.354495  
      62A      0.365822    63A      0.368057    64A      0.382271  
      65A      0.389611    66A      0.409993    67A      0.434651  
      68A      0.451818    69A      0.461826    70A      0.478972  
      71A      0.484979    72A      0.499593    73A      0.500387  
      74A      0.511002    75A      0.516494    76A      0.526473  
      77A      0.542708    78A      0.546807    79A      0.567527  
      80A      0.587685    81A      0.595394    82A      0.601028  
      83A      0.630441    84A      0.634401    85A      0.636821  
      86A      0.641702    87A      0.672484    88A      0.678100  
      89A      0.679388    90A      0.686727    91A      0.692321  
      92A      0.697594    93A      0.706891    94A      0.732473  
      95A      0.738259    96A      0.748016    97A      0.752046  
      98A      0.763546    99A      0.773767   100A      0.814779  
     101A      0.824671   102A      0.852557   103A      0.869822  
     104A      0.881234   105A      0.894787   106A      0.914113  
     107A      0.915470   108A      0.962664   109A      0.965599  
     110A      0.981558   111A      1.021796   112A      1.076285  
     113A      1.095512   114A      1.117171   115A      1.132361  
     116A      1.172539   117A      1.232963   118A      1.284623  
     119A      1.366711   120A      1.489501   121A      1.749754  
     122A      2.270134   123A      2.299720   124A      2.326173  
     125A      2.340669   126A      2.355952   127A      2.361593  
     128A      2.371491   129A      2.421355   130A      2.439369  
     131A      2.451186   132A      2.631863   133A      2.639763  
     134A      2.662573   135A      2.679209   136A      2.716613  
     137A      2.761661   138A      2.798739   139A      2.833469  
     140A      2.853478   141A      2.881281   142A      2.894115  
     143A      2.920881   144A      2.932312   145A      2.986535  
     146A      3.012734   147A      3.015360   148A      3.048507  
     149A      3.125214   150A      3.148404   151A      3.161650  
     152A      3.191153   153A      3.209436   154A      3.259584  
     155A      3.311411   156A      3.319033   157A      3.372718  
     158A      3.419660   159A      3.527448   160A      3.952452  
     161A      4.115459   162A      4.256360   163A      4.996481  
     164A      5.075020   165A      5.099337   166A     23.247925  
     167A     23.438764   168A     23.480034   169A     23.492348  
     170A     23.555583   171A     23.656453   172A     23.734877  
     173A     23.757387   174A     24.018802   175A     35.565297  
     176A     50.057338  

    Final Occupation by Irrep:
              A 
    DOCC [    40 ]

  @DF-RKS Final Energy:  -479.37994358173466

   => Energetics <=

    Nuclear Repulsion Energy =            588.1565193239737255
    One-Electron Energy =               -1814.7453469329852851
    Two-Electron Energy =                 794.3101185343118686
    DFT Exchange-Correlation Energy =     -47.0883795034570909
    Empirical Dispersion Energy =          -0.0128550035779044
    VV10 Nonlocal Energy =                  0.0000000000000000
    Total Energy =                       -479.3799435817346648

Computation Completed


Properties will be evaluated at   0.000000,   0.000000,   0.000000 [a0]

Properties computed using the SCF density matrix

  Nuclear Dipole Moment: [e a0]
     X:     4.7800      Y:     5.5114      Z:    -0.8511

  Electronic Dipole Moment: [e a0]
     X:    -4.5394      Y:    -3.8984      Z:     1.1091

  Dipole Moment: [e a0]
     X:     0.2406      Y:     1.6129      Z:     0.2580     Total:     1.6511

  Dipole Moment: [D]
     X:     0.6115      Y:     4.0997      Z:     0.6558     Total:     4.1966


*** tstop() called on node74.bme.utexas.edu at Wed Jun  8 11:55:59 2022
Module time:
	user time   =      59.29 seconds =       0.99 minutes
	system time =       1.53 seconds =       0.03 minutes
	total time  =         31 seconds =       0.52 minutes
Total time:
	user time   =     158.43 seconds =       2.64 minutes
	system time =       4.82 seconds =       0.08 minutes
	total time  =         83 seconds =       1.38 minutes

*** tstart() called on node74.bme.utexas.edu
*** at Wed Jun  8 11:55:59 2022


         ------------------------------------------------------------
                                   SCF GRAD                          
                          Rob Parrish, Justin Turney,                
                       Andy Simmonett, and Alex Sokolov              
         ------------------------------------------------------------

  ==> Geometry <==

    Molecular point group: c1
    Full point group: C1

    Geometry (in Angstrom), charge = 0, multiplicity = 1:

       Center              X                  Y                   Z               Mass       
    ------------   -----------------  -----------------  -----------------  -----------------
         C            1.672332647911    -0.597575617773    -0.948552011636    12.000000000000
         N            0.972928551035     0.458385874031    -0.398499979074    14.003074004430
         C           -0.314392831784     0.229079002199     0.191926158623    12.000000000000
         C           -0.426242671657     0.075766688532     1.570782743959    12.000000000000
         C            1.514044653451     1.819785439189    -0.383602912049    12.000000000000
         C           -1.459267564451     0.208515396136    -0.600200960985    12.000000000000
         C           -1.677529030605    -0.096433743922     2.155256958568    12.000000000000
         C           -2.821996734103    -0.120385345532     1.363574852265    12.000000000000
         C           -2.709062297026     0.030603210815    -0.015895629599    12.000000000000
         H            0.467690848917     0.084669448233     2.178818068719     1.007825032230
         H           -1.362403317329     0.317603950713    -1.671097733389     1.007825032230
         C            3.060708853398    -0.262021499536    -1.437844687639    12.000000000000
         O            1.198963807017    -1.738191556457    -1.016210024817    15.994914619570
         H            1.774777644932     2.153781343900    -1.389452382048     1.007825032230
         H            0.741655509440     2.477836426114     0.004263130346     1.007825032230
         H            2.393826982953     1.903390155993     0.258529110074     1.007825032230
         H           -1.755691383997    -0.218758700418     3.227176678839     1.007825032230
         H           -3.592483426443     0.007406027573    -0.639508204759     1.007825032230
         H            3.032762309398     0.438433426927    -2.274807440241     1.007825032230
         H            3.669270528013     0.175312420855    -0.644700759588     1.007825032230
         H           -3.793196134696    -0.262021025017     1.817083347071     1.007825032230
         H            3.519462115723    -1.188325793755    -1.770148062499     1.007825032230

  Nuclear repulsion =  588.156519323973725

  ==> Basis Set <==

  Basis Set: 6-311G
    Blend: 6-311G
    Number of shells: 110
    Number of basis functions: 176
    Number of Cartesian functions: 176
    Spherical Harmonics?: true
    Max angular momentum: 1

  ==> DFJKGrad: Density-Fitted SCF Gradients <==

    Gradient:                    1
    J tasked:                  Yes
    K tasked:                  Yes
    wK tasked:                 Yes
    Omega:               2.000E-01
    OpenMP threads:              2
    Integrals threads:           2
    Memory [MiB]:             5841
    Schwarz Cutoff:          1E-12
    Fitting Condition:       1E-10

   => Auxiliary Basis Set <=

  Basis Set: (6-311G AUX)
    Blend: CC-PVTZ-JKFIT
    Number of shells: 385
    Number of basis functions: 1199
    Number of Cartesian functions: 1441
    Spherical Harmonics?: true
    Max angular momentum: 4

  ==> DFT Potential <==

   => LibXC <=

    Version 5.1.5
    S. Lehtola, C. Steigemann, M. J. Oliveira, and M. A. Marques, SoftwareX 7, 1 (2018) (10.1016/j.softx.2017.11.002)

   => Composite Functional: WB97X-D <= 

    wB97X-D Hyb-GGA Exchange-Correlation Functional

    J.-D. Chai and M. Head-Gordon, Phys. Chem. Chem. Phys. 10, 6615 (2008) (10.1039/B810189B)

    Deriv               =              1
    GGA                 =           TRUE
    Meta                =          FALSE

    Exchange Hybrid     =           TRUE
    MP2 Hybrid          =          FALSE

   => Exchange-Correlation Functionals <=

    1.0000   wB97X-D range-separated functional

   => Exact (HF) Exchange <=

    0.7780            HF,LR [omega = 0.2000]
    0.2220               HF 

   => LibXC Density Thresholds  <==

    XC_HYB_GGA_XC_WB97X_D:  1.00E-14 

   => Molecular Quadrature <=

    Radial Scheme          =       TREUTLER
    Pruning Scheme         =           NONE
    Nuclear Scheme         =       TREUTLER

    BS radius alpha        =              1
    Pruning alpha          =              1
    Radial Points          =             75
    Spherical Points       =            302
    Total Points           =         460475
    Total Blocks           =           3404
    Max Points             =            256
    Max Functions          =            150
    Weights Tolerance      =       1.00E-15


  -Total Gradient:
     Atom            X                  Y                   Z
    ------   -----------------  -----------------  -----------------
       1       -0.001678954817    -0.009679803588    -0.002956056363
       2       -0.002705482572     0.002493766201     0.002236392513
       3        0.002672563221    -0.001521148622    -0.000209394366
       4       -0.001402767580     0.000070659999    -0.001298201088
       5        0.002843476679     0.000271730026    -0.001674615089
       6       -0.000589011812     0.000535520411     0.002141061895
       7       -0.000145710387     0.000317305581    -0.001928759006
       8        0.000438249861     0.000169976966    -0.000260152139
       9        0.001211496705     0.000013626913     0.001327121298
      10       -0.000356517504     0.000208610749     0.000014749226
      11       -0.000262728321     0.000108690889     0.000130532360
      12        0.000222609036     0.004656956830     0.001902072397
      13        0.001818381502     0.005370382196     0.000273936853
      14       -0.000202462686    -0.000482504359    -0.000735857499
      15       -0.000441676681    -0.001180547077    -0.000085590478
      16        0.000018490426    -0.000567482989     0.000182984768
      17        0.000041400149    -0.000073917803     0.000136111627
      18       -0.000020213238    -0.000042557046    -0.000194824693
      19       -0.000670081687     0.000115765885    -0.000326867208
      20       -0.000244943930    -0.000078996198     0.000831990343
      21        0.000091436899    -0.000159499467    -0.000064332996
      22       -0.000800126425    -0.000375054964     0.000344743830


*** tstop() called on node74.bme.utexas.edu at Wed Jun  8 11:56:15 2022
Module time:
	user time   =      31.47 seconds =       0.52 minutes
	system time =       0.21 seconds =       0.00 minutes
	total time  =         16 seconds =       0.27 minutes
Total time:
	user time   =     189.90 seconds =       3.16 minutes
	system time =       5.03 seconds =       0.08 minutes
	total time  =         99 seconds =       1.65 minutes

			-----------------------------------------
			 OPTKING 2.0: for geometry optimizations 
			  - R.A. King,  Bethel University        
			-----------------------------------------
	At level 1: Red. Int., RFO, no backsteps, dynamic trust

	Previous internal coordinate definitions found.
	---Fragment 1 Geometry and Gradient---
	 C           3.1602506952       -1.1292542568       -1.7925035177
	 N           1.8385685011        0.8662237617       -0.7530558215
	 C          -0.5941163479        0.4328965752        0.3626878761
	 C          -0.8054819124        0.1431782908        2.9683491887
	 C           2.8611297367        3.4388960872       -0.7249044447
	 C          -2.7576160406        0.3940369916       -1.1342154365
	 C          -3.1700704353       -0.1822333653        4.0728453817
	 C          -5.3328009544       -0.2274953326        2.5767830223
	 C          -5.1193857982        0.0578316870       -0.0300383865
	 H           0.8838076158        0.1600020684        4.1173694271
	 H          -2.5745691422        0.6001844832       -3.1579170450
	 C           5.7839014827       -0.4951488731       -2.7171326706
	 O           2.2657132296       -3.2847059953       -1.9203586328
	 H           3.3538436825        4.0700568741       -2.6256844664
	 H           1.4015257923        4.6824322290        0.0080561488
	 H           4.5236773895        3.5968861047        0.4885492135
	 H          -3.3177758766       -0.4133940314        6.0984800815
	 H          -6.7888097862        0.0139953638       -1.2084953620
	 H           5.7310901684        0.8285191011       -4.2987630502
	 H           6.9339163782        0.3312924618       -1.2183078685
	 H          -7.1681018347       -0.4951479764        3.4337898731
	 H           6.6508195076       -2.2456102980       -3.3450950396
	            -0.0016789548       -0.0096798036       -0.0029560564
	            -0.0027054826        0.0024937662        0.0022363925
	             0.0026725632       -0.0015211486       -0.0002093944
	            -0.0014027676        0.0000706600       -0.0012982011
	             0.0028434767        0.0002717300       -0.0016746151
	            -0.0005890118        0.0005355204        0.0021410619
	            -0.0001457104        0.0003173056       -0.0019287590
	             0.0004382499        0.0001699770       -0.0002601521
	             0.0012114967        0.0000136269        0.0013271213
	            -0.0003565175        0.0002086107        0.0000147492
	            -0.0002627283        0.0001086909        0.0001305324
	             0.0002226090        0.0046569568        0.0019020724
	             0.0018183815        0.0053703822        0.0002739369
	            -0.0002024627       -0.0004825044       -0.0007358575
	            -0.0004416767       -0.0011805471       -0.0000855905
	             0.0000184904       -0.0005674830        0.0001829848
	             0.0000414001       -0.0000739178        0.0001361116
	            -0.0000202132       -0.0000425570       -0.0001948247
	            -0.0006700817        0.0001157659       -0.0003268672
	            -0.0002449439       -0.0000789962        0.0008319903
	             0.0000914369       -0.0001594995       -0.0000643330
	            -0.0008001264       -0.0003750550        0.0003447438

	---Fragment 1 Intrafragment Coordinates---
	 - Coordinate -           - BOHR/RAD -       - ANG/DEG -
	 R(1,2)           =         2.609450	       1.380861
	 R(1,12)          =         2.853169	       1.509832
	 R(1,13)          =         2.337203	       1.236794
	 R(2,3)           =         2.711201	       1.434706
	 R(2,5)           =         2.768586	       1.465072
	 R(3,4)           =         2.630225	       1.391855
	 R(3,6)           =         2.631152	       1.392346
	 R(4,7)           =         2.630035	       1.391755
	 R(4,10)          =         2.043093	       1.081158
	 R(5,14)          =         2.062546	       1.091452
	 R(5,15)          =         2.052817	       1.086304
	 R(5,16)          =         2.064339	       1.092401
	 R(6,9)           =         2.628725	       1.391062
	 R(6,11)          =         2.042393	       1.080788
	 R(7,8)           =         2.630143	       1.391812
	 R(7,17)          =         2.044125	       1.081705
	 R(8,9)           =         2.631060	       1.392297
	 R(8,21)          =         2.043142	       1.081184
	 R(9,18)          =         2.043932	       1.081602
	 R(12,19)         =         2.063114	       1.091753
	 R(12,20)         =         2.062042	       1.091185
	 R(12,22)         =         2.051828	       1.085781
	 B(1,2,3)         =         2.089982	     119.747148
	 B(1,2,5)         =         2.126542	     121.841886
	 B(1,12,19)       =         1.947107	     111.561007
	 B(1,12,20)       =         1.945891	     111.491369
	 B(1,12,22)       =         1.873499	     107.343570
	 B(2,1,12)        =         2.009637	     115.143714
	 B(2,1,13)        =         2.133151	     122.220523
	 B(2,3,4)         =         2.091393	     119.827996
	 B(2,3,6)         =         2.101370	     120.399608
	 B(2,5,14)        =         1.942515	     111.297892
	 B(2,5,15)        =         1.879603	     107.693324
	 B(2,5,16)        =         1.954709	     111.996593
	 B(3,2,5)         =         2.066597	     118.407300
	 B(3,4,7)         =         2.096604	     120.126532
	 B(3,4,10)        =         2.082644	     119.326719
	 B(3,6,9)         =         2.096336	     120.111199
	 B(3,6,11)        =         2.081194	     119.243607
	 B(4,3,6)         =         2.089665	     119.729009
	 B(4,7,8)         =         2.097338	     120.168636
	 B(4,7,17)        =         2.088762	     119.677245
	 B(6,9,8)         =         2.097769	     120.193334
	 B(6,9,18)        =         2.087925	     119.629311
	 B(7,4,10)        =         2.103911	     120.545192
	 B(7,8,9)         =         2.088641	     119.670336
	 B(7,8,21)        =         2.097053	     120.152315
	 B(8,7,17)        =         2.097059	     120.152642
	 B(8,9,18)        =         2.097487	     120.177129
	 B(9,6,11)        =         2.105551	     120.639176
	 B(9,8,21)        =         2.097469	     120.176144
	 B(12,1,13)       =         2.140265	     122.628170
	 B(14,5,15)       =         1.889704	     108.272061
	 B(14,5,16)       =         1.902764	     109.020337
	 B(15,5,16)       =         1.892721	     108.444920
	 B(19,12,20)      =         1.890586	     108.322576
	 B(19,12,22)      =         1.900268	     108.877333
	 B(20,12,22)      =         1.905767	     109.192410
	*D(1,2,3,4)       =         1.709710	      97.959143
	 D(1,2,3,6)       =        -1.473806	     -84.442857
	 D(1,2,5,14)      =         0.972633	      55.727752
	 D(1,2,5,15)      =         3.041332	     174.255496
	 D(1,2,5,16)      =        -1.162356	     -66.598121
	 D(2,1,12,19)     =        -1.136352	     -65.108156
	 D(2,1,12,20)     =         0.979959	      56.147511
	 D(2,1,12,22)     =         3.066403	     175.691925
	 D(2,3,4,7)       =         3.099169	     177.569311
	 D(2,3,4,10)      =        -0.050301	      -2.882060
	 D(2,3,6,9)       =        -3.103754	    -177.832021
	 D(2,3,6,11)      =         0.053312	       3.054543
	*D(3,2,1,12)      =        -3.057233	    -175.166543
	 D(3,2,1,13)      =         0.067287	       3.855275
	 D(3,2,5,14)      =        -2.181154	    -124.970918
	 D(3,2,5,15)      =        -0.112455	      -6.443174
	 D(3,2,5,16)      =         1.967042	     112.703209
	 D(3,4,7,8)       =         0.003569	       0.204493
	 D(3,4,7,17)      =         3.137457	     179.763038
	 D(3,6,9,8)       =         0.006109	       0.350024
	 D(3,6,9,18)      =        -3.132474	    -179.477551
	 D(4,3,2,5)       =        -1.419952	     -81.357249
	 D(4,3,6,9)       =        -0.004043	      -0.231646
	 D(4,3,6,11)      =        -3.130162	    -179.345082
	 D(4,7,8,9)       =        -0.001517	      -0.086921
	 D(4,7,8,21)      =         3.133119	     179.514489
	 D(5,2,1,12)      =         0.072006	       4.125642
	 D(5,2,1,13)      =        -3.086659	    -176.852541
	 D(5,2,3,6)       =         1.679718	      96.240751
	 D(6,3,4,7)       =        -0.000784	      -0.044917
	 D(6,3,4,10)      =         3.132931	     179.503712
	 D(6,9,8,7)       =        -0.003315	      -0.189936
	 D(6,9,8,21)      =        -3.137949	    -179.791249
	 D(7,8,9,18)      =         3.135252	     179.636688
	 D(8,7,4,10)      =        -3.130049	    -179.338574
	 D(8,9,6,11)      =         3.132010	     179.450932
	 D(9,8,7,17)      =        -3.135368	    -179.643352
	 D(10,4,7,17)     =         0.003839	       0.219970
	 D(11,6,9,18)     =        -0.006574	      -0.376642
	 D(13,1,12,19)    =         2.022391	     115.874458
[...]
	 R(1,13)          =         2.347834	       1.242420
	 R(2,3)           =         2.717794	       1.438195
	 R(2,5)           =         2.767517	       1.464507
	 R(3,4)           =         2.632236	       1.392919
	 R(3,6)           =         2.631275	       1.392410
	 R(4,7)           =         2.631776	       1.392676
	 R(4,10)          =         2.043957	       1.081615
	 R(5,14)          =         2.058793	       1.089466
	 R(5,15)          =         2.054362	       1.087121
	 R(5,16)          =         2.067469	       1.094058
	 R(6,9)           =         2.630767	       1.392142
	 R(6,11)          =         2.041978	       1.080568
	 R(7,8)           =         2.633243	       1.393452
	 R(7,17)          =         2.043493	       1.081370
	 R(8,9)           =         2.634125	       1.393919
	 R(8,21)          =         2.043479	       1.081363
	 R(9,18)          =         2.043521	       1.081385
	 R(12,19)         =         2.063421	       1.091915
	 R(12,20)         =         2.061831	       1.091074
	 R(12,22)         =         2.051145	       1.085419
	 B(1,2,3)         =         2.078598	     119.094913
	 B(1,2,5)         =         2.144653	     122.879576
	 B(1,12,19)       =         1.943086	     111.330622
	 B(1,12,20)       =         1.955868	     112.062987
	 B(1,12,22)       =         1.879029	     107.660435
	 B(2,1,12)        =         2.037635	     116.747893
	 B(2,1,13)        =         2.123624	     121.674710
	 B(2,3,4)         =         2.089872	     119.740838
	 B(2,3,6)         =         2.095615	     120.069870
	 B(2,5,14)        =         1.938879	     111.089581
	 B(2,5,15)        =         1.891363	     108.367116
	 B(2,5,16)        =         1.959228	     112.255478
	 B(3,2,5)         =         2.052701	     117.611125
	 B(3,4,7)         =         2.092876	     119.912971
	 B(3,4,10)        =         2.083505	     119.376018
	 B(3,6,9)         =         2.091451	     119.831321
	 B(3,6,11)        =         2.080397	     119.197953
	 B(4,3,6)         =         2.097631	     120.185402
	 B(4,7,8)         =         2.094827	     120.024737
	 B(4,7,17)        =         2.091203	     119.817121
	 B(6,9,8)         =         2.096732	     120.133870
	 B(6,9,18)        =         2.090573	     119.781010
	 B(7,4,10)        =         2.106757	     120.708258
	 B(7,8,9)         =         2.092766	     119.906648
	 B(7,8,21)        =         2.095261	     120.049591
	 B(8,7,17)        =         2.097104	     120.155228
	 B(8,9,18)        =         2.095872	     120.084615
	 B(9,6,11)        =         2.111220	     120.963985
	 B(9,8,21)        =         2.095134	     120.042353
	 B(12,1,13)       =         2.121913	     121.576644
	 B(14,5,15)       =         1.884466	     107.971944
	 B(14,5,16)       =         1.896682	     108.671853
	 B(15,5,16)       =         1.891221	     108.358967
	 B(19,12,20)      =         1.882289	     107.847188
	 B(19,12,22)      =         1.896184	     108.643368
	 B(20,12,22)      =         1.906500	     109.234402
	*D(1,2,3,4)       =         1.709710	      97.959143
	 D(1,2,3,6)       =        -1.444382	     -82.757001
	 D(1,2,5,14)      =         0.847837	      48.577485
	 D(1,2,5,15)      =         2.915302	     167.034489
	 D(1,2,5,16)      =        -1.279875	     -73.331433
	 D(2,1,12,19)     =        -1.144326	     -65.565077
	 D(2,1,12,20)     =         0.965480	      55.317947
	 D(2,1,12,22)     =         3.062286	     175.456055
	 D(2,3,4,7)       =         3.115004	     178.476559
	 D(2,3,4,10)      =        -0.037049	      -2.122759
	 D(2,3,6,9)       =        -3.122111	    -178.883756
	 D(2,3,6,11)      =         0.035804	       2.051443
	*D(3,2,1,12)      =        -3.057233	    -175.166543
	 D(3,2,1,13)      =         0.089790	       5.144606
	 D(3,2,5,14)      =        -2.424042	    -138.887354
	 D(3,2,5,15)      =        -0.356577	     -20.430350
	 D(3,2,5,16)      =         1.731432	      99.203728
	 D(3,4,7,8)       =         0.010326	       0.591644
	 D(3,4,7,17)      =         3.141099	     179.971692
	 D(3,6,9,8)       =         0.003968	       0.227338
	 D(3,6,9,18)      =        -3.133116	    -179.514337
	 D(4,3,2,5)       =        -1.306694	     -74.868049
	 D(4,3,6,9)       =         0.006927	       0.396890
	 D(4,3,6,11)      =        -3.118343	    -178.667911
	 D(4,7,8,9)       =         0.000524	       0.030028
	 D(4,7,8,21)      =         3.134586	     179.598537
	 D(5,2,1,12)      =        -0.047771	      -2.737054
	 D(5,2,1,13)      =         3.099253	     177.574095
	 D(5,2,3,6)       =         1.822400	     104.415807
	 D(6,3,4,7)       =        -0.014075	      -0.806459
	 D(6,3,4,10)      =         3.117057	     178.594223
	 D(6,9,8,7)       =        -0.007688	      -0.440488
	 D(6,9,8,21)      =         3.141435	     179.990972
	 D(7,8,9,18)      =         3.129382	     179.300398
	 D(8,7,4,10)      =        -3.120665	    -178.800923
	 D(8,9,6,11)      =         3.128944	     179.275289
	 D(9,8,7,17)      =        -3.130211	    -179.347905
	 D(10,4,7,17)     =         0.010108	       0.579124
	 D(11,6,9,18)     =        -0.008140	      -0.466386
	 D(13,1,12,19)    =         1.991841	     114.124103
	 D(13,1,12,20)    =        -2.181537	    -124.992874
	 D(13,1,12,22)    =        -0.084732	      -4.854766
	 D(17,7,8,21)     =         0.003850	       0.220604
	 D(18,9,8,21)     =        -0.004680	      -0.268143
	 R(4,13)          =         6.684839	       3.537465
	 R(6,13)          =         6.157794	       3.258564

	Current energy   :      -479.3805161669

	Energy change for the previous step:
		Projected    :         0.0000036085
		Actual       :        -0.0000024473

	Performing BFGS update.
	Previous computed or guess Hessian on step 1.
	Steps to be used in Hessian update: 2 1
	Taking RFO optimization step.
	Going to follow RFO solution 1.
	Using RFO vector 1.
	Norm of target step-size    0.02046
	Projected energy change by RFO approximation:        -0.0000159972

	Back-transformation to cartesian coordinates...
	Could not converge backtransformation.
	Using first guess instead.

	Back-transformation to cartesian coordinates to adjust frozen coordinates...
	Successfully converged to displaced geometry.

	--- Internal Coordinate Step in ANG or DEG, aJ/ANG or AJ/DEG ---
	 ---------------------------------------------------------------------------
	   Coordinate                Previous        Force       Change         New 
	   ----------                --------       ------       ------       ------
	    1 R(1,2)          =      1.377755     0.000401     0.000007     1.377762
	    2 R(1,12)         =      1.509214    -0.000346    -0.000047     1.509167
	    3 R(1,13)         =      1.242420     0.000473     0.000038     1.242458
	    4 R(2,3)          =      1.438195     0.000876     0.000103     1.438298
	    5 R(2,5)          =      1.464507    -0.000380    -0.000037     1.464470
	    6 R(3,4)          =      1.392919     0.000966     0.000079     1.392998
	    7 R(3,6)          =      1.392410     0.000466     0.000059     1.392469
	    8 R(4,7)          =      1.392676     0.000498     0.000041     1.392717
	    9 R(4,10)         =      1.081615     0.000186     0.000017     1.081633
	   10 R(5,14)         =      1.089466     0.000068     0.000014     1.089480
	   11 R(5,15)         =      1.087121     0.000051    -0.000006     1.087115
	   12 R(5,16)         =      1.094058    -0.000544    -0.000083     1.093974
	   13 R(6,9)          =      1.392142     0.000455     0.000043     1.392185
	   14 R(6,11)         =      1.080568     0.000158     0.000021     1.080589
	   15 R(7,8)          =      1.393452     0.000219     0.000024     1.393476
	   16 R(7,17)         =      1.081370    -0.000007    -0.000003     1.081367
	   17 R(8,9)          =      1.393919     0.000889     0.000074     1.393992
	   18 R(8,21)         =      1.081363     0.000117     0.000014     1.081377
	   19 R(9,18)         =      1.081385    -0.000032    -0.000004     1.081381
	   20 R(12,19)        =      1.091915     0.000625     0.000114     1.092029
	   21 R(12,20)        =      1.091074     0.000485     0.000065     1.091139
	   22 R(12,22)        =      1.085419     0.000110     0.000023     1.085442
	   23 B(1,2,3)        =    119.094913    -0.000004    -0.004937   119.089976
	   24 B(1,2,5)        =    122.879576     0.000005    -0.001282   122.878294
	   25 B(1,12,19)      =    111.330622     0.000014     0.063089   111.393711
	   26 B(1,12,20)      =    112.062987    -0.000017    -0.072166   111.990821
	   27 B(1,12,22)      =    107.660435     0.000000     0.001461   107.661895
	   28 B(2,1,12)       =    116.747893    -0.000002    -0.008072   116.739820
	   29 B(2,1,13)       =    121.674710     0.000001     0.007984   121.682694
	   30 B(2,3,4)        =    119.740838     0.000002    -0.000913   119.739925
	   31 B(2,3,6)        =    120.069870    -0.000002     0.000746   120.070616
	   32 B(2,5,14)       =    111.089581     0.000005     0.019766   111.109346
	   33 B(2,5,15)       =    108.367116     0.000001     0.008249   108.375366
	   34 B(2,5,16)       =    112.255478    -0.000003    -0.019933   112.235545
	   35 B(3,2,5)        =    117.611125    -0.000001    -0.007346   117.603780
	   36 B(3,4,7)        =    119.912971     0.000001     0.001294   119.914265
	   37 B(3,4,10)       =    119.376018    -0.000000    -0.001974   119.374044
	   38 B(3,6,9)        =    119.831321    -0.000001    -0.001780   119.829541
	   39 B(3,6,11)       =    119.197953    -0.000000     0.000180   119.198134
	   40 B(4,3,6)        =    120.185402     0.000000     0.000632   120.186034
	   41 B(4,7,8)        =    120.024737    -0.000002    -0.002986   120.021751
	   42 B(4,7,17)       =    119.817121     0.000000     0.000264   119.817384
	   43 B(6,9,8)        =    120.133870     0.000000    -0.000754   120.133116
	   44 B(6,9,18)       =    119.781010    -0.000000     0.000844   119.781854
	   45 B(7,4,10)       =    120.708258    -0.000001     0.000367   120.708624
	   46 B(7,8,9)        =    119.906648     0.000002     0.003710   119.910359
	   47 B(7,8,21)       =    120.049591    -0.000002    -0.004038   120.045553
	   48 B(8,7,17)       =    120.155228     0.000001     0.002719   120.157947
	   49 B(8,9,18)       =    120.084615    -0.000000    -0.000128   120.084488
	   50 B(9,6,11)       =    120.963985     0.000001     0.001595   120.965580
	   51 B(9,8,21)       =    120.042353     0.000000     0.000351   120.042703
	   52 B(12,1,13)      =    121.576644     0.000002     0.000810   121.577453
	   53 B(14,5,15)      =    107.971944    -0.000001     0.005346   107.977290
	   54 B(14,5,16)      =    108.671853    -0.000003    -0.014441   108.657412
	   55 B(15,5,16)      =    108.358967     0.000001     0.001687   108.360655
	   56 B(19,12,20)     =    107.847188    -0.000000    -0.008586   107.838602
	   57 B(19,12,22)     =    108.643368     0.000001     0.025134   108.668503
	   58 B(20,12,22)     =    109.234402     0.000003    -0.007145   109.227257
	   59 *D(1,2,3,4)     =     97.959143     0.000000     0.000000    97.959143
	   60 D(1,2,3,6)      =    -82.757001     0.000001     0.044193   -82.712808
	   61 D(1,2,5,14)     =     48.577485    -0.000000     0.030233    48.607718
	   62 D(1,2,5,15)     =    167.034489     0.000000     0.053475   167.087964
	   63 D(1,2,5,16)     =    -73.331433     0.000000     0.048760   -73.282673
	   64 D(2,1,12,19)    =    -65.565077    -0.000001    -0.490766   -66.055843
	   65 D(2,1,12,20)    =     55.317947    -0.000002    -0.507647    54.810300
	   66 D(2,1,12,22)    =    175.456055    -0.000004    -0.559019   174.897036
	   67 D(2,3,4,7)      =    178.476559     0.000001     0.049098   178.525657
	   68 D(2,3,4,10)     =     -2.122759     0.000000     0.015994    -2.106765
	   69 D(2,3,6,9)      =   -178.883756    -0.000000    -0.031663  -178.915419
	   70 D(2,3,6,11)     =      2.051443    -0.000000    -0.031278     2.020165
	   71 *D(3,2,1,12)    =   -175.166543    -0.000000     0.000000  -175.166543
	   72 D(3,2,1,13)     =      5.144606    -0.000003    -0.246760     4.897846
	   73 D(3,2,5,14)     =   -138.887354    -0.000001    -0.090759  -138.978113
	   74 D(3,2,5,15)     =    -20.430350    -0.000000    -0.067517   -20.497867
	   75 D(3,2,5,16)     =     99.203728    -0.000000    -0.072232    99.131496
	   76 D(3,4,7,8)      =      0.591644    -0.000000    -0.016718     0.574926
	   77 D(3,4,7,17)     =    179.971692    -0.000000    -0.017012   179.954679
	   78 D(3,6,9,8)      =      0.227338    -0.000000    -0.018511     0.208827
	   79 D(3,6,9,18)     =   -179.514337    -0.000000    -0.009037  -179.523374
	   80 D(4,3,2,5)      =    -74.868049     0.000000     0.115962   -74.752088
	   81 D(4,3,6,9)      =      0.396890     0.000000     0.012717     0.409606
	   82 D(4,3,6,11)     =   -178.667911     0.000000     0.013102  -178.654810
	   83 D(4,7,8,9)      =      0.030028     0.000000     0.010958     0.040986
	   84 D(4,7,8,21)     =    179.598537     0.000000     0.014471   179.613009
	   85 D(5,2,1,12)     =     -2.737054    -0.000000    -0.122873    -2.859927
	   86 D(5,2,1,13)     =    177.574095    -0.000003    -0.369633   177.204462
	   87 D(5,2,3,6)      =    104.415807     0.000001     0.160154   104.575961
	   88 D(6,3,4,7)      =     -0.806459    -0.000000     0.004853    -0.801606
	   89 D(6,3,4,10)     =    178.594223    -0.000000    -0.028251   178.565973
	   90 D(6,9,8,7)      =     -0.440488     0.000000     0.006681    -0.433806
	   91 D(6,9,8,21)     =    179.990972     0.000000     0.003187   179.994159
	   92 D(7,8,9,18)     =    179.300398    -0.000000    -0.002819   179.297579
	   93 D(8,7,4,10)     =   -178.800923     0.000000     0.016849  -178.784074
	   94 D(8,9,6,11)     =    179.275289    -0.000000    -0.018917   179.256372
	   95 D(9,8,7,17)     =   -179.347905     0.000000     0.011269  -179.336636
	   96 D(10,4,7,17)    =      0.579124     0.000000     0.016554     0.595678
	   97 D(11,6,9,18)    =     -0.466386    -0.000000    -0.009443    -0.475829
	   98 D(13,1,12,19)   =    114.124103     0.000002    -0.244261   113.879841
	   99 D(13,1,12,20)   =   -124.992874     0.000001    -0.261143  -125.254016
	  100 D(13,1,12,22)   =     -4.854766    -0.000000    -0.312514    -5.167280
	  101 D(17,7,8,21)    =      0.220604     0.000000     0.014783     0.235387
	  102 D(18,9,8,21)    =     -0.268143    -0.000000    -0.006313    -0.274456
	  103 R(4,13)         =      3.537465    -0.000225    -0.001574     3.535891
	  104 R(6,13)         =      3.258564     0.000415     0.000939     3.259503
	 ---------------------------------------------------------------------------
	Successfully symmetrized geometry.

  ==> Convergence Check <==

  Measures of convergence in internal coordinates in au.
  Criteria marked as inactive (o), active & met (*), and active & unmet ( ).
  ---------------------------------------------------------------------------------------------
   Step     Total Energy     Delta E     MAX Force     RMS Force      MAX Disp      RMS Disp   
  ---------------------------------------------------------------------------------------------
    Convergence Criteria             o    2.50e-03 *    1.70e-03 *    1.00e-02 *    6.70e-03 *
  ---------------------------------------------------------------------------------------------
      3    -479.38051617   -2.45e-06 o    2.20e-04 *    5.64e-05 *    9.76e-03 *    2.01e-03 *  ~
  ---------------------------------------------------------------------------------------------


  **** Optimization is complete! (in 3 steps) ****

  ==> Optimization Summary <==

  Measures of convergence in internal coordinates in au.
  --------------------------------------------------------------------------------------------------------------- ~
   Step         Total Energy             Delta E       MAX Force       RMS Force        MAX Disp        RMS Disp  ~
  --------------------------------------------------------------------------------------------------------------- ~
      1    -479.380503024758   -479.380503024758      0.00161767      0.00023018      0.02741041      0.00575897  ~
      2    -479.380513719533     -0.000010694774      0.00054200      0.00010155      0.01380753      0.00339077  ~
      3    -479.380516166873     -0.000002447340      0.00021958      0.00005645      0.00975672      0.00200640  ~
  --------------------------------------------------------------------------------------------------------------- ~

	Writing optimization data to binary file.
	Final energy is   -479.3805161668731
	Final (previous) structure:
	Cartesian Geometry (in Angstrom)
	    C     1.6396713588  -0.5689759671  -0.9946642315
	    N     0.9481964443   0.4927421673  -0.4535304383
	    C    -0.3162486436   0.2501015733   0.1873351667
	    C    -0.3764823764   0.1301503090   1.5737722167
	    C     1.5113241312   1.8410729400  -0.3551855912
	    C    -1.4771202065   0.1506000324  -0.5750844360
	    C    -1.6033756257  -0.0731263339   2.2006349841
	    C    -2.7673587222  -0.1686723812   1.4405540922
	    C    -2.7016867851  -0.0611345872   0.0523421765
	    H     0.5362422528   0.1867223403   2.1513752879
	    H    -1.4091070702   0.2244234716  -1.6509803251
	    C     3.0099356848  -0.2730519711  -1.5537087724
	    O     1.1571934178  -1.7134382860  -1.0267422235
	    H     1.9499015170   2.1527949405  -1.3025061193
	    H     0.7068574316   2.5315846854  -0.1146445795
	    H     2.2743087142   1.9155441189   0.4253722944
	    H    -1.6482865161  -0.1664919263   3.2770303864
	    H    -3.6016682974  -0.1461457596  -0.5411218050
	    H     2.9507463750   0.3864913339  -2.4219125981
	    H     3.6594601034   0.2017538796  -0.8167418867
	    H    -3.7193617871  -0.3329921630   1.9263877675
	    H     3.4498360635  -1.2157537337  -1.8634446290
	Saving final (previous) structure.
	Cleaning optimization helper files.
			--------------------------
			 OPTKING Finished Execution 
			--------------------------

    Final optimized geometry and variables:
    Molecular point group: c1
    Full point group: C1

    Geometry (in Angstrom), charge = 0, multiplicity = 1:

    C            1.639671365221    -0.568975969297    -0.994664235401
    N            0.948196448061     0.492742169250    -0.453530440128
    C           -0.316248644804     0.250101574329     0.187335167428
    C           -0.376482377853     0.130150309536     1.573772222901
    C            1.511324137151     1.841072947276    -0.355185592600
    C           -1.477120212353     0.150600033003    -0.575084438307
    C           -1.603375631996    -0.073126334193     2.200634992725
    C           -2.767358733127    -0.168672381824     1.440554097889
    C           -2.701686795729    -0.061134587472     0.052342176724
    H            0.536242254886     0.186722341056     2.151375296392
    H           -1.409107075767     0.224423472511    -1.650980331567
    C            3.009935696676    -0.273051972129    -1.553708778543
    O            1.157193422311    -1.713438292772    -1.026742227504
    H            1.949901524662     2.152794948923    -1.302506124416
    H            0.706857434369     2.531584695310    -0.114644579930
    H            2.274308723104     1.915544126463     0.425372296056
    H           -1.648286522539    -0.166491926916     3.277030399319
    H           -3.601668311525    -0.146145760130    -0.541121807136
    H            2.950746386556     0.386491335467    -2.421912607617
    H            3.659460117739     0.201753880410    -0.816741889915
    H           -3.719361801756    -0.332992164330     1.926387775090
    H            3.449836077040    -1.215753738491    -1.863444636350

	Removing binary optimization data file.
	Cleaning optimization helper files.

    Psi4 stopped on: Wednesday, 08 June 2022 12:02PM
    Psi4 wall time for execution: 0:07:43.19

*** Psi4 exiting successfully. Buy a developer a beer!
