
    -----------------------------------------------------------------------
          Psi4: An Open-Source Ab Initio Electronic Structure Package
                               Psi4 1.5 release

                         Git: Rev {HEAD} e9f4d6d 


    D. G. A. Smith, L. A. Burns, A. C. Simmonett, R. M. Parrish,
    M. C. Schieber, R. Galvelis, P. Kraus, H. Kruse, R. Di Remigio,
    A. Alenaizan, A. M. James, S. Lehtola, J. P. Misiewicz, M. Scheurer,
    R. A. Shaw, J. B. Schriber, Y. Xie, Z. L. Glick, D. A. Sirianni,
    J. S. O'Brien, J. M. Waldrop, A. Kumar, E. G. Hohenstein,
    B. P. Pritchard, B. R. Brooks, H. F. Schaefer III, A. Yu. Sokolov,
    K. Patkowski, A. E. DePrince III, U. Bozkaya, R. A. King,
    F. A. Evangelista, J. M. Turney, T. D. Crawford, C. D. Sherrill,
    J. Chem. Phys. 152(18) 184108 (2020). https://doi.org/10.1063/5.0006002

                            Additional Code Authors
    E. T. Seidl, C. L. Janssen, E. F. Valeev, M. L. Leininger,
    J. F. Gonthier, R. M. Richard, H. R. McAlexander, M. Saitow, X. Wang,
    P. Verma, M. H. Lechner, and A. Jiang

             Previous Authors, Complete List of Code Contributors,
                       and Citations for Specific Modules
    https://github.com/psi4/psi4/blob/master/codemeta.json
    https://github.com/psi4/psi4/graphs/contributors
    http://psicode.org/psi4manual/master/introduction.html#citing-psifour

    -----------------------------------------------------------------------


    Psi4 started on: Wednesday, 08 June 2022 11:19AM

    Process ID: 1093151
    Host:       node74.bme.utexas.edu
    PSIDATADIR: /home/bdw2292/miniconda3/envs/newamoebamdpoltype/share/psi4
    Memory:     500.0 MiB
    Threads:    1
    
  ==> Input File <==

--------------------------------------------------------------------------
molecule { 
0 1
 C    2.045207   -0.389063   -0.199391
 N    0.896829    0.325950   -0.658863
 C   -0.433925    0.116272   -0.094024
 C   -0.805739   -1.083371    0.579880
 C    0.958161    1.121173   -1.921337
 C   -1.395306    1.170094   -0.133989
 C   -2.082460   -1.229514    1.139650
 C   -3.019078   -0.194027    1.062569
 C   -2.668449    1.001972    0.429163
 H   -0.102064   -1.908753    0.664543
 H   -1.157451    2.129919   -0.596650
 C    3.403137    0.008929   -0.794276
 O    2.002287   -1.257527    0.671393
 H    0.009224    1.076329   -2.458023
 H    1.183863    2.164773   -1.696833
 H    1.712370    0.738418   -2.608510
 H   -2.344306   -2.164962    1.637304
 H   -3.389136    1.819921    0.369799
 H    3.562758   -0.487426   -1.751740
 H    3.494253    1.087811   -0.921581
 H   -4.012953   -0.316757    1.496877
 H    4.199458   -0.308868   -0.119698
}
set optking { 
  frozen_dihedral = ("
    1 2 3 4
    12 1 2 3
  ")
}
set {
  geom_maxiter 400
  g_convergence GAU_LOOSE
  dynamic_level 1
}
memory 8.166666666666666GB
set_num_threads(2)
psi4_io.set_default_path("/scratch/bdw2292/Psi4-3_24_Index_0-farH_in17")
for _ in range(1):
  try:
    set opt_coordinates both
    optimize('wb97x-d/6-311G')
    break
  except OptimizationConvergenceError:
    break
  else:
    try:
      set opt_coordinates cartesian
      optimize('wb97x-d/6-311G')
      break
    except OptimizationConvergenceError:
      pass
clean()
--------------------------------------------------------------------------

  Memory set to   7.606 GiB by Python driver.
  Threads set to 2 by Python driver.

Scratch directory: /scratch/bdw2292/Psi4-3_24_Index_0-farH_in17/

Scratch directory: /scratch/bdw2292/Psi4-3_24_Index_0-farH_in17/
gradient() will perform analytic gradient computation.

*** tstart() called on node74.bme.utexas.edu
*** at Wed Jun  8 11:19:31 2022

   => Loading Basis Set <=

    Name: 6-311G
    Role: ORBITAL
    Keyword: BASIS
    atoms 1, 3-9, 12   entry C          line    92 file /home/bdw2292/miniconda3/envs/newamoebamdpoltype/share/psi4/basis/6-311g.gbs 
    atoms 2            entry N          line   109 file /home/bdw2292/miniconda3/envs/newamoebamdpoltype/share/psi4/basis/6-311g.gbs 
    atoms 10-11, 14-22 entry H          line    21 file /home/bdw2292/miniconda3/envs/newamoebamdpoltype/share/psi4/basis/6-311g.gbs 
    atoms 13           entry O          line   126 file /home/bdw2292/miniconda3/envs/newamoebamdpoltype/share/psi4/basis/6-311g.gbs 

   => WB97X-D: Empirical Dispersion <=

    Chai and Head-Gordon Dispersion Correction
    Chai, J.-D.; Head-Gordon, M. (2010), J. Chem. Phys., 132: 6615-6620

        s6 =       1.000000


         ---------------------------------------------------------
                                   SCF
               by Justin Turney, Rob Parrish, Andy Simmonett
                          and Daniel G. A. Smith
                              RKS Reference
                        2 Threads,   7788 MiB Core
         ---------------------------------------------------------

  ==> Geometry <==

    Molecular point group: c1
    Full point group: C1

    Geometry (in Angstrom), charge = 0, multiplicity = 1:

       Center              X                  Y                   Z               Mass       
    ------------   -----------------  -----------------  -----------------  -----------------
         C            2.046655441920    -0.352709168223    -0.174575238093    12.000000000000
         N            0.898277441920     0.362303831777    -0.634047238093    14.003074004430
         C           -0.432476558080     0.152625831777    -0.069208238093    12.000000000000
         C           -0.804290558080    -1.047017168223     0.604695761907    12.000000000000
         C            0.959609441920     1.157526831777    -1.896521238093    12.000000000000
         C           -1.393857558080     1.206447831777    -0.109173238093    12.000000000000
         C           -2.081011558080    -1.193160168223     1.164465761907    12.000000000000
         C           -3.017629558080    -0.157673168223     1.087384761907    12.000000000000
         C           -2.667000558080     1.038325831777     0.453978761907    12.000000000000
         H           -0.100615558080    -1.872399168223     0.689358761907     1.007825032230
         H           -1.156002558080     2.166272831777    -0.571834238093     1.007825032230
         C            3.404585441920     0.045282831777    -0.769460238093    12.000000000000
         O            2.003735441920    -1.221173168223     0.696208761907    15.994914619570
         H            0.010672441920     1.112682831777    -2.433207238093     1.007825032230
         H            1.185311441920     2.201126831777    -1.672017238093     1.007825032230
         H            1.713818441920     0.774771831777    -2.583694238093     1.007825032230
         H           -2.342857558080    -2.128608168223     1.662119761907     1.007825032230
         H           -3.387687558080     1.856274831777     0.394614761907     1.007825032230
         H            3.564206441920    -0.451072168223    -1.726924238093     1.007825032230
         H            3.495701441920     1.124164831777    -0.896765238093     1.007825032230
         H           -4.011504558080    -0.280403168223     1.521692761907     1.007825032230
         H            4.200906441920    -0.272514168223    -0.094882238093     1.007825032230

  Running in c1 symmetry.

  Rotational constants: A =      0.07969  B =      0.02411  C =      0.01922 [cm^-1]
  Rotational constants: A =   2388.96926  B =    722.82115  C =    576.16581 [MHz]
  Nuclear repulsion =  579.885529394290984

  Charge       = 0
  Multiplicity = 1
  Electrons    = 80
  Nalpha       = 40
  Nbeta        = 40

  ==> Algorithm <==

  SCF Algorithm Type is DF.
  DIIS enabled.
  MOM disabled.
  Fractional occupation disabled.
  Guess Type is SAD.
  Energy threshold   = 1.00e-08
  Density threshold  = 1.00e-08
  Integral threshold = 1.00e-12

  ==> Primary Basis <==

  Basis Set: 6-311G
    Blend: 6-311G
    Number of shells: 110
    Number of basis functions: 176
    Number of Cartesian functions: 176
    Spherical Harmonics?: true
    Max angular momentum: 1

  ==> DFT Potential <==

   => LibXC <=

    Version 5.1.5
    S. Lehtola, C. Steigemann, M. J. Oliveira, and M. A. Marques, SoftwareX 7, 1 (2018) (10.1016/j.softx.2017.11.002)

   => Composite Functional: WB97X-D <= 

    wB97X-D Hyb-GGA Exchange-Correlation Functional

    J.-D. Chai and M. Head-Gordon, Phys. Chem. Chem. Phys. 10, 6615 (2008) (10.1039/B810189B)

    Deriv               =              1
    GGA                 =           TRUE
    Meta                =          FALSE

    Exchange Hybrid     =           TRUE
    MP2 Hybrid          =          FALSE

   => Exchange-Correlation Functionals <=

    1.0000   wB97X-D range-separated functional

   => Exact (HF) Exchange <=

    0.7780            HF,LR [omega = 0.2000]
    0.2220               HF 

   => LibXC Density Thresholds  <==

    XC_HYB_GGA_XC_WB97X_D:  1.00E-14 

   => Molecular Quadrature <=

    Radial Scheme          =       TREUTLER
    Pruning Scheme         =           NONE
    Nuclear Scheme         =       TREUTLER

    BS radius alpha        =              1
    Pruning alpha          =              1
    Radial Points          =             75
    Spherical Points       =            302
    Total Points           =         460280
    Total Blocks           =           3398
    Max Points             =            256
    Max Functions          =            151
    Weights Tolerance      =       1.00E-15

   => Loading Basis Set <=

    Name: (6-311G AUX)
    Role: JKFIT
    Keyword: DF_BASIS_SCF
    atoms 1, 3-9, 12   entry C          line   125 file /home/bdw2292/miniconda3/envs/newamoebamdpoltype/share/psi4/basis/cc-pvtz-jkfit.gbs 
    atoms 2            entry N          line   177 file /home/bdw2292/miniconda3/envs/newamoebamdpoltype/share/psi4/basis/cc-pvtz-jkfit.gbs 
    atoms 10-11, 14-22 entry H          line    51 file /home/bdw2292/miniconda3/envs/newamoebamdpoltype/share/psi4/basis/cc-pvtz-jkfit.gbs 
    atoms 13           entry O          line   229 file /home/bdw2292/miniconda3/envs/newamoebamdpoltype/share/psi4/basis/cc-pvtz-jkfit.gbs 

  ==> Integral Setup <==

  DFHelper Memory: AOs need 0.743 GiB; user supplied 4.288 GiB. Using in-core AOs.

  ==> MemDFJK: Density-Fitted J/K Matrices <==

    J tasked:                   Yes
    K tasked:                   Yes
    wK tasked:                  Yes
    Omega:                2.000E-01
    OpenMP threads:               2
    Memory [MiB]:              4391
    Algorithm:                 Core
    Schwarz Cutoff:           1E-12
    Mask sparsity (%):      12.6485
    Fitting Condition:        1E-10

   => Auxiliary Basis Set <=

  Basis Set: (6-311G AUX)
    Blend: CC-PVTZ-JKFIT
    Number of shells: 385
    Number of basis functions: 1199
    Number of Cartesian functions: 1441
    Spherical Harmonics?: true
    Max angular momentum: 4

  Cached 100.0% of DFT collocation blocks in 1.416 [GiB].

  Minimum eigenvalue in the overlap matrix is 2.7945918499E-04.
  Reciprocal condition number of the overlap matrix is 4.1877298581E-05.
    Using symmetric orthogonalization.

  ==> Pre-Iterations <==

  SCF Guess: Superposition of Atomic Densities via on-the-fly atomic UHF (no occupation information).

   -------------------------
    Irrep   Nso     Nmo    
   -------------------------
     A        176     176 
   -------------------------
    Total     176     176
   -------------------------

  ==> Iterations <==

                           Total Energy        Delta E     RMS |[F,P]|

   @DF-RKS iter SAD:  -478.40515480069223   -4.78405e+02   0.00000e+00 
   @DF-RKS iter   1:  -478.96934444096200   -5.64190e-01   5.22530e-03 DIIS
   @DF-RKS iter   2:  -479.03835432584100   -6.90099e-02   5.27327e-03 DIIS
   @DF-RKS iter   3:  -479.34717532544431   -3.08821e-01   1.46747e-03 DIIS
   @DF-RKS iter   4:  -479.37276201953119   -2.55867e-02   2.43014e-04 DIIS
   @DF-RKS iter   5:  -479.37350874910197   -7.46730e-04   9.53866e-05 DIIS
   @DF-RKS iter   6:  -479.37363383445393   -1.25085e-04   2.32109e-05 DIIS
   @DF-RKS iter   7:  -479.37364190148827   -8.06703e-06   7.30785e-06 DIIS
   @DF-RKS iter   8:  -479.37364302243788   -1.12095e-06   2.10399e-06 DIIS
   @DF-RKS iter   9:  -479.37364314316022   -1.20722e-07   1.00670e-06 DIIS
   @DF-RKS iter  10:  -479.37364316888102   -2.57208e-08   2.80899e-07 DIIS
   @DF-RKS iter  11:  -479.37364317190213   -3.02111e-09   1.17380e-07 DIIS
   @DF-RKS iter  12:  -479.37364317223438   -3.32250e-10   3.14869e-08 DIIS
   @DF-RKS iter  13:  -479.37364317228435   -4.99654e-11   8.28305e-09 DIIS
  Energy and wave function converged.


  ==> Post-Iterations <==

   Electrons on quadrature grid:
      Ntotal   =   79.9999723708 ; deviation = -2.763e-05 

    Orbital Energies [Eh]
    ---------------------

    Doubly Occupied:                                                      

       1A    -19.223025     2A    -14.485667     3A    -10.413723  
       4A    -10.348222     5A    -10.333699     6A    -10.299853  
       7A    -10.297416     8A    -10.296062     9A    -10.292180  
      10A    -10.290085    11A    -10.289075    12A     -1.160949  
      13A     -1.043403    14A     -0.953883    15A     -0.864868  
      16A     -0.850114    17A     -0.836876    18A     -0.808220  
      19A     -0.720838    20A     -0.700396    21A     -0.652788  
      22A     -0.604309    23A     -0.583159    24A     -0.572460  
      25A     -0.568782    26A     -0.537548    27A     -0.533545  
      28A     -0.523640    29A     -0.507640    30A     -0.499350  
      31A     -0.495694    32A     -0.487487    33A     -0.464604  
      34A     -0.449398    35A     -0.442086    36A     -0.429600  
      37A     -0.370375    38A     -0.339906    39A     -0.327799  
      40A     -0.296108  

    Virtual:                                                              

      41A      0.051415    42A      0.064671    43A      0.093892  
      44A      0.109349    45A      0.130412    46A      0.146554  
      47A      0.162823    48A      0.167166    49A      0.174915  
      50A      0.184269    51A      0.193347    52A      0.203916  
      53A      0.220571    54A      0.229501    55A      0.234281  
      56A      0.235657    57A      0.254645    58A      0.302206  
      59A      0.332563    60A      0.338711    61A      0.357328  
      62A      0.364811    63A      0.374128    64A      0.389558  
      65A      0.395384    66A      0.415655    67A      0.426093  
      68A      0.450608    69A      0.464618    70A      0.482417  
      71A      0.491060    72A      0.493048    73A      0.504619  
      74A      0.512271    75A      0.521025    76A      0.522783  
      77A      0.545212    78A      0.553121    79A      0.557239  
      80A      0.580919    81A      0.581444    82A      0.596398  
      83A      0.617706    84A      0.635453    85A      0.639576  
      86A      0.643338    87A      0.653758    88A      0.666056  
      89A      0.671137    90A      0.686919    91A      0.691179  
      92A      0.693720    93A      0.707174    94A      0.709201  
      95A      0.724689    96A      0.737097    97A      0.753207  
      98A      0.760125    99A      0.774181   100A      0.827067  
     101A      0.848618   102A      0.860114   103A      0.874298  
     104A      0.885554   105A      0.892704   106A      0.918425  
     107A      0.942488   108A      0.950246   109A      0.969345  
     110A      0.997529   111A      1.033385   112A      1.045523  
     113A      1.062400   114A      1.114705   115A      1.136673  
     116A      1.204774   117A      1.239688   118A      1.261505  
     119A      1.363706   120A      1.487566   121A      1.703870  
     122A      2.276743   123A      2.299750   124A      2.326238  
     125A      2.328696   126A      2.354374   127A      2.371966  
     128A      2.382480   129A      2.387794   130A      2.438788  
     131A      2.464149   132A      2.615659   133A      2.632628  
     134A      2.654269   135A      2.672061   136A      2.684254  
     137A      2.783667   138A      2.790644   139A      2.831911  
     140A      2.836046   141A      2.864360   142A      2.905899  
     143A      2.921642   144A      2.936078   145A      2.965158  
     146A      3.008017   147A      3.017271   148A      3.053008  
     149A      3.091425   150A      3.125409   151A      3.176996  
     152A      3.180597   153A      3.207776   154A      3.249492  
     155A      3.293892   156A      3.318587   157A      3.353553  
     158A      3.357621   159A      3.505886   160A      3.903348  
     161A      4.156485   162A      4.226530   163A      4.979923  
     164A      5.064667   165A      5.129308   166A     23.239224  
     167A     23.415190   168A     23.478124   169A     23.491735  
     170A     23.536167   171A     23.616890   172A     23.718091  
     173A     23.760398   174A     23.990785   175A     35.540535  
     176A     50.031096  

    Final Occupation by Irrep:
              A 
    DOCC [    40 ]

  @DF-RKS Final Energy:  -479.37364317228435

   => Energetics <=

    Nuclear Repulsion Energy =            579.8855293942909839
    One-Electron Energy =               -1798.2324325057061287
    Two-Electron Energy =                 785.9730794698839418
    DFT Exchange-Correlation Energy =     -46.9873304873519970
    Empirical Dispersion Energy =          -0.0124890434013040
    VV10 Nonlocal Energy =                  0.0000000000000000
    Total Energy =                       -479.3736431722844031

Computation Completed


Properties will be evaluated at   0.000000,   0.000000,   0.000000 [a0]

Properties computed using the SCF density matrix

  Nuclear Dipole Moment: [e a0]
     X:     2.9806      Y:     3.9589      Z:    -5.3492

  Electronic Dipole Moment: [e a0]
     X:    -2.9587      Y:    -3.0233      Z:     4.1251

  Dipole Moment: [e a0]
     X:     0.0220      Y:     0.9355      Z:    -1.2241     Total:     1.5409

  Dipole Moment: [D]
     X:     0.0558      Y:     2.3779      Z:    -3.1115     Total:     3.9165


*** tstop() called on node74.bme.utexas.edu at Wed Jun  8 11:20:09 2022
Module time:
	user time   =      69.67 seconds =       1.16 minutes
	system time =       3.58 seconds =       0.06 minutes
	total time  =         38 seconds =       0.63 minutes
Total time:
	user time   =      69.67 seconds =       1.16 minutes
	system time =       3.58 seconds =       0.06 minutes
	total time  =         38 seconds =       0.63 minutes

*** tstart() called on node74.bme.utexas.edu
*** at Wed Jun  8 11:20:09 2022


         ------------------------------------------------------------
                                   SCF GRAD                          
                          Rob Parrish, Justin Turney,                
                       Andy Simmonett, and Alex Sokolov              
         ------------------------------------------------------------

  ==> Geometry <==

    Molecular point group: c1
    Full point group: C1

    Geometry (in Angstrom), charge = 0, multiplicity = 1:

       Center              X                  Y                   Z               Mass       
    ------------   -----------------  -----------------  -----------------  -----------------
         C            2.046655441920    -0.352709168223    -0.174575238093    12.000000000000
         N            0.898277441920     0.362303831777    -0.634047238093    14.003074004430
         C           -0.432476558080     0.152625831777    -0.069208238093    12.000000000000
         C           -0.804290558080    -1.047017168223     0.604695761907    12.000000000000
         C            0.959609441920     1.157526831777    -1.896521238093    12.000000000000
         C           -1.393857558080     1.206447831777    -0.109173238093    12.000000000000
         C           -2.081011558080    -1.193160168223     1.164465761907    12.000000000000
         C           -3.017629558080    -0.157673168223     1.087384761907    12.000000000000
         C           -2.667000558080     1.038325831777     0.453978761907    12.000000000000
         H           -0.100615558080    -1.872399168223     0.689358761907     1.007825032230
         H           -1.156002558080     2.166272831777    -0.571834238093     1.007825032230
         C            3.404585441920     0.045282831777    -0.769460238093    12.000000000000
         O            2.003735441920    -1.221173168223     0.696208761907    15.994914619570
         H            0.010672441920     1.112682831777    -2.433207238093     1.007825032230
         H            1.185311441920     2.201126831777    -1.672017238093     1.007825032230
         H            1.713818441920     0.774771831777    -2.583694238093     1.007825032230
         H           -2.342857558080    -2.128608168223     1.662119761907     1.007825032230
         H           -3.387687558080     1.856274831777     0.394614761907     1.007825032230
         H            3.564206441920    -0.451072168223    -1.726924238093     1.007825032230
         H            3.495701441920     1.124164831777    -0.896765238093     1.007825032230
         H           -4.011504558080    -0.280403168223     1.521692761907     1.007825032230
         H            4.200906441920    -0.272514168223    -0.094882238093     1.007825032230

  Nuclear repulsion =  579.885529394290984

  ==> Basis Set <==

  Basis Set: 6-311G
    Blend: 6-311G
    Number of shells: 110
    Number of basis functions: 176
    Number of Cartesian functions: 176
    Spherical Harmonics?: true
    Max angular momentum: 1

  ==> DFJKGrad: Density-Fitted SCF Gradients <==

    Gradient:                    1
    J tasked:                  Yes
    K tasked:                  Yes
    wK tasked:                 Yes
    Omega:               2.000E-01
    OpenMP threads:              2
    Integrals threads:           2
    Memory [MiB]:             5841
    Schwarz Cutoff:          1E-12
    Fitting Condition:       1E-10

   => Auxiliary Basis Set <=

  Basis Set: (6-311G AUX)
    Blend: CC-PVTZ-JKFIT
    Number of shells: 385
    Number of basis functions: 1199
    Number of Cartesian functions: 1441
    Spherical Harmonics?: true
    Max angular momentum: 4

  ==> DFT Potential <==

   => LibXC <=

    Version 5.1.5
    S. Lehtola, C. Steigemann, M. J. Oliveira, and M. A. Marques, SoftwareX 7, 1 (2018) (10.1016/j.softx.2017.11.002)

   => Composite Functional: WB97X-D <= 

    wB97X-D Hyb-GGA Exchange-Correlation Functional

    J.-D. Chai and M. Head-Gordon, Phys. Chem. Chem. Phys. 10, 6615 (2008) (10.1039/B810189B)

    Deriv               =              1
    GGA                 =           TRUE
    Meta                =          FALSE

    Exchange Hybrid     =           TRUE
    MP2 Hybrid          =          FALSE

   => Exchange-Correlation Functionals <=

    1.0000   wB97X-D range-separated functional

   => Exact (HF) Exchange <=

    0.7780            HF,LR [omega = 0.2000]
    0.2220               HF 

   => LibXC Density Thresholds  <==

    XC_HYB_GGA_XC_WB97X_D:  1.00E-14 

   => Molecular Quadrature <=

    Radial Scheme          =       TREUTLER
    Pruning Scheme         =           NONE
    Nuclear Scheme         =       TREUTLER

    BS radius alpha        =              1
    Pruning alpha          =              1
    Radial Points          =             75
    Spherical Points       =            302
    Total Points           =         460280
    Total Blocks           =           3398
    Max Points             =            256
    Max Functions          =            151
    Weights Tolerance      =       1.00E-15


  -Total Gradient:
     Atom            X                  Y                   Z
    ------   -----------------  -----------------  -----------------
       1        0.004609473047    -0.023545330363     0.012179339780
       2        0.002077776423     0.019359916008     0.006063818340
       3        0.002995317268    -0.001185337156    -0.014334217528
       4       -0.003953256495    -0.001938859542     0.007630297598
       5       -0.002782085780     0.000311141905    -0.010031960616
       6       -0.007801492761     0.007781444469     0.001959279206
       7       -0.001523206930    -0.004691458867     0.002927699761
       8        0.001064178066     0.000469309591    -0.000946397070
       9       -0.003025873395     0.000373261387     0.002473930955
      10        0.003379919153    -0.008488099581     0.001196063776
      11       -0.000805149415     0.006760539056    -0.002370876741
      12        0.008649256309    -0.002841341592    -0.002339655824
      13        0.004557672139     0.005832870005    -0.006502253595
      14        0.000394906126     0.001945113437    -0.005521334661
      15       -0.000145978312    -0.000993817957     0.002118510127
      16       -0.001255994833     0.001248517797    -0.004342123978
      17       -0.002618066432    -0.005593594592     0.003234105703
      18       -0.004946874311     0.004628683288    -0.000480711440
      19        0.000027316574    -0.001222530748     0.001914400828
      20        0.001260168062     0.000396868178     0.003065679879
      21       -0.006197682910    -0.001090874734     0.002630244499
      22        0.006084457909     0.002592003109    -0.000602782998


*** tstop() called on node74.bme.utexas.edu at Wed Jun  8 11:20:25 2022
Module time:
	user time   =      32.36 seconds =       0.54 minutes
	system time =       0.54 seconds =       0.01 minutes
	total time  =         16 seconds =       0.27 minutes
Total time:
	user time   =     102.03 seconds =       1.70 minutes
	system time =       4.12 seconds =       0.07 minutes
	total time  =         54 seconds =       0.90 minutes

			-----------------------------------------
			 OPTKING 2.0: for geometry optimizations 
			  - R.A. King,  Bethel University        
			-----------------------------------------
	At level 1: Red. Int., RFO, no backsteps, dynamic trust

	Internal coordinates to be generated automatically.
	Detected frag 1 with atoms:  1 2 3 4 5 6 7 8 9 10 11 12 13 14 15 16 17 18 19 20
	 21 22
	---Fragment 1 Bond Connectivity---
	 1 : 2 12 13
	 2 : 1 3 5
	 3 : 2 4 6
	 4 : 3 7 10
	 5 : 2 14 15 16
	 6 : 3 9 11
	 7 : 4 8 17
	 8 : 7 9 21
	 9 : 6 8 18
	 10 : 4
	 11 : 6
	 12 : 1 19 20 22
	 13 : 1
	 14 : 5
	 15 : 5
	 16 : 5
	 17 : 7
	 18 : 9
	 19 : 12
	 20 : 12
	 21 : 8
	 22 : 12

	Assuming in current code that numbering for constraints corresponds to unified fragment.
	Frozen dihedral atom list: 
	     1     2     3     4
	    12     1     2     3
	---Fragment 1 Geometry and Gradient---
	 C           3.8676182584       -0.6665237299       -0.3298993883
	 N           1.6974983499        0.6846550163       -1.1981756306
	 C          -0.8172622505        0.2884210217       -0.1307846156
	 C          -1.5198888801       -1.9785756966        1.1427093792
	 C           1.8133990326        2.1874086949       -3.5839057311
	 C          -2.6340090427        2.2798559867       -0.2063075202
	 C          -3.9325419087       -2.2547459417        2.2005213725
	 C          -5.7024934129       -0.2979591053        2.0548593930
	 C          -5.0399006312        1.9621514510        0.8578955268
	 H          -0.1901358487       -3.5383216255        1.3026992622
	 H          -2.1845282351        4.0936623651       -1.0806100992
	 C           6.4337340559        0.0855721502       -1.4540691144
	 O           3.7865112131       -2.3076828397        1.3156438861
	 H           0.0201679923        2.1026658166       -4.5980952865
	 H           2.2399139986        4.1595268795       -3.1596546570
	 H           3.2386474840        1.4641065718       -4.8824745019
	 H          -4.4273591357       -4.0224864664        3.1409511377
	 H          -6.4018016834        3.5078510456        0.7457138251
	 H           6.7353740298       -0.8524028608       -3.2634138494
	 H           6.6059183416        2.1243636519       -1.6946406988
	 H          -7.5806449658       -0.5298851927        2.8755825671
	 H           7.9385626539       -0.5149771432       -0.1793014442
	             0.0046094730       -0.0235453304        0.0121793398
	             0.0020777764        0.0193599160        0.0060638183
	             0.0029953173       -0.0011853372       -0.0143342175
	            -0.0039532565       -0.0019388595        0.0076302976
	            -0.0027820858        0.0003111419       -0.0100319606
	            -0.0078014928        0.0077814445        0.0019592792
	            -0.0015232069       -0.0046914589        0.0029276998
	             0.0010641781        0.0004693096       -0.0009463971
	            -0.0030258734        0.0003732614        0.0024739310
	             0.0033799192       -0.0084880996        0.0011960638
	            -0.0008051494        0.0067605391       -0.0023708767
	             0.0086492563       -0.0028413416       -0.0023396558
	             0.0045576721        0.0058328700       -0.0065022536
	             0.0003949061        0.0019451134       -0.0055213347
	            -0.0001459783       -0.0009938180        0.0021185101
	            -0.0012559948        0.0012485178       -0.0043421240
	            -0.0026180664       -0.0055935946        0.0032341057
	            -0.0049468743        0.0046286833       -0.0004807114
	             0.0000273166       -0.0012225307        0.0019144008
	             0.0012601681        0.0003968682        0.0030656799
	            -0.0061976829       -0.0010908747        0.0026302445
	             0.0060844579        0.0025920031       -0.0006027830

	Previous optimization step data not found.  Starting new optimization.

	---Fragment 1 Intrafragment Coordinates---
	 - Coordinate -           - BOHR/RAD -       - ANG/DEG -
	 R(1,2)           =         2.699816	       1.428681
	 R(1,12)          =         2.900751	       1.535011
	 R(1,13)          =         2.325466	       1.230584
	 R(2,3)           =         2.760497	       1.460792
	 R(2,5)           =         2.821951	       1.493312
	 R(3,4)           =         2.693463	       1.425319
	 R(3,6)           =         2.696681	       1.427022
	 R(4,7)           =         2.648798	       1.401684
	 R(4,10)          =         2.055881	       1.087925
	 R(5,14)          =         2.061902	       1.091111
	 R(5,15)          =         2.061833	       1.091075
	 R(5,16)          =         2.059315	       1.089743
	 R(6,9)           =         2.649864	       1.402248
	 R(6,11)          =         2.063088	       1.091739
	 R(7,8)           =         2.642529	       1.398366
	 R(7,17)          =         2.062561	       1.091460
	 R(8,9)           =         2.641941	       1.398055
	 R(8,21)          =         2.062724	       1.091546
	 R(9,18)          =         2.063140	       1.091767
	 R(12,19)         =         2.060221	       1.090222
	 R(12,20)         =         2.060144	       1.090181
	 R(12,22)         =         2.061602	       1.090953
	 B(1,2,3)         =         2.136558	     122.415751
	 B(1,2,5)         =         2.100631	     120.357271
	 B(1,12,19)       =         1.930322	     110.599327
	 B(1,12,20)       =         1.956036	     112.072601
	 B(1,12,22)       =         1.907698	     109.303033
	 B(2,1,12)        =         2.045054	     117.172967
	 B(2,1,13)        =         2.156443	     123.555061
	 B(2,3,4)         =         2.142745	     122.770234
	 B(2,3,6)         =         2.090817	     119.794972
	 B(2,5,14)        =         1.937169	     110.991595
	 B(2,5,15)        =         1.921854	     110.114114
	 B(2,5,16)        =         1.954644	     111.992877
	 B(3,2,5)         =         2.027227	     116.151527
	 B(3,4,7)         =         2.110848	     120.942678
	 B(3,4,10)        =         2.102054	     120.438794
	 B(3,6,9)         =         2.108172	     120.789375
	 B(3,6,11)        =         2.111032	     120.953225
	 B(4,3,6)         =         2.047721	     117.325745
	 B(4,7,8)         =         2.106983	     120.721242
	 B(4,7,17)        =         2.082843	     119.338134
	 B(6,9,8)         =         2.108571	     120.812245
	 B(6,9,18)        =         2.080218	     119.187732
	 B(7,4,10)        =         2.070267	     118.617582
	 B(7,8,9)         =         2.083422	     119.371285
	 B(7,8,21)        =         2.099796	     120.309447
	 B(8,7,17)        =         2.093354	     119.940353
	 B(8,9,18)        =         2.094394	     119.999961
	 B(9,6,11)        =         2.063956	     118.255947
	 B(9,8,21)        =         2.099957	     120.318674
	 B(12,1,13)       =         2.080671	     119.213656
	 B(14,5,15)       =         1.896977	     108.688801
	 B(14,5,16)       =         1.851795	     106.100038
	 B(15,5,16)       =         1.899201	     108.816225
	 B(19,12,20)      =         1.913218	     109.619291
	 B(19,12,22)      =         1.879211	     107.670846
	 B(20,12,22)      =         1.874946	     107.426509
	*D(1,2,3,4)       =        -0.400133	     -22.925926
	 D(1,2,3,6)       =         2.673387	     153.173774
	 D(1,2,5,14)      =         2.521505	     144.471576
	 D(1,2,5,15)      =        -1.660324	     -95.129533
	 D(1,2,5,16)      =         0.455396	      26.092251
	 D(2,1,12,19)     =        -1.453352	     -83.270956
	 D(2,1,12,20)     =         0.687269	      39.377587
	 D(2,1,12,22)     =         2.763794	     158.353753
	 D(2,3,4,7)       =         3.110745	     178.232548
	 D(2,3,4,10)      =        -0.037106	      -2.126029
	 D(2,3,6,9)       =        -3.115947	    -178.530614
	 D(2,3,6,11)      =         0.017858	       1.023196
	*D(3,2,1,12)      =        -3.054269	    -174.996725
	 D(3,2,1,13)      =         0.038372	       2.198555
	 D(3,2,5,14)      =        -0.418080	     -23.954242
	 D(3,2,5,15)      =         1.683277	      96.444650
	 D(3,2,5,16)      =        -2.484189	    -142.333566
	 D(3,4,7,8)       =        -0.012048	      -0.690301
	 D(3,4,7,17)      =         3.126240	     179.120332
	 D(3,6,9,8)       =         0.018458	       1.057547
	 D(3,6,9,18)      =        -3.124722	    -179.033366
	 D(4,3,2,5)       =         2.534911	     145.239695
	 D(4,3,6,9)       =        -0.038778	      -2.221804
	 D(4,3,6,11)      =         3.095027	     177.332005
	 D(4,7,8,9)       =        -0.009721	      -0.556976
	 D(4,7,8,21)      =         3.136745	     179.722257
	 D(5,2,1,12)      =         0.302316	      17.321444
	 D(5,2,1,13)      =        -2.888228	    -165.483276
	 D(5,2,3,6)       =        -0.674755	     -38.660605
	 D(6,3,4,7)       =         0.035644	       2.042266
	 D(6,3,4,10)      =        -3.112207	    -178.316312
	 D(6,9,8,7)       =         0.006510	       0.372971
	 D(6,9,8,21)      =        -3.139957	    -179.906288
	 D(7,8,9,18)      =        -3.133484	    -179.535381
	 D(8,7,4,10)      =         3.135691	     179.661878
	 D(8,9,6,11)      =        -3.115553	    -178.508042
	 D(9,8,7,17)      =         3.135197	     179.633527
	 D(10,4,7,17)     =        -0.009206	      -0.527489
	 D(11,6,9,18)     =         0.024453	       1.401045
	 D(13,1,12,19)    =         1.734978	      99.406896
	 D(13,1,12,20)    =        -2.407587	    -137.944560
	 D(13,1,12,22)    =        -0.331061	     -18.968394
	 D(17,7,8,21)     =        -0.001523	      -0.087240
	 D(18,9,8,21)     =         0.003235	       0.185360
	 R(4,13)          =         5.319408	       2.814909

	Current energy   :      -479.3736431723

	Generating empirical Hessian (Schlegel '84) for each fragment.
	Taking RFO optimization step.
	Going to follow RFO solution 1.
	Using RFO vector 1.
	Norm of target step-size    0.32635
	Projected energy change by RFO approximation:        -0.0123115513

	Back-transformation to cartesian coordinates...
	Could not converge backtransformation.
	Using first guess instead.

	Back-transformation to cartesian coordinates to adjust frozen coordinates...
	Successfully converged to displaced geometry.

	--- Internal Coordinate Step in ANG or DEG, aJ/ANG or AJ/DEG ---
	 ---------------------------------------------------------------------------
	   Coordinate                Previous        Force       Change         New 
	   ----------                --------       ------       ------       ------
	    1 R(1,2)          =      1.428681    -0.251592    -0.038930     1.389752
	    2 R(1,12)         =      1.535011    -0.107677    -0.019680     1.515332
	    3 R(1,13)         =      1.230584     0.073535     0.005850     1.236434
	    4 R(2,3)          =      1.460792    -0.177995    -0.031576     1.429217
	    5 R(2,5)          =      1.493312    -0.133285    -0.020914     1.472398
	    6 R(3,4)          =      1.425319    -0.172523    -0.026599     1.398721
	    7 R(3,6)          =      1.427022    -0.182484    -0.025789     1.401233
	    8 R(4,7)          =      1.401684    -0.076124    -0.009602     1.392082
	    9 R(4,10)         =      1.087925    -0.071803    -0.011735     1.076190
	   10 R(5,14)         =      1.091111    -0.018869    -0.003282     1.087830
	   11 R(5,15)         =      1.091075     0.004603     0.001767     1.092841
	   12 R(5,16)         =      1.089743    -0.011843    -0.001588     1.088154
	   13 R(6,9)          =      1.402248    -0.090938    -0.011490     1.390758
	   14 R(6,11)         =      1.091739    -0.055802    -0.007977     1.083762
	   15 R(7,8)          =      1.398366    -0.052887    -0.005255     1.393111
	   16 R(7,17)         =      1.091460    -0.056818    -0.009508     1.081953
	   17 R(8,9)          =      1.398055    -0.058483    -0.006099     1.391956
	   18 R(8,21)         =      1.091546    -0.056155    -0.009520     1.082027
	   19 R(9,18)         =      1.091767    -0.055722    -0.008640     1.083126
	   20 R(12,19)        =      1.090222     0.009274     0.002502     1.092724
	   21 R(12,20)        =      1.090181    -0.001042     0.000440     1.090621
	   22 R(12,22)        =      1.090953    -0.027382    -0.004434     1.086519
	   23 B(1,2,3)        =    122.415751     0.000601     1.354754   123.770505
	   24 B(1,2,5)        =    120.357271    -0.000527    -1.003049   119.354221
	   25 B(1,12,19)      =    110.599327     0.000115     0.435504   111.034831
	   26 B(1,12,20)      =    112.072601     0.000094     0.527270   112.599872
	   27 B(1,12,22)      =    109.303033    -0.000584    -2.518305   106.784728
	   28 B(2,1,12)       =    117.172967    -0.000795    -2.015073   115.157894
	   29 B(2,1,13)       =    123.555061     0.000190     0.036900   123.591962
	   30 B(2,3,4)        =    122.770234     0.000363     0.743772   123.514007
	   31 B(2,3,6)        =    119.794972    -0.000946    -2.358819   117.436154
	   32 B(2,5,14)       =    110.991595    -0.000547    -2.498543   108.493052
	   33 B(2,5,15)       =    110.114114     0.000413     1.971810   112.085924
	   34 B(2,5,16)       =    111.992877    -0.000394    -1.727104   110.265773
	   35 B(3,2,5)        =    116.151527    -0.000050     0.420479   116.572007
	   36 B(3,4,7)        =    120.942678    -0.000289    -1.087057   119.855622
	   37 B(3,4,10)       =    120.438794    -0.000075    -0.419357   120.019438
	   38 B(3,6,9)        =    120.789375     0.000007    -0.207412   120.581963
	   39 B(3,6,11)       =    120.953225    -0.000197    -0.691328   120.261897
	   40 B(4,3,6)        =    117.325745     0.000588     1.711736   119.037481
	   41 B(4,7,8)        =    120.721242     0.000051     0.356464   121.077706
	   42 B(4,7,17)       =    119.338134    -0.000106    -0.552710   118.785424
	   43 B(6,9,8)        =    120.812245    -0.000156    -0.437836   120.374409
	   44 B(6,9,18)       =    119.187732     0.000038     0.031461   119.219193
	   45 B(7,4,10)       =    118.617582     0.000364     1.501277   120.118859
	   46 B(7,8,9)        =    119.371285    -0.000201    -0.309110   119.062175
	   47 B(7,8,21)       =    120.309447     0.000121     0.263074   120.572521
	   48 B(8,7,17)       =    119.940353     0.000055     0.196510   120.136863
	   49 B(8,9,18)       =    119.999961     0.000117     0.402787   120.402747
	   50 B(9,6,11)       =    118.255947     0.000190     0.898322   119.154269
	   51 B(9,8,21)       =    120.318674     0.000080     0.046329   120.365003
	   52 B(12,1,13)      =    119.213656     0.000606     2.032912   121.246568
	   53 B(14,5,15)      =    108.688801     0.000086     0.395509   109.084310
	   54 B(14,5,16)      =    106.100038     0.000437     1.692064   107.792102
	   55 B(15,5,16)      =    108.816225     0.000019     0.200982   109.017207
	   56 B(19,12,20)     =    109.619291    -0.000152    -0.881806   108.737485
	   57 B(19,12,22)     =    107.670846     0.000188     0.621392   108.292238
	   58 B(20,12,22)     =    107.426509     0.000346     1.856824   109.283333
	   59 *D(1,2,3,4)     =    -22.925926     0.000000    -0.000000   -22.925926
	   60 D(1,2,3,6)      =    153.173774     0.000025     2.606775   155.780549
	   61 D(1,2,5,14)     =    144.471576     0.000014     1.901415   146.372991
	   62 D(1,2,5,15)     =    -95.129533     0.000019     2.018470   -93.111063
	   63 D(1,2,5,16)     =     26.092251     0.000030     2.443775    28.536026
	   64 D(2,1,12,19)    =    -83.270956     0.000004     1.310290   -81.960665
	   65 D(2,1,12,20)    =     39.377587    -0.000007     0.861328    40.238915
	   66 D(2,1,12,22)    =    158.353753     0.000018     1.830924   160.184678
	   67 D(2,3,4,7)      =    178.232548     0.000003     1.277284   179.509833
	   68 D(2,3,4,10)     =     -2.126029     0.000016     2.531768     0.405739
	   69 D(2,3,6,9)      =   -178.530614    -0.000017    -1.509028  -180.039641
	   70 D(2,3,6,11)     =      1.023196    -0.000017    -1.564615    -0.541419
	   71 *D(3,2,1,12)    =   -174.996725     0.000000    -0.000000  -174.996725
	   72 D(3,2,1,13)     =      2.198555     0.000009     2.122980     4.321535
	   73 D(3,2,5,14)     =    -23.954242    -0.000034    -3.587785   -27.542027
	   74 D(3,2,5,15)     =     96.444650    -0.000028    -3.470731    92.973919
	   75 D(3,2,5,16)     =   -142.333566    -0.000018    -3.045426  -145.378993
	   76 D(3,4,7,8)      =     -0.690301     0.000005     0.622473    -0.067827
	   77 D(3,4,7,17)     =    179.120332     0.000008     0.841783   179.962115
	   78 D(3,6,9,8)      =      1.057547    -0.000002    -0.092362     0.965185
	   79 D(3,6,9,18)     =   -179.033366    -0.000006    -0.693712  -179.727078
	   80 D(4,3,2,5)      =    145.239695     0.000016     5.452943   150.692638
	   81 D(4,3,6,9)      =     -2.221804     0.000005     0.948644    -1.273161
	   82 D(4,3,6,11)     =    177.332005     0.000006     0.893057   178.225061
	   83 D(4,7,8,9)      =     -0.556976     0.000004     0.303484    -0.253492
	   84 D(4,7,8,21)     =    179.722257     0.000003     0.222867   179.945123
	   85 D(5,2,1,12)     =     17.321444    -0.000031    -5.769323    11.552121
	   86 D(5,2,1,13)     =   -165.483276    -0.000022    -3.646343  -169.129619
	   87 D(5,2,3,6)      =    -38.660605     0.000040     8.059718   -30.600887
	   88 D(6,3,4,7)      =      2.042266    -0.000008    -1.219343     0.822923
	   89 D(6,3,4,10)     =   -178.316312     0.000005     0.035141  -178.281171
	   90 D(6,9,8,7)      =      0.372971    -0.000005    -0.566738    -0.193767
	   91 D(6,9,8,21)     =   -179.906288    -0.000004    -0.485672  -180.391960
	   92 D(7,8,9,18)     =   -179.535381    -0.000000     0.042121  -179.493261
	   93 D(8,7,4,10)     =    179.661878    -0.000007    -0.626512   179.035366
	   94 D(8,9,6,11)     =   -178.508042    -0.000002    -0.030500  -178.538542
	   95 D(9,8,7,17)     =    179.633527     0.000001     0.082637   179.716164
	   96 D(10,4,7,17)    =     -0.527489    -0.000004    -0.407203    -0.934692
	   97 D(11,6,9,18)    =      1.401045    -0.000007    -0.631850     0.769195
	   98 D(13,1,12,19)   =     99.406896    -0.000003    -0.703321    98.703575
	   99 D(13,1,12,20)   =   -137.944560    -0.000013    -1.152284  -139.096844
	  100 D(13,1,12,22)   =    -18.968394     0.000011    -0.182687   -19.151082
	  101 D(17,7,8,21)    =     -0.087240    -0.000000     0.002020    -0.085220
	  102 D(18,9,8,21)    =      0.185360     0.000001     0.123187     0.308546
	  103 R(4,13)         =      2.814909    -0.016004    -0.006908     2.808001
	 ---------------------------------------------------------------------------
	Successfully symmetrized geometry.

  ==> Convergence Check <==

  Measures of convergence in internal coordinates in au.
  Criteria marked as inactive (o), active & met (*), and active & unmet ( ).
  --------------------------------------------------------------------------------------------- ~
   Step     Total Energy     Delta E     MAX Force     RMS Force      MAX Disp      RMS Disp    ~
  --------------------------------------------------------------------------------------------- ~
    Convergence Criteria             o    2.50e-03 *    1.70e-03 *    1.00e-02 *    6.70e-03 *  ~
  --------------------------------------------------------------------------------------------- ~
      1    -479.37364317   -4.79e+02 o    3.05e-02      6.45e-03      1.41e-01      3.20e-02    ~
  ---------------------------------------------------------------------------------------------

	Writing optimization data to binary file.
	Structure for next step:
	Cartesian Geometry (in Angstrom)
	    C     2.0262589609  -0.3721537110  -0.1769812494
	    N     0.8868157016   0.3017208570  -0.6000320144
	    C    -0.4103729848   0.1019058786  -0.0343152577
	    C    -0.7854653545  -1.0613305929   0.6458362268
	    C     0.9618013050   1.1737491886  -1.7840505364
	    C    -1.3349749196   1.1479851657  -0.1538321389
	    C    -2.0679187563  -1.1710449582   1.1760892661
	    C    -2.9919586542  -0.1370108483   1.0431149838
	    C    -2.6164004899   1.0232608576   0.3720955971
	    H    -0.0789015751  -1.8633800898   0.7710148544
	    H    -1.0559525800   2.0693227863  -0.6516513852
	    C     3.3186600519   0.0747788282  -0.8298067689
	    O     2.0149100989  -1.2656877775   0.6775575661
	    H     0.0093091579   1.1275361617  -2.3074974002
	    H     1.1726547424   2.2122301079  -1.5168414942
	    H     1.7329711507   0.8192486623  -2.4650104784
	    H    -2.3398598485  -2.0787463956   1.6983415579
	    H    -3.3148077099   1.8439534039   0.2632201281
	    H     3.4482104832  -0.3971335950  -1.8068236476
	    H     3.3733792484   1.1569877567  -0.9534385978
	    H    -3.9869304929  -0.2313611980   1.4577363351
	    H     4.1271181787  -0.2537532059  -0.1825157633
			--------------------------
			 OPTKING Finished Execution 
			--------------------------

    Structure for next step:
    Molecular point group: c1
    Full point group: C1

    Geometry (in Angstrom), charge = 0, multiplicity = 1:

    C            2.019864194690    -0.357272860789    -0.175605963845
    N            0.880420930844     0.316601709865    -0.598656730527
    C           -0.416767760560     0.116786730662    -0.032939971603
    C           -0.791860131741    -1.046449745424     0.647211515550
    C            0.955406534559     1.188630044896    -1.782675257198
    C           -1.341369699049     1.162866021910    -0.152456853254
    C           -2.074313538628    -1.156164111131     1.177464556918
    C           -2.998353440124    -0.122129997151     1.044490274165
    C           -2.622795274338     1.038141713309     0.373470884787
    H           -0.085296349641    -1.848499245474     0.772390143596
    H           -1.062347358301     2.084203646077    -0.650276101577
    C            3.312265290732     0.089659680167    -0.828431485980
    O            2.008515332666    -1.250806930831     0.678932854969
    H            0.002914383743     1.142417017816    -2.306122123049
    H            1.166259972833     2.227110968258    -1.515466213968
    H            1.726576383344     0.834129517160    -2.463635201837
    H           -2.346254631921    -2.063865552110     1.699716850835
    H           -3.321202497149     1.858834262782     0.264595415343
    H            3.441815722591    -0.382252744942    -1.805448368491
    H            3.366984487453     1.171868612924    -0.952063315368
    H           -3.993325282776    -0.216480347204     1.459111627003
    H            4.120723420779    -0.238872355206    -0.181140477786


Scratch directory: /scratch/bdw2292/Psi4-3_24_Index_0-farH_in17/

Scratch directory: /scratch/bdw2292/Psi4-3_24_Index_0-farH_in17/
gradient() will perform analytic gradient computation.

*** tstart() called on node74.bme.utexas.edu
*** at Wed Jun  8 11:20:26 2022

   => Loading Basis Set <=

    Name: 6-311G
    Role: ORBITAL
    Keyword: BASIS
    atoms 1, 3-9, 12   entry C          line    92 file /home/bdw2292/miniconda3/envs/newamoebamdpoltype/share/psi4/basis/6-311g.gbs 
    atoms 2            entry N          line   109 file /home/bdw2292/miniconda3/envs/newamoebamdpoltype/share/psi4/basis/6-311g.gbs 
    atoms 10-11, 14-22 entry H          line    21 file /home/bdw2292/miniconda3/envs/newamoebamdpoltype/share/psi4/basis/6-311g.gbs 
    atoms 13           entry O          line   126 file /home/bdw2292/miniconda3/envs/newamoebamdpoltype/share/psi4/basis/6-311g.gbs 

   => WB97X-D: Empirical Dispersion <=

    Chai and Head-Gordon Dispersion Correction
    Chai, J.-D.; Head-Gordon, M. (2010), J. Chem. Phys., 132: 6615-6620

        s6 =       1.000000


         ---------------------------------------------------------
                                   SCF
               by Justin Turney, Rob Parrish, Andy Simmonett
                          and Daniel G. A. Smith
                              RKS Reference
                        2 Threads,   7788 MiB Core
         ---------------------------------------------------------

  ==> Geometry <==

    Molecular point group: c1
    Full point group: C1

    Geometry (in Angstrom), charge = 0, multiplicity = 1:

       Center              X                  Y                   Z               Mass       
    ------------   -----------------  -----------------  -----------------  -----------------
         C            2.019864194690    -0.357272860789    -0.175605963845    12.000000000000
         N            0.880420930844     0.316601709865    -0.598656730527    14.003074004430
         C           -0.416767760560     0.116786730662    -0.032939971603    12.000000000000
         C           -0.791860131741    -1.046449745424     0.647211515550    12.000000000000
         C            0.955406534559     1.188630044896    -1.782675257198    12.000000000000
         C           -1.341369699049     1.162866021910    -0.152456853254    12.000000000000
         C           -2.074313538628    -1.156164111131     1.177464556918    12.000000000000
         C           -2.998353440124    -0.122129997151     1.044490274165    12.000000000000
         C           -2.622795274338     1.038141713309     0.373470884787    12.000000000000
         H           -0.085296349641    -1.848499245474     0.772390143596     1.007825032230
         H           -1.062347358301     2.084203646077    -0.650276101577     1.007825032230
         C            3.312265290732     0.089659680167    -0.828431485980    12.000000000000
         O            2.008515332666    -1.250806930831     0.678932854969    15.994914619570
         H            0.002914383743     1.142417017816    -2.306122123049     1.007825032230
         H            1.166259972833     2.227110968258    -1.515466213968     1.007825032230
         H            1.726576383344     0.834129517160    -2.463635201837     1.007825032230
         H           -2.346254631921    -2.063865552110     1.699716850835     1.007825032230
         H           -3.321202497149     1.858834262782     0.264595415343     1.007825032230
         H            3.441815722591    -0.382252744942    -1.805448368491     1.007825032230
         H            3.366984487453     1.171868612924    -0.952063315368     1.007825032230
         H           -3.993325282776    -0.216480347204     1.459111627003     1.007825032230
         H            4.120723420779    -0.238872355206    -0.181140477786     1.007825032230

  Running in c1 symmetry.

  Rotational constants: A =      0.08216  B =      0.02499  C =      0.01974 [cm^-1]
  Rotational constants: A =   2463.05721  B =    749.04619  C =    591.81242 [MHz]
  Nuclear repulsion =  588.241862719007258

  Charge       = 0
  Multiplicity = 1
  Electrons    = 80
  Nalpha       = 40
  Nbeta        = 40

  ==> Algorithm <==

  SCF Algorithm Type is DF.
  DIIS enabled.
  MOM disabled.
  Fractional occupation disabled.
  Guess Type is READ.
  Energy threshold   = 1.00e-08
  Density threshold  = 1.00e-08
  Integral threshold = 1.00e-12

  ==> Primary Basis <==

  Basis Set: 6-311G
    Blend: 6-311G
    Number of shells: 110
    Number of basis functions: 176
    Number of Cartesian functions: 176
    Spherical Harmonics?: true
    Max angular momentum: 1

  ==> DFT Potential <==

   => LibXC <=

    Version 5.1.5
    S. Lehtola, C. Steigemann, M. J. Oliveira, and M. A. Marques, SoftwareX 7, 1 (2018) (10.1016/j.softx.2017.11.002)

   => Composite Functional: WB97X-D <= 

    wB97X-D Hyb-GGA Exchange-Correlation Functional

    J.-D. Chai and M. Head-Gordon, Phys. Chem. Chem. Phys. 10, 6615 (2008) (10.1039/B810189B)

    Deriv               =              1
    GGA                 =           TRUE
    Meta                =          FALSE

    Exchange Hybrid     =           TRUE
    MP2 Hybrid          =          FALSE

   => Exchange-Correlation Functionals <=

    1.0000   wB97X-D range-separated functional

   => Exact (HF) Exchange <=

    0.7780            HF,LR [omega = 0.2000]
    0.2220               HF 

   => LibXC Density Thresholds  <==

    XC_HYB_GGA_XC_WB97X_D:  1.00E-14 

   => Molecular Quadrature <=

    Radial Scheme          =       TREUTLER
    Pruning Scheme         =           NONE
    Nuclear Scheme         =       TREUTLER

    BS radius alpha        =              1
    Pruning alpha          =              1
    Radial Points          =             75
    Spherical Points       =            302
    Total Points           =         459338
    Total Blocks           =           3384
    Max Points             =            256
    Max Functions          =            149
    Weights Tolerance      =       1.00E-15

   => Loading Basis Set <=

    Name: (6-311G AUX)
    Role: JKFIT
    Keyword: DF_BASIS_SCF
    atoms 1, 3-9, 12   entry C          line   125 file /home/bdw2292/miniconda3/envs/newamoebamdpoltype/share/psi4/basis/cc-pvtz-jkfit.gbs 
    atoms 2            entry N          line   177 file /home/bdw2292/miniconda3/envs/newamoebamdpoltype/share/psi4/basis/cc-pvtz-jkfit.gbs 
    atoms 10-11, 14-22 entry H          line    51 file /home/bdw2292/miniconda3/envs/newamoebamdpoltype/share/psi4/basis/cc-pvtz-jkfit.gbs 
    atoms 13           entry O          line   229 file /home/bdw2292/miniconda3/envs/newamoebamdpoltype/share/psi4/basis/cc-pvtz-jkfit.gbs 

   => Loading Basis Set <=

    Name: 6-311G
    Role: ORBITAL
    Keyword: BASIS
    atoms 1, 3-9, 12   entry C          line    92 file /home/bdw2292/miniconda3/envs/newamoebamdpoltype/share/psi4/basis/6-311g.gbs 
    atoms 2            entry N          line   109 file /home/bdw2292/miniconda3/envs/newamoebamdpoltype/share/psi4/basis/6-311g.gbs 
    atoms 10-11, 14-22 entry H          line    21 file /home/bdw2292/miniconda3/envs/newamoebamdpoltype/share/psi4/basis/6-311g.gbs 
    atoms 13           entry O          line   126 file /home/bdw2292/miniconda3/envs/newamoebamdpoltype/share/psi4/basis/6-311g.gbs 

  Reading orbitals from file /scratch/bdw2292/Psi4-3_24_Index_0-farH_in17/3_24_Index_0-opt-1_2-3-338.default.1093151.180.npy, no projection.

  ==> Integral Setup <==

  DFHelper Memory: AOs need 0.748 GiB; user supplied 4.272 GiB. Using in-core AOs.

  ==> MemDFJK: Density-Fitted J/K Matrices <==

    J tasked:                   Yes
    K tasked:                   Yes
    wK tasked:                  Yes
    Omega:                2.000E-01
    OpenMP threads:               2
    Memory [MiB]:              4374
    Algorithm:                 Core
    Schwarz Cutoff:           1E-12
    Mask sparsity (%):      12.0351
    Fitting Condition:        1E-10

   => Auxiliary Basis Set <=

  Basis Set: (6-311G AUX)
    Blend: CC-PVTZ-JKFIT
    Number of shells: 385
    Number of basis functions: 1199
    Number of Cartesian functions: 1441
    Spherical Harmonics?: true
    Max angular momentum: 4

  Cached 100.0% of DFT collocation blocks in 1.432 [GiB].

  Minimum eigenvalue in the overlap matrix is 2.5592494263E-04.
  Reciprocal condition number of the overlap matrix is 3.6774146106E-05.
    Using symmetric orthogonalization.

  ==> Pre-Iterations <==

  SCF Guess: Orbitals guess was supplied from a previous computation.

   -------------------------------------------------------
    Irrep   Nso     Nmo     Nalpha   Nbeta   Ndocc  Nsocc
   -------------------------------------------------------
     A        176     176      40      40      40       0
   -------------------------------------------------------
    Total     176     176      40      40      40       0
   -------------------------------------------------------

  ==> Iterations <==

                           Total Energy        Delta E     RMS |[F,P]|

   @DF-RKS iter   0:  -479.46853114741708   -4.79469e+02   1.29236e-03 
   @DF-RKS iter   1:  -479.37866999551380    8.98612e-02   1.88320e-04 DIIS
   @DF-RKS iter   2:  -479.37891391054251   -2.43915e-04   2.13553e-04 DIIS
   @DF-RKS iter   3:  -479.37947794307019   -5.64033e-04   4.72953e-05 DIIS
   @DF-RKS iter   4:  -479.37950805750160   -3.01144e-05   2.28153e-05 DIIS
   @DF-RKS iter   5:  -479.37951681001334   -8.75251e-06   5.22286e-06 DIIS
   @DF-RKS iter   6:  -479.37951733165920   -5.21646e-07   2.19568e-06 DIIS
   @DF-RKS iter   7:  -479.37951743150671   -9.98475e-08   4.24204e-07 DIIS
   @DF-RKS iter   8:  -479.37951743740160   -5.89489e-09   2.56123e-07 DIIS
   @DF-RKS iter   9:  -479.37951743854700   -1.14539e-09   4.57486e-08 DIIS
   @DF-RKS iter  10:  -479.37951743861760   -7.05995e-11   2.21665e-08 DIIS
   @DF-RKS iter  11:  -479.37951743863476   -1.71667e-11   6.15439e-09 DIIS
  Energy and wave function converged.


  ==> Post-Iterations <==

   Electrons on quadrature grid:
      Ntotal   =   80.0000420665 ; deviation = 4.207e-05 

    Orbital Energies [Eh]
    ---------------------

    Doubly Occupied:                                                      

       1A    -19.218538     2A    -14.484854     3A    -10.408340  
       4A    -10.341053     5A    -10.332853     6A    -10.295439  
       7A    -10.293866     8A    -10.293108     9A    -10.289411  
      10A    -10.287289    11A    -10.283443    12A     -1.158912  
      13A     -1.060173    14A     -0.962051    15A     -0.874837  
      16A     -0.856082    17A     -0.838595    18A     -0.815857  
      19A     -0.729419    20A     -0.704962    21A     -0.657038  
      22A     -0.610245    23A     -0.587896    24A     -0.578581  
      25A     -0.575001    26A     -0.543068    27A     -0.537712  
      28A     -0.523002    29A     -0.511759    30A     -0.500607  
      31A     -0.493371    32A     -0.487279    33A     -0.469070  
      34A     -0.450469    35A     -0.444067    36A     -0.431425  
      37A     -0.373837    38A     -0.338995    39A     -0.329863  
      40A     -0.297074  

    Virtual:                                                              

      41A      0.053067    42A      0.065875    43A      0.102277  
      44A      0.108652    45A      0.132017    46A      0.147458  
      47A      0.163372    48A      0.169473    49A      0.177145  
      50A      0.186183    51A      0.195217    52A      0.209310  
      53A      0.223974    54A      0.234003    55A      0.238595  
      56A      0.245068    57A      0.266088    58A      0.316340  
      59A      0.336136    60A      0.346658    61A      0.360341  
      62A      0.372539    63A      0.378059    64A      0.387302  
      65A      0.404939    66A      0.428185    67A      0.434298  
      68A      0.463221    69A      0.464484    70A      0.481327  
      71A      0.492831    72A      0.498800    73A      0.510917  
      74A      0.514892    75A      0.518936    76A      0.524575  
      77A      0.547714    78A      0.553853    79A      0.560253  
      80A      0.580858    81A      0.589504    82A      0.601588  
      83A      0.614547    84A      0.634000    85A      0.643202  
      86A      0.645931    87A      0.665629    88A      0.670873  
      89A      0.682046    90A      0.691508    91A      0.693444  
      92A      0.699623    93A      0.713170    94A      0.716591  
      95A      0.729832    96A      0.742520    97A      0.756346  
      98A      0.770295    99A      0.773485   100A      0.836923  
     101A      0.848460   102A      0.861818   103A      0.884047  
     104A      0.896542   105A      0.898990   106A      0.928713  
     107A      0.950790   108A      0.961185   109A      0.972515  
     110A      1.004187   111A      1.036034   112A      1.056666  
     113A      1.069684   114A      1.122106   115A      1.141831  
     116A      1.210505   117A      1.247318   118A      1.299469  
     119A      1.367317   120A      1.485751   121A      1.722331  
     122A      2.297888   123A      2.310887   124A      2.330160  
     125A      2.337826   126A      2.367969   127A      2.380832  
     128A      2.386232   129A      2.391339   130A      2.448182  
     131A      2.475936   132A      2.627794   133A      2.637547  
     134A      2.654300   135A      2.674293   136A      2.688114  
     137A      2.765395   138A      2.777954   139A      2.832584  
     140A      2.836474   141A      2.865895   142A      2.895825  
     143A      2.925306   144A      2.936341   145A      2.980316  
     146A      3.013633   147A      3.024018   148A      3.066026  
     149A      3.103504   150A      3.149180   151A      3.185804  
     152A      3.215937   153A      3.228437   154A      3.275173  
     155A      3.319455   156A      3.338384   157A      3.375760  
     158A      3.379735   159A      3.524552   160A      3.908279  
     161A      4.170267   162A      4.243418   163A      4.983556  
     164A      5.071552   165A      5.143302   166A     23.239441  
     167A     23.423592   168A     23.484050   169A     23.498879  
     170A     23.554517   171A     23.634930   172A     23.738726  
     173A     23.776748   174A     24.018376   175A     35.550711  
     176A     50.038804  

    Final Occupation by Irrep:
              A 
    DOCC [    40 ]

  @DF-RKS Final Energy:  -479.37951743863476

   => Energetics <=

    Nuclear Repulsion Energy =            588.2418627190072584
    One-Electron Energy =               -1814.7431117506278042
    Two-Electron Energy =                 794.2198162296458577
    DFT Exchange-Correlation Energy =     -47.0854902489214879
    Empirical Dispersion Energy =          -0.0125943877385223
    VV10 Nonlocal Energy =                  0.0000000000000000
    Total Energy =                       -479.3795174386347071

Computation Completed


Properties will be evaluated at   0.000000,   0.000000,   0.000000 [a0]

Properties computed using the SCF density matrix

  Nuclear Dipole Moment: [e a0]
     X:     2.8353      Y:     4.2760      Z:    -5.3183

  Electronic Dipole Moment: [e a0]
     X:    -2.8736      Y:    -3.2337      Z:     4.1112

  Dipole Moment: [e a0]
     X:    -0.0383      Y:     1.0423      Z:    -1.2070     Total:     1.5952

  Dipole Moment: [D]
     X:    -0.0973      Y:     2.6492      Z:    -3.0679     Total:     4.0546


*** tstop() called on node74.bme.utexas.edu at Wed Jun  8 11:20:58 2022
Module time:
	user time   =      61.17 seconds =       1.02 minutes
	system time =       2.29 seconds =       0.04 minutes
	total time  =         32 seconds =       0.53 minutes
Total time:
	user time   =     163.64 seconds =       2.73 minutes
	system time =       6.46 seconds =       0.11 minutes
	total time  =         87 seconds =       1.45 minutes

*** tstart() called on node74.bme.utexas.edu
*** at Wed Jun  8 11:20:58 2022


         ------------------------------------------------------------
                                   SCF GRAD                          
                          Rob Parrish, Justin Turney,                
                       Andy Simmonett, and Alex Sokolov              
         ------------------------------------------------------------

  ==> Geometry <==

    Molecular point group: c1
    Full point group: C1

    Geometry (in Angstrom), charge = 0, multiplicity = 1:

       Center              X                  Y                   Z               Mass       
    ------------   -----------------  -----------------  -----------------  -----------------
         C            2.019864194690    -0.357272860789    -0.175605963845    12.000000000000
         N            0.880420930844     0.316601709865    -0.598656730527    14.003074004430
         C           -0.416767760560     0.116786730662    -0.032939971603    12.000000000000
         C           -0.791860131741    -1.046449745424     0.647211515550    12.000000000000
         C            0.955406534559     1.188630044896    -1.782675257198    12.000000000000
         C           -1.341369699049     1.162866021910    -0.152456853254    12.000000000000
         C           -2.074313538628    -1.156164111131     1.177464556918    12.000000000000
         C           -2.998353440124    -0.122129997151     1.044490274165    12.000000000000
         C           -2.622795274338     1.038141713309     0.373470884787    12.000000000000
         H           -0.085296349641    -1.848499245474     0.772390143596     1.007825032230
         H           -1.062347358301     2.084203646077    -0.650276101577     1.007825032230
         C            3.312265290732     0.089659680167    -0.828431485980    12.000000000000
         O            2.008515332666    -1.250806930831     0.678932854969    15.994914619570
         H            0.002914383743     1.142417017816    -2.306122123049     1.007825032230
         H            1.166259972833     2.227110968258    -1.515466213968     1.007825032230
         H            1.726576383344     0.834129517160    -2.463635201837     1.007825032230
         H           -2.346254631921    -2.063865552110     1.699716850835     1.007825032230
         H           -3.321202497149     1.858834262782     0.264595415343     1.007825032230
         H            3.441815722591    -0.382252744942    -1.805448368491     1.007825032230
         H            3.366984487453     1.171868612924    -0.952063315368     1.007825032230
         H           -3.993325282776    -0.216480347204     1.459111627003     1.007825032230
         H            4.120723420779    -0.238872355206    -0.181140477786     1.007825032230

  Nuclear repulsion =  588.241862719007258

  ==> Basis Set <==

  Basis Set: 6-311G
    Blend: 6-311G
    Number of shells: 110
    Number of basis functions: 176
    Number of Cartesian functions: 176
    Spherical Harmonics?: true
    Max angular momentum: 1

  ==> DFJKGrad: Density-Fitted SCF Gradients <==

    Gradient:                    1
    J tasked:                  Yes
    K tasked:                  Yes
    wK tasked:                 Yes
    Omega:               2.000E-01
    OpenMP threads:              2
    Integrals threads:           2
    Memory [MiB]:             5841
    Schwarz Cutoff:          1E-12
    Fitting Condition:       1E-10

   => Auxiliary Basis Set <=

  Basis Set: (6-311G AUX)
    Blend: CC-PVTZ-JKFIT
    Number of shells: 385
    Number of basis functions: 1199
    Number of Cartesian functions: 1441
    Spherical Harmonics?: true
    Max angular momentum: 4

  ==> DFT Potential <==

   => LibXC <=

    Version 5.1.5
    S. Lehtola, C. Steigemann, M. J. Oliveira, and M. A. Marques, SoftwareX 7, 1 (2018) (10.1016/j.softx.2017.11.002)

   => Composite Functional: WB97X-D <= 

    wB97X-D Hyb-GGA Exchange-Correlation Functional

    J.-D. Chai and M. Head-Gordon, Phys. Chem. Chem. Phys. 10, 6615 (2008) (10.1039/B810189B)

    Deriv               =              1
    GGA                 =           TRUE
    Meta                =          FALSE

    Exchange Hybrid     =           TRUE
    MP2 Hybrid          =          FALSE

   => Exchange-Correlation Functionals <=

    1.0000   wB97X-D range-separated functional

   => Exact (HF) Exchange <=

    0.7780            HF,LR [omega = 0.2000]
    0.2220               HF 

   => LibXC Density Thresholds  <==

    XC_HYB_GGA_XC_WB97X_D:  1.00E-14 

   => Molecular Quadrature <=

    Radial Scheme          =       TREUTLER
    Pruning Scheme         =           NONE
    Nuclear Scheme         =       TREUTLER

    BS radius alpha        =              1
    Pruning alpha          =              1
    Radial Points          =             75
    Spherical Points       =            302
    Total Points           =         459338
    Total Blocks           =           3384
    Max Points             =            256
    Max Functions          =            149
    Weights Tolerance      =       1.00E-15


  -Total Gradient:
     Atom            X                  Y                   Z
    ------   -----------------  -----------------  -----------------
       1        0.002900739500    -0.010912742870     0.007707504517
       2       -0.001124727892     0.008403271483     0.006663760501
       3       -0.002581543069    -0.005339887259    -0.003814079547
       4       -0.000698572426     0.003278905509     0.000494480218
       5        0.000126075871     0.001136296242    -0.000749681710
       6        0.002839265699    -0.001496396259     0.000550070220
       7        0.001174642570    -0.000961695147    -0.000117853741
       8        0.000510562437     0.000894165684    -0.000309220858
       9        0.000404054230    -0.001505947074     0.000243409257
      10        0.000050793973    -0.001036739424     0.000105217918
      11        0.001341634335     0.001796047734    -0.002404641091
      12       -0.001911362205     0.002189209840    -0.005176956889
      13       -0.000991873667     0.003209143503    -0.004447974483
      14       -0.001384686241    -0.000499140239     0.000924138936
      15        0.000083411569     0.000092679174     0.000701843444
      16        0.002425133608    -0.001564523567    -0.000533883347
      17        0.000144496014    -0.000327093106     0.000122550262
      18       -0.000451281232     0.000821814972    -0.000354337000
      19       -0.000488475745    -0.000286245264    -0.000465791130
      20       -0.001159319622     0.001785293501    -0.000368947589
      21       -0.000581784136     0.000080888536     0.000186688595
      22       -0.000595528777     0.000359151707     0.000921685043


*** tstop() called on node74.bme.utexas.edu at Wed Jun  8 11:21:15 2022
Module time:
	user time   =      32.27 seconds =       0.54 minutes
	system time =       0.56 seconds =       0.01 minutes
	total time  =         17 seconds =       0.28 minutes
Total time:
	user time   =     195.91 seconds =       3.27 minutes
	system time =       7.02 seconds =       0.12 minutes
	total time  =        104 seconds =       1.73 minutes

			-----------------------------------------
			 OPTKING 2.0: for geometry optimizations 
			  - R.A. King,  Bethel University        
			-----------------------------------------
	At level 1: Red. Int., RFO, no backsteps, dynamic trust

	Previous internal coordinate definitions found.
	---Fragment 1 Geometry and Gradient---
	 C           3.8169901386       -0.6751478590       -0.3318471777
	 N           1.6637544344        0.5982905225       -1.1312972639
	 C          -0.7875769254        0.2206949360       -0.0622475249
	 C          -1.4963987787       -1.9775034229        1.2230525096
	 C           1.8054566888        2.2461852493       -3.3687680067
	 C          -2.5348213642        2.1974983020       -0.2881016986
	 C          -3.9198844863       -2.1848335261        2.2250855350
	 C          -5.6660668292       -0.2307922463        1.9738005589
	 C          -4.9563647516        1.9618035176        0.7057576881
	 H          -0.1611867403       -3.4931573171        1.4596058334
	 H          -2.0075455573        3.9385740808       -1.2288437379
	 C           6.2592742543        0.1694322400       -1.5655086222
	 O           3.7955438975       -2.3636825351        1.2829971535
	 H           0.0055073871        2.1588552847       -4.3579392244
	 H           2.2039119397        4.2086297810       -2.8638160968
	 H           3.2627564992        1.5762763406       -4.6555958045
	 H          -4.4337786749       -3.9001406533        3.2119993389
	 H          -6.2761631268        3.5126876693        0.5000128691
	 H           6.5040890900       -0.7223529986       -3.4118029501
	 H           6.3626785500        2.2145107334       -1.7991389201
	 H          -7.5462911143       -0.4090885678        2.7573213615
	 H           7.7870387040       -0.4514033303       -0.3423058933
	             0.0029007395       -0.0109127429        0.0077075045
	            -0.0011247279        0.0084032715        0.0066637605
	            -0.0025815431       -0.0053398873       -0.0038140795
	            -0.0006985724        0.0032789055        0.0004944802
	             0.0001260759        0.0011362962       -0.0007496817
	             0.0028392657       -0.0014963963        0.0005500702
	             0.0011746426       -0.0009616951       -0.0001178537
	             0.0005105624        0.0008941657       -0.0003092209
	             0.0004040542       -0.0015059471        0.0002434093
	             0.0000507940       -0.0010367394        0.0001052179
	             0.0013416343        0.0017960477       -0.0024046411
	            -0.0019113622        0.0021892098       -0.0051769569
	            -0.0009918737        0.0032091435       -0.0044479745
	            -0.0013846862       -0.0004991402        0.0009241389
	             0.0000834116        0.0000926792        0.0007018434
	             0.0024251336       -0.0015645236       -0.0005338833
	             0.0001444960       -0.0003270931        0.0001225503
	            -0.0004512812        0.0008218150       -0.0003543370
	            -0.0004884757       -0.0002862453       -0.0004657911
	            -0.0011593196        0.0017852935       -0.0003689476
	            -0.0005817841        0.0000808885        0.0001866886
	            -0.0005955288        0.0003591517        0.0009216850

	---Fragment 1 Intrafragment Coordinates---
	 - Coordinate -           - BOHR/RAD -       - ANG/DEG -
	 R(1,2)           =         2.626250	       1.389752
	 R(1,12)          =         2.863562	       1.515332
	 R(1,13)          =         2.336521	       1.236434
	 R(2,3)           =         2.700828	       1.429217
	 R(2,5)           =         2.782429	       1.472398
	 R(3,4)           =         2.643199	       1.398721
	 R(3,6)           =         2.647947	       1.401233
	 R(4,7)           =         2.630654	       1.392082
	 R(4,10)          =         2.033705	       1.076190
	 R(5,14)          =         2.055700	       1.087830
	 R(5,15)          =         2.065171	       1.092841
	 R(5,16)          =         2.056314	       1.088154
	 R(6,9)           =         2.628152	       1.390758
	 R(6,11)          =         2.048014	       1.083762
	 R(7,8)           =         2.632598	       1.393111
	 R(7,17)          =         2.044594	       1.081953
	 R(8,9)           =         2.630416	       1.391956
	 R(8,21)          =         2.044734	       1.082027
	 R(9,18)          =         2.046812	       1.083126
	 R(12,19)         =         2.064950	       1.092724
	 R(12,20)         =         2.060976	       1.090621
	 R(12,22)         =         2.053223	       1.086519
	 B(1,2,3)         =         2.160203	     123.770505
	 B(1,2,5)         =         2.083124	     119.354221
	 B(1,12,19)       =         1.937923	     111.034831
	 B(1,12,20)       =         1.965238	     112.599872
	 B(1,12,22)       =         1.863745	     106.784728
	 B(2,1,12)        =         2.009884	     115.157894
	 B(2,1,13)        =         2.157087	     123.591962
	 B(2,3,4)         =         2.155726	     123.514007
	 B(2,3,6)         =         2.049648	     117.436154
	 B(2,5,14)        =         1.893561	     108.493052
	 B(2,5,15)        =         1.956268	     112.085924
	 B(2,5,16)        =         1.924501	     110.265773
	 B(3,2,5)         =         2.034565	     116.572007
	 B(3,4,7)         =         2.091875	     119.855622
	 B(3,4,10)        =         2.094734	     120.019438
	 B(3,6,9)         =         2.104552	     120.581963
	 B(3,6,11)        =         2.098966	     120.261897
	 B(4,3,6)         =         2.077596	     119.037481
	 B(4,7,8)         =         2.113205	     121.077706
	 B(4,7,17)        =         2.073197	     118.785424
	 B(6,9,8)         =         2.100930	     120.374409
	 B(6,9,18)        =         2.080767	     119.219193
	 B(7,4,10)        =         2.096470	     120.118859
	 B(7,8,9)         =         2.078027	     119.062175
	 B(7,8,21)        =         2.104387	     120.572521
	 B(8,7,17)        =         2.096784	     120.136863
	 B(8,9,18)        =         2.101424	     120.402747
	 B(9,6,11)        =         2.079634	     119.154269
	 B(9,8,21)        =         2.100766	     120.365003
	 B(12,1,13)       =         2.116152	     121.246568
	 B(14,5,15)       =         1.903880	     109.084310
	 B(14,5,16)       =         1.881327	     107.792102
	 B(15,5,16)       =         1.902709	     109.017207
	 B(19,12,20)      =         1.897827	     108.737485
	 B(19,12,22)      =         1.890056	     108.292238
	 B(20,12,22)      =         1.907354	     109.283333
	*D(1,2,3,4)       =        -0.400133	     -22.925926
	 D(1,2,3,6)       =         2.718883	     155.780549
	 D(1,2,5,14)      =         2.554691	     146.372991
	 D(1,2,5,15)      =        -1.625095	     -93.111063
	 D(1,2,5,16)      =         0.498048	      28.536026
	 D(2,1,12,19)     =        -1.430483	     -81.960665
	 D(2,1,12,20)     =         0.702302	      40.238915
	 D(2,1,12,22)     =         2.795750	     160.184678
	 D(2,3,4,7)       =         3.133038	     179.509833
	 D(2,3,4,10)      =         0.007081	       0.405739
	 D(2,3,6,9)       =         3.140901	     179.960359
	 D(2,3,6,11)      =        -0.009450	      -0.541419
	*D(3,2,1,12)      =        -3.054269	    -174.996725
	 D(3,2,1,13)      =         0.075425	       4.321535
	 D(3,2,5,14)      =        -0.480699	     -27.542027
	 D(3,2,5,15)      =         1.622701	      92.973919
	 D(3,2,5,16)      =        -2.537342	    -145.378993
	 D(3,4,7,8)       =        -0.001184	      -0.067827
	 D(3,4,7,17)      =         3.140931	     179.962115
	 D(3,6,9,8)       =         0.016846	       0.965185
	 D(3,6,9,18)      =        -3.136829	    -179.727078
	 D(4,3,2,5)       =         2.630083	     150.692638
	 D(4,3,6,9)       =        -0.022221	      -1.273161
	 D(4,3,6,11)      =         3.110614	     178.225061
	 D(4,7,8,9)       =        -0.004424	      -0.253492
	 D(4,7,8,21)      =         3.140635	     179.945123
	 D(5,2,1,12)      =         0.201623	      11.552121
	 D(5,2,1,13)      =        -2.951869	    -169.129619
	 D(5,2,3,6)       =        -0.534086	     -30.600887
	 D(6,3,4,7)       =         0.014363	       0.822923
	 D(6,3,4,10)      =        -3.111593	    -178.281171
	 D(6,9,8,7)       =        -0.003382	      -0.193767
	 D(6,9,8,21)      =         3.134752	     179.608040
	 D(7,8,9,18)      =        -3.132748	    -179.493261
	 D(8,7,4,10)      =         3.124757	     179.035366
	 D(8,9,6,11)      =        -3.116085	    -178.538542
	 D(9,8,7,17)      =         3.136639	     179.716164
	 D(10,4,7,17)     =        -0.016313	      -0.934692
	 D(11,6,9,18)     =         0.013425	       0.769195
[...]
	 R(3,4)           =         2.650844	       1.402766
	 R(3,6)           =         2.653042	       1.403929
	 R(4,7)           =         2.630907	       1.392216
	 R(4,10)          =         2.029716	       1.074079
	 R(5,14)          =         2.055728	       1.087844
	 R(5,15)          =         2.065000	       1.092751
	 R(5,16)          =         2.048047	       1.083780
	 R(6,9)           =         2.629181	       1.391303
	 R(6,11)          =         2.039483	       1.079248
	 R(7,8)           =         2.630225	       1.391855
	 R(7,17)          =         2.043950	       1.081612
	 R(8,9)           =         2.628884	       1.391145
	 R(8,21)          =         2.042952	       1.081083
	 R(9,18)          =         2.044072	       1.081676
	 R(12,19)         =         2.063411	       1.091910
	 R(12,20)         =         2.060262	       1.090244
	 R(12,22)         =         2.051240	       1.085470
	 B(1,2,3)         =         2.149798	     123.174376
	 B(1,2,5)         =         2.095840	     120.082789
	 B(1,12,19)       =         1.951409	     111.807478
	 B(1,12,20)       =         1.964697	     112.568838
	 B(1,12,22)       =         1.863043	     106.744476
	 B(2,1,12)        =         2.053012	     117.628920
	 B(2,1,13)        =         2.147760	     123.057585
	 B(2,3,4)         =         2.143449	     122.810594
	 B(2,3,6)         =         2.071643	     118.696387
	 B(2,5,14)        =         1.906787	     109.250863
	 B(2,5,15)        =         1.956110	     112.076845
	 B(2,5,16)        =         1.930206	     110.592669
	 B(3,2,5)         =         2.037498	     116.740009
	 B(3,4,7)         =         2.094794	     120.022861
	 B(3,4,10)        =         2.090664	     119.786197
	 B(3,6,9)         =         2.109105	     120.842811
	 B(3,6,11)        =         2.106933	     120.718382
	 B(4,3,6)         =         2.068000	     118.487687
	 B(4,7,8)         =         2.116571	     121.270566
	 B(4,7,17)        =         2.072040	     118.719156
	 B(6,9,8)         =         2.102722	     120.477102
	 B(6,9,18)        =         2.080412	     119.198850
	 B(7,4,10)        =         2.097612	     120.184326
	 B(7,8,9)         =         2.074956	     118.886231
	 B(7,8,21)        =         2.104686	     120.589649
	 B(8,7,17)        =         2.094574	     120.010244
	 B(8,9,18)        =         2.100003	     120.321304
	 B(9,6,11)        =         2.066943	     118.427130
	 B(9,8,21)        =         2.103521	     120.522872
	 B(12,1,13)       =         2.082269	     119.305226
	 B(14,5,15)       =         1.900509	     108.891146
	 B(14,5,16)       =         1.874775	     107.416719
	 B(15,5,16)       =         1.893454	     108.486910
	 B(19,12,20)      =         1.889777	     108.276238
	 B(19,12,22)      =         1.888061	     108.177944
	 B(20,12,22)      =         1.905020	     109.149621
	*D(1,2,3,4)       =        -0.400133	     -22.925926
	 D(1,2,3,6)       =         2.726565	     156.220660
	 D(1,2,5,14)      =         2.505605	     143.560615
	 D(1,2,5,15)      =        -1.669591	     -95.660529
	 D(1,2,5,16)      =         0.445626	      25.532502
	 D(2,1,12,19)     =        -1.231194	     -70.542246
	 D(2,1,12,20)     =         0.900660	      51.604002
	 D(2,1,12,22)     =         2.990459	     171.340676
	 D(2,3,4,7)       =        -3.135838	    -179.670255
	 D(2,3,4,10)      =         0.022054	       1.263595
	 D(2,3,6,9)       =         3.133324	     179.526217
	 D(2,3,6,11)      =        -0.030306	      -1.736379
	*D(3,2,1,12)      =        -3.054269	    -174.996725
	 D(3,2,1,13)      =         0.068912	       3.948394
	 D(3,2,5,14)      =        -0.646324	     -37.031622
	 D(3,2,5,15)      =         1.461665	      83.747234
	 D(3,2,5,16)      =        -2.706303	    -155.059735
	 D(3,4,7,8)       =        -0.006223	      -0.356548
	 D(3,4,7,17)      =         3.136548	     179.710987
	 D(3,6,9,8)       =         0.009793	       0.561097
	 D(3,6,9,18)      =         3.140901	     179.960400
	 D(4,3,2,5)       =         2.752146	     157.686331
	 D(4,3,6,9)       =        -0.022512	      -1.289856
	 D(4,3,6,11)      =         3.097044	     177.447548
	 D(4,7,8,9)       =        -0.006829	      -0.391301
	 D(4,7,8,21)      =        -3.141368	    -179.987117
	 D(5,2,1,12)      =         0.076295	       4.371379
	 D(5,2,1,13)      =        -3.083709	    -176.683502
	 D(5,2,3,6)       =        -0.404342	     -23.167083
	 D(6,3,4,7)       =         0.020620	       1.181465
	 D(6,3,4,10)      =        -3.104673	    -177.884684
	 D(6,9,8,7)       =         0.005053	       0.289535
	 D(6,9,8,21)      =         3.139597	     179.885629
	 D(7,8,9,18)      =        -3.125937	    -179.103001
	 D(8,7,4,10)      =         3.119005	     178.705849
	 D(8,9,6,11)      =        -3.110258	    -178.204645
	 D(9,8,7,17)      =         3.133569	     179.540303
	 D(10,4,7,17)     =        -0.021408	      -1.226616
	 D(11,6,9,18)     =         0.020851	       1.194658
	 D(13,1,12,19)    =         1.928093	     110.471620
	 D(13,1,12,20)    =        -2.223238	    -127.382132
	 D(13,1,12,22)    =        -0.133438	      -7.645458
	 D(17,7,8,21)     =        -0.000969	      -0.055514
	 D(18,9,8,21)     =         0.008606	       0.493093
	 R(4,13)          =         5.222605	       2.763684

	Current energy   :      -479.3807006127

	Energy change for the previous step:
		Projected    :        -0.0000001346
		Actual       :        -0.0000006887

	Performing BFGS update.
	Previous computed or guess Hessian on step 1.
	Steps to be used in Hessian update: 5 4
	Taking RFO optimization step.
	Going to follow RFO solution 1.
	Using RFO vector 1.
	Norm of target step-size    0.00558
	Projected energy change by RFO approximation:        -0.0000016451

	Back-transformation to cartesian coordinates...
	Successfully converged to displaced geometry.

	Back-transformation to cartesian coordinates to adjust frozen coordinates...
	Successfully converged to displaced geometry.

	--- Internal Coordinate Step in ANG or DEG, aJ/ANG or AJ/DEG ---
	 ---------------------------------------------------------------------------
	   Coordinate                Previous        Force       Change         New 
	   ----------                --------       ------       ------       ------
	    1 R(1,2)          =      1.385996     0.000868     0.000072     1.386068
	    2 R(1,12)         =      1.513136     0.000528     0.000059     1.513195
	    3 R(1,13)         =      1.242707     0.000761     0.000044     1.242751
	    4 R(2,3)          =      1.434493    -0.003027    -0.000273     1.434220
	    5 R(2,5)          =      1.467739    -0.000703    -0.000107     1.467631
	    6 R(3,4)          =      1.402766     0.000078     0.000040     1.402806
	    7 R(3,6)          =      1.403929    -0.001825    -0.000167     1.403762
	    8 R(4,7)          =      1.392216    -0.000042    -0.000013     1.392203
	    9 R(4,10)         =      1.074079    -0.000031    -0.000003     1.074077
	   10 R(5,14)         =      1.087844     0.000146    -0.000005     1.087839
	   11 R(5,15)         =      1.092751     0.000058     0.000020     1.092771
	   12 R(5,16)         =      1.083780    -0.000113     0.000003     1.083783
	   13 R(6,9)          =      1.391303     0.000116     0.000026     1.391328
	   14 R(6,11)         =      1.079248     0.001187     0.000136     1.079384
	   15 R(7,8)          =      1.391855     0.000452     0.000050     1.391906
	   16 R(7,17)         =      1.081612     0.000121     0.000021     1.081632
	   17 R(8,9)          =      1.391145     0.000461     0.000027     1.391172
	   18 R(8,21)         =      1.081083     0.000214     0.000032     1.081115
	   19 R(9,18)         =      1.081676     0.000128     0.000023     1.081699
	   20 R(12,19)        =      1.091910     0.000120    -0.000010     1.091900
	   21 R(12,20)        =      1.090244    -0.000026    -0.000006     1.090238
	   22 R(12,22)        =      1.085470    -0.000418    -0.000090     1.085380
	   23 B(1,2,3)        =    123.174376     0.000003     0.012789   123.187165
	   24 B(1,2,5)        =    120.082789     0.000031     0.041320   120.124109
	   25 B(1,12,19)      =    111.807478     0.000006     0.019412   111.826890
	   26 B(1,12,20)      =    112.568838    -0.000001    -0.007720   112.561118
	   27 B(1,12,22)      =    106.744476    -0.000002    -0.008592   106.735885
	   28 B(2,1,12)       =    117.628920     0.000010     0.004697   117.633618
	   29 B(2,1,13)       =    123.057585    -0.000010    -0.011681   123.045904
	   30 B(2,3,4)        =    122.810594     0.000015     0.026800   122.837394
	   31 B(2,3,6)        =    118.696387    -0.000029    -0.047903   118.648485
	   32 B(2,5,14)       =    109.250863    -0.000004    -0.014309   109.236554
	   33 B(2,5,15)       =    112.076845    -0.000002    -0.004611   112.072234
	   34 B(2,5,16)       =    110.592669     0.000004     0.009449   110.602118
	   35 B(3,2,5)        =    116.740009    -0.000034    -0.054455   116.685554
	   36 B(3,4,7)        =    120.022861    -0.000008    -0.012554   120.010307
	   37 B(3,4,10)       =    119.786197     0.000006     0.013257   119.799454
	   38 B(3,6,9)        =    120.842811    -0.000005    -0.011471   120.831340
	   39 B(3,6,11)       =    120.718382    -0.000003    -0.003831   120.714551
	   40 B(4,3,6)        =    118.487687     0.000014     0.021546   118.509234
	   41 B(4,7,8)        =    121.270566    -0.000001    -0.000036   121.270530
	   42 B(4,7,17)       =    118.719156     0.000000    -0.000709   118.718447
	   43 B(6,9,8)        =    120.477102    -0.000000     0.002624   120.479725
	   44 B(6,9,18)       =    119.198850    -0.000001    -0.005988   119.192862
	   45 B(7,4,10)       =    120.184326     0.000002    -0.001196   120.183130
	   46 B(7,8,9)        =    118.886231     0.000000     0.000877   118.887108
	   47 B(7,8,21)       =    120.589649    -0.000001    -0.001786   120.587864
	   48 B(8,7,17)       =    120.010244     0.000001     0.000747   120.010991
	   49 B(8,9,18)       =    120.321304     0.000001     0.003492   120.324796
	   50 B(9,6,11)       =    118.427130     0.000008     0.015645   118.442775
	   51 B(9,8,21)       =    120.522872     0.000000     0.001035   120.523907
	   52 B(12,1,13)      =    119.305226     0.000001     0.007104   119.312330
	   53 B(14,5,15)      =    108.891146     0.000000    -0.007059   108.884087
	   54 B(14,5,16)      =    107.416719     0.000001     0.001398   107.418117
	   55 B(15,5,16)      =    108.486910     0.000002     0.015287   108.502197
	   56 B(19,12,20)     =    108.276238    -0.000001    -0.002159   108.274079
	   57 B(19,12,22)     =    108.177944    -0.000001     0.007308   108.185253
	   58 B(20,12,22)     =    109.149621    -0.000000    -0.008273   109.141349
	   59 *D(1,2,3,4)     =    -22.925926     0.000000     0.000000   -22.925926
	   60 D(1,2,3,6)      =    156.220660     0.000000     0.036451   156.257111
	   61 D(1,2,5,14)     =    143.560615     0.000001    -0.009623   143.550992
	   62 D(1,2,5,15)     =    -95.660529    -0.000000    -0.031221   -95.691749
	   63 D(1,2,5,16)     =     25.532502     0.000001    -0.008208    25.524294
	   64 D(2,1,12,19)    =    -70.542246     0.000000     0.096026   -70.446220
	   65 D(2,1,12,20)    =     51.604002     0.000000     0.101947    51.705949
	   66 D(2,1,12,22)    =    171.340676    -0.000000     0.081677   171.422353
	   67 D(2,3,4,7)      =   -179.670255    -0.000000    -0.019489  -179.689745
	   68 D(2,3,4,10)     =      1.263595     0.000000     0.014713     1.278308
	   69 D(2,3,6,9)      =    179.526217    -0.000000     0.013045   179.539262
	   70 D(2,3,6,11)     =     -1.736379     0.000000     0.031910    -1.704469
	   71 *D(3,2,1,12)    =   -174.996725     0.000000     0.000000  -174.996725
	   72 D(3,2,1,13)     =      3.948394     0.000000     0.007808     3.956203
	   73 D(3,2,5,14)     =    -37.031622     0.000000    -0.044775   -37.076397
	   74 D(3,2,5,15)     =     83.747234    -0.000001    -0.066373    83.680861
	   75 D(3,2,5,16)     =   -155.059735     0.000000    -0.043361  -155.103095
	   76 D(3,4,7,8)      =     -0.356548     0.000000     0.030497    -0.326051
	   77 D(3,4,7,17)     =    179.710987     0.000000     0.028865   179.739852
	   78 D(3,6,9,8)      =      0.561097    -0.000000    -0.014868     0.546228
	   79 D(3,6,9,18)     =    179.960400     0.000000    -0.000709   179.959691
	   80 D(4,3,2,5)      =    157.686331     0.000000     0.036164   157.722495
	   81 D(4,3,6,9)      =     -1.289856     0.000000     0.047977    -1.241880
	   82 D(4,3,6,11)     =    177.447548     0.000001     0.066842   177.514389
	   83 D(4,7,8,9)      =     -0.391301     0.000000     0.003794    -0.387506
	   84 D(4,7,8,21)     =   -179.987117    -0.000000    -0.017282  -180.004400
	   85 D(5,2,1,12)     =      4.371379    -0.000000    -0.037925     4.333454
	   86 D(5,2,1,13)     =   -176.683502    -0.000000    -0.030116  -176.713618
	   87 D(5,2,3,6)      =    -23.167083     0.000001     0.072615   -23.094468
	   88 D(6,3,4,7)      =      1.181465    -0.000001    -0.055328     1.126137
	   89 D(6,3,4,10)     =   -177.884684    -0.000000    -0.021125  -177.905810
	   90 D(6,9,8,7)      =      0.289535    -0.000000    -0.011608     0.277927
	   91 D(6,9,8,21)     =    179.885629     0.000000     0.009443   179.895072
	   92 D(7,8,9,18)     =   -179.103001    -0.000000    -0.025871  -179.128873
	   93 D(8,7,4,10)     =    178.705849    -0.000000    -0.003702   178.702147
	   94 D(8,9,6,11)     =   -178.204645    -0.000000    -0.033082  -178.237727
	   95 D(9,8,7,17)     =    179.540303     0.000000     0.005446   179.545749
	   96 D(10,4,7,17)    =     -1.226616    -0.000000    -0.005335    -1.231950
	   97 D(11,6,9,18)    =      1.194658    -0.000000    -0.018922     1.175736
	   98 D(13,1,12,19)   =    110.471620    -0.000000     0.088725   110.560345
	   99 D(13,1,12,20)   =   -127.382132     0.000000     0.094645  -127.287487
	  100 D(13,1,12,22)   =     -7.645458    -0.000000     0.074376    -7.571082
	  101 D(17,7,8,21)    =     -0.055514    -0.000000    -0.015630    -0.071144
	  102 D(18,9,8,21)    =      0.493093    -0.000000    -0.004820     0.488273
	  103 R(4,13)         =      2.763684     0.000523     0.000604     2.764288
	 ---------------------------------------------------------------------------
	Successfully symmetrized geometry.

  ==> Convergence Check <==

  Measures of convergence in internal coordinates in au.
  Criteria marked as inactive (o), active & met (*), and active & unmet ( ).
  ---------------------------------------------------------------------------------------------
   Step     Total Energy     Delta E     MAX Force     RMS Force      MAX Disp      RMS Disp   
  ---------------------------------------------------------------------------------------------
    Convergence Criteria             o    2.50e-03 *    1.70e-03 *    1.00e-02 *    6.70e-03 *
  ---------------------------------------------------------------------------------------------
      6    -479.38070061   -6.89e-07 o    4.47e-04 *    9.55e-05 *    1.78e-03 *    5.50e-04 *  ~
  ---------------------------------------------------------------------------------------------


  **** Optimization is complete! (in 6 steps) ****

  ==> Optimization Summary <==

  Measures of convergence in internal coordinates in au.
  --------------------------------------------------------------------------------------------------------------- ~
   Step         Total Energy             Delta E       MAX Force       RMS Force        MAX Disp        RMS Disp  ~
  --------------------------------------------------------------------------------------------------------------- ~
      1    -479.380617964802   -479.380617964802      0.00173867      0.00039020      0.08011983      0.01855629  ~
      2    -479.380618319119     -0.000000354317      0.00138762      0.00035690      0.04272726      0.01012497  ~
      3    -479.380669632222     -0.000051313103      0.00098431      0.00022733      0.02495896      0.00546440  ~
      4    -479.380696047692     -0.000026415470      0.00046995      0.00010503      0.01704421      0.00420965  ~
      5    -479.380699923962     -0.000003876270      0.00040573      0.00008815      0.01124116      0.00285604  ~
      6    -479.380700612682     -0.000000688720      0.00044662      0.00009545      0.00177930      0.00054958  ~
  --------------------------------------------------------------------------------------------------------------- ~

	Writing optimization data to binary file.
	Final energy is   -479.3807006126823
	Final (previous) structure:
	Cartesian Geometry (in Angstrom)
	    C     2.0076033393  -0.3700193080  -0.2038249708
	    N     0.8694608426   0.2738445583  -0.6632335120
	    C    -0.4193430458   0.1214100286  -0.0520712783
	    C    -0.7639901916  -0.9928187771   0.7273293498
	    C     0.9494459426   1.1733654291  -1.8202647021
	    C    -1.3721946046   1.1377561424  -0.2256566297
	    C    -2.0350453049  -1.0844956397   1.2879356793
	    C    -2.9822946566  -0.0824816636   1.0983366876
	    C    -2.6393068695   1.0315654953   0.3390317980
	    H    -0.0396386851  -1.7664106012   0.9020201698
	    H    -1.1315773675   2.0295403647  -0.7838681906
	    C     3.3231135294  -0.0303995239  -0.8699124782
	    O     1.9927965232  -1.1878970251   0.7316842790
	    H     0.0438671244   1.0743309371  -2.4148438599
	    H     1.0637886354   2.2181340707  -1.5211182746
	    H     1.7854775030   0.9042447915  -2.4552479465
	    H    -2.2798323481  -1.9550767567   1.8812755391
	    H    -3.3525853544   1.8307688136   0.1889256615
	    H     3.3760780600  -0.4235261569  -1.8872196713
	    H     3.5077482772   1.0434107133  -0.9082896468
	    H    -3.9660494246  -0.1649029245   1.5389891499
	    H     4.1027947454  -0.5049879459  -0.2824540080
	Saving final (previous) structure.
	Cleaning optimization helper files.
			--------------------------
			 OPTKING Finished Execution 
			--------------------------

    Final optimized geometry and variables:
    Molecular point group: c1
    Full point group: C1

    Geometry (in Angstrom), charge = 0, multiplicity = 1:

    C            2.007603347226    -0.370019309424    -0.203824971556
    N            0.869460846026     0.273844559346    -0.663233514599
    C           -0.419343047480     0.121410029093    -0.052071278509
    C           -0.763990194576    -0.992818781022     0.727329352659
    C            0.949445946376     1.173365433731    -1.820264709229
    C           -1.372194609971     1.137756146845    -0.225656630581
    C           -2.035045312940    -1.084495643950     1.287935684412
    C           -2.982294668311    -0.082481663877     1.098336691964
    C           -2.639306879836     1.031565499365     0.339031799350
    H           -0.039638685231    -1.766410608126     0.902020173352
    H           -1.131577371928     2.029540372650    -0.783868193668
    C            3.323113542459    -0.030399524039    -0.869912481616
    O            1.992796531070    -1.187897029724     0.731684281923
    H            0.043867124621     1.074330941363    -2.414843869354
    H            1.063788639609     2.218134079430    -1.521118280560
    H            1.785477510017     0.904244795023    -2.455247956150
    H           -2.279832357075    -1.955076764384     1.881275546495
    H           -3.352585367611     1.830768820819     0.188925662247
    H            3.376078073245    -0.423526158561    -1.887219678740
    H            3.507748290952     1.043410717418    -0.908289650397
    H           -3.966049440151    -0.164902925164     1.538989155900
    H            4.102794761495    -0.504987947860    -0.282454009093

	Removing binary optimization data file.
	Cleaning optimization helper files.

    Psi4 stopped on: Wednesday, 08 June 2022 11:28AM
    Psi4 wall time for execution: 0:09:07.61

*** Psi4 exiting successfully. Buy a developer a beer!
