34
 energy: -53.420525530892 gnorm: 0.000677765118 xtb: 6.5.0 (97a52f5)
H            0.52781313935481       -1.91939750756352        1.18011016573644
N            0.57510322690498       -0.90962536552718        1.07197770686516
C           -0.65805566389971       -0.38540465605511        0.67882890116956
C           -1.38040141769260       -1.12479613478749       -0.38547150977249
C            1.79210778231488       -0.50765346319085        0.52598642034202
C           -1.10502229641474        0.80622702490486        1.13870005772937
C           -2.37379967149667        1.44245750410657        0.86858529449762
N           -1.30184830408907        2.68246977019868        2.39274649427039
C           -0.42139271409903        1.65050618138223        2.15136835824346
C           -2.44831726052292        2.54566246323830        1.63331479326591
C           -2.08800311948016       -2.28887284936086       -0.10552938674708
C           -1.28447133078209       -0.68291609337940       -1.70029549941875
C           -2.70869143843903       -2.99076579062233       -1.12337187956168
C           -1.90181149135339       -1.39101195451824       -2.71575853463413
C           -2.61548339658705       -2.54300966766031       -2.43032058052859
C            1.93484993316968        0.68544001729308       -0.17689190603841
C            2.91689192188819       -1.30034617436435        0.74939247799144
C            3.17366696669307        1.06188647084639       -0.65882750378707
C            4.15047732984666       -0.91535988678918        0.26459318982903
C            4.28642989919434        0.26713913386703       -0.44363721415497
H           -1.12244816757605        3.42682906814492        3.04538816880101
O            0.65750835741373        1.51892403397315        2.68619470748564
H           -2.16223514420509       -2.63277623339115        0.91657975193923
H           -0.72743621505135        0.21506077038799       -1.92203141471476
H           -3.26518391475028       -3.88806894466999       -0.89600680546485
H           -1.82365855296126       -1.04187701197945       -3.73478219032566
H           -3.09820248095416       -3.09134995103022       -3.22553325438893
H            1.07529878255569        1.31696482608150       -0.34192742453368
H            2.81375480170087       -2.22205091110457        1.30500773052227
H            3.27037235889891        1.98836544798473       -1.20623576035581
H            5.01248280158427       -1.54118727440701        0.44469603619225
H           -3.10923564172886        1.07651401636033        0.18041675589180
H           -3.24004536246934        3.26669747345925        1.71466536832176
H            5.25238029303311        0.56832166817162       -0.81987151466787
