      -----------------------------------------------------------      
     |                   =====================                   |     
     |                           x T B                           |     
     |                   =====================                   |     
     |                         S. Grimme                         |     
     |          Mulliken Center for Theoretical Chemistry        |     
     |                    University of Bonn                     |     
      -----------------------------------------------------------      

   * xtb version 6.5.0 (97a52f5) compiled by 'conda@d2599ee0d4f4' on 2022-05-15

   xtb is free software: you can redistribute it and/or modify it under
   the terms of the GNU Lesser General Public License as published by
   the Free Software Foundation, either version 3 of the License, or
   (at your option) any later version.
   
   xtb is distributed in the hope that it will be useful,
   but WITHOUT ANY WARRANTY; without even the implied warranty of
   MERCHANTABILITY or FITNESS FOR A PARTICULAR PURPOSE.  See the
   GNU Lesser General Public License for more details.
   
   Cite this work as:
   * C. Bannwarth, E. Caldeweyher, S. Ehlert, A. Hansen, P. Pracht,
     J. Seibert, S. Spicher, S. Grimme, WIREs Comput. Mol. Sci., 2020, 11,
     e01493. DOI: 10.1002/wcms.1493
   
   for GFN2-xTB:
   * C. Bannwarth, S. Ehlert and S. Grimme., J. Chem. Theory Comput., 2019,
     15, 1652-1671. DOI: 10.1021/acs.jctc.8b01176
   for GFN1-xTB:
   * S. Grimme, C. Bannwarth, P. Shushkov, J. Chem. Theory Comput., 2017,
     13, 1989-2009. DOI: 10.1021/acs.jctc.7b00118
   for GFN0-xTB:
   * P. Pracht, E. Caldeweyher, S. Ehlert, S. Grimme, ChemRxiv, 2019, preprint.
     DOI: 10.26434/chemrxiv.8326202.v1
   for GFN-FF:
   * S. Spicher and S. Grimme, Angew. Chem. Int. Ed., 2020, 59, 15665-15673.
     DOI: 10.1002/anie.202004239
   
   for ALPB and GBSA implicit solvation:
   * S. Ehlert, M. Stahn, S. Spicher, S. Grimme, J. Chem. Theory Comput.,
     2021, 17, 4250-4261. DOI: 10.1021/acs.jctc.1c00471
   
   for DFT-D4:
   * E. Caldeweyher, C. Bannwarth and S. Grimme, J. Chem. Phys., 2017,
     147, 034112. DOI: 10.1063/1.4993215
   * E. Caldeweyher, S. Ehlert, A. Hansen, H. Neugebauer, S. Spicher,
     C. Bannwarth and S. Grimme, J. Chem. Phys., 2019, 150, 154122.
     DOI: 10.1063/1.5090222
   * E. Caldeweyher, J.-M. Mewes, S. Ehlert and S. Grimme, Phys. Chem. Chem. Phys.
     2020, 22, 8499-8512. DOI: 10.1039/D0CP00502A
   
   for sTDA-xTB:
   * S. Grimme and C. Bannwarth, J. Chem. Phys., 2016, 145, 054103.
     DOI: 10.1063/1.4959605
   
   in the mass-spec context:
   * V. Asgeirsson, C. Bauer and S. Grimme, Chem. Sci., 2017, 8, 4879.
     DOI: 10.1039/c7sc00601b
   * J. Koopman and S. Grimme, ACS Omega 2019, 4, 12, 15120-15133.
     DOI: 10.1021/acsomega.9b02011
   
   for metadynamics refer to:
   * S. Grimme, J. Chem. Theory Comput., 2019, 155, 2847-2862
     DOI: 10.1021/acs.jctc.9b00143
   
   for SPH calculations refer to:
   * S. Spicher and S. Grimme, J. Chem. Theory Comput., 2021, 17, 1701-1714
     DOI: 10.1021/acs.jctc.0c01306
   
   with help from (in alphabetical order)
   P. Atkinson, C. Bannwarth, F. Bohle, G. Brandenburg, E. Caldeweyher
   M. Checinski, S. Dohm, S. Ehlert, S. Ehrlich, I. Gerasimov, C. Hölzer
   A. Katbashev, J. Koopman, C. Lavigne, S. Lehtola, F. März, M. Müller,
   F. Musil, H. Neugebauer, J. Pisarek, C. Plett, P. Pracht, F. Pultar,
   J. Seibert, P. Shushkov, S. Spicher, M. Stahn, M. Steiner, T. Strunk,
   J. Stückrath, T. Rose, and J. Unsleber
   
 * started run on 2023/11/18 at 09:06:36.377     

           -------------------------------------------------
          |                Calculation Setup                |
           -------------------------------------------------

          program call               : /home/liuchw/anaconda3/envs/xtbenv/bin/xtb --gfn 2 --chrg 0 --uhf 0 1_7_Index_0-opt-2-3-226_preQMOPTprefit_xyzformat.xyz --opt --input xtb-opt-2-3-226_constr.txt
          hostname                   : node165.bme.utexas.edu
          coordinate file            : 1_7_Index_0-opt-2-3-226_preQMOPTprefit_xyzformat.xyz
          omp threads                :                    64

   ID    Z sym.   atoms
    1    1 H      1, 21, 23-34
    2    7 N      2, 8
    3    6 C      3-7, 9-20
    4    8 O      22
constraining angle 1 2 3 4 to  225.7811871°, actual value: -134.2188129°
constraining angle 5 2 3 4 to    2.9907622°, actual value:    2.9907622°
constraining angle 1 2 5 17 to  332.1161014°, actual value:  -27.8838986°
constraining angle 3 2 5 17 to  194.9516887°, actual value: -165.0483113°
constraining angle 2 3 4 12 to  261.8610325°, actual value:  -98.1389675°
constraining angle 2 3 6 7 to  182.9255683°, actual value: -177.0744317°

           -------------------------------------------------
          |                 G F N 2 - x T B                 |
           -------------------------------------------------

        Reference                      10.1021/acs.jctc.8b01176
      * Hamiltonian:
        H0-scaling (s, p, d)           1.850000    2.230000    2.230000
        zeta-weighting                 0.500000
      * Dispersion:
        s8                             2.700000
        a1                             0.520000
        a2                             5.000000
        s9                             5.000000
      * Repulsion:
        kExp                           1.500000    1.000000
        rExp                           1.000000
      * Coulomb:
        alpha                          2.000000
        third order                    shell-resolved
        anisotropic                    true
        a3                             3.000000
        a5                             4.000000
        cn-shift                       1.200000
        cn-exp                         4.000000
        max-rad                        5.000000

q/qsh data taken from xtbrestart
CAMM data taken from xtbrestart

          ...................................................
          :                      SETUP                      :
          :.................................................:
          :  # basis functions                  94          :
          :  # atomic orbitals                  94          :
          :  # shells                           54          :
          :  # electrons                        98          :
          :  max. iterations                   250          :
          :  Hamiltonian                  GFN2-xTB          :
          :  restarted?                       true          :
          :  GBSA solvation                  false          :
          :  PC potential                    false          :
          :  electronic temp.          300.0000000     K    :
          :  accuracy                    1.0000000          :
          :  -> integral cutoff          0.2500000E+02      :
          :  -> integral neglect         0.1000000E-07      :
          :  -> SCF convergence          0.1000000E-05 Eh   :
          :  -> wf. convergence          0.1000000E-03 e    :
          :  Broyden damping             0.4000000          :
          ...................................................

 iter      E             dE          RMSdq      gap      omega  full diag
   1    -54.2126436 -0.542126E+02  0.150E+00    1.95       0.0  T
   2    -54.2103277  0.231590E-02  0.985E-01    2.12       1.0  T
   3    -54.2034691  0.685857E-02  0.837E-01    1.90       1.0  T
   4    -54.2197388 -0.162697E-01  0.145E-01    2.02       1.0  T
   5    -54.2203679 -0.629032E-03  0.430E-02    2.01       1.0  T
   6    -54.2204084 -0.405662E-04  0.185E-02    2.00       1.0  T
   7    -54.2204105 -0.211247E-05  0.648E-03    2.00       2.6  T
   8    -54.2204114 -0.833211E-06  0.219E-03    2.00       7.8  T
   9    -54.2204114 -0.685447E-07  0.942E-04    2.00      18.2  T
  10    -54.2204114 -0.509144E-08  0.378E-04    2.00      45.4  T

   *** convergence criteria satisfied after 10 iterations ***

         #    Occupation            Energy/Eh            Energy/eV
      -------------------------------------------------------------
         1        2.0000           -0.6854404             -18.6518
       ...           ...                  ...                  ...
        43        2.0000           -0.4170176             -11.3476
        44        2.0000           -0.4118238             -11.2063
        45        2.0000           -0.4048301             -11.0160
        46        2.0000           -0.4007489             -10.9049
        47        2.0000           -0.3870752             -10.5329
        48        2.0000           -0.3827194             -10.4143
        49        2.0000           -0.3529540              -9.6044 (HOMO)
        50                         -0.2793487              -7.6015 (LUMO)
        51                         -0.2424130              -6.5964
        52                         -0.2373151              -6.4577
        53                         -0.2264853              -6.1630
        54                         -0.2167813              -5.8989
       ...                                ...                  ...
        94                          0.6620331              18.0148
      -------------------------------------------------------------
                  HL-Gap            0.0736053 Eh            2.0029 eV
             Fermi-level           -0.3161513 Eh           -8.6029 eV

 SCC (total)                   0 d,  0 h,  0 min,  1.481 sec
 SCC setup                      ...        0 min,  0.005 sec (  0.363%)
 Dispersion                     ...        0 min,  0.020 sec (  1.382%)
 classical contributions        ...        0 min,  0.016 sec (  1.092%)
 integral evaluation            ...        0 min,  0.027 sec (  1.827%)
 iterations                     ...        0 min,  1.252 sec ( 84.525%)
 molecular gradient             ...        0 min,  0.147 sec (  9.895%)
 printout                       ...        0 min,  0.013 sec (  0.907%)

         :::::::::::::::::::::::::::::::::::::::::::::::::::::
         ::                     SUMMARY                     ::
         :::::::::::::::::::::::::::::::::::::::::::::::::::::
         :: total energy             -53.410256445727 Eh    ::
         :: gradient norm              0.093224665087 Eh/a0 ::
         :: HOMO-LUMO gap              2.002901234419 eV    ::
         ::.................................................::
         :: SCC energy               -54.220411441110 Eh    ::
         :: -> isotropic ES            0.044094864633 Eh    ::
         :: -> anisotropic ES          0.004088527728 Eh    ::
         :: -> anisotropic XC          0.031060261786 Eh    ::
         :: -> dispersion             -0.038033705452 Eh    ::
         :: repulsion energy           0.809844912168 Eh    ::
         :: add. restraining           0.000000000000 Eh    ::
         :: total charge              -0.000000000000 e     ::
         :::::::::::::::::::::::::::::::::::::::::::::::::::::

      ----------------------------------------------------------- 
     |                   =====================                   |
     |                        A N C O P T                        |
     |                   =====================                   |
     |               Approximate Normal Coordinate               |
     |                Rational Function Optimizer                |
      ----------------------------------------------------------- 

          ...................................................
          :                      SETUP                      :
          :.................................................:
          :   optimization level            normal          :
          :   max. optcycles                   200          :
          :   ANC micro-cycles                  20          :
          :   degrees of freedom                96          :
          :.................................................:
          :   RF solver                   davidson          :
          :   write xtbopt.log                true          :
          :   linear?                        false          :
          :   energy convergence         0.5000000E-05 Eh   :
          :   grad. convergence          0.1000000E-02 Eh/α :
          :   maximium RF displ.         1.0000000          :
          :   Hlow (freq-cutoff)         0.1000000E-01      :
          :   Hmax (freq-cutoff)         5.0000000          :
          :   S6 in model hess.         20.0000000          :
          ...................................................

generating ANC from model Hessian ...
Using Lindh-Hessian (1995)
 Shifting diagonal of input Hessian by    9.2312147320578828E-003
 Lowest  eigenvalues of input Hessian
    0.000000    0.000000    0.000000    0.000000    0.000000    0.000000
    0.010000    0.010316    0.010672    0.011129    0.012607    0.013110
    0.015255    0.015795    0.020121    0.021295    0.022769    0.023449
 Highest eigenvalues
    2.286965    2.549012    3.105285    4.408813   10.179160   20.900714


........................................................................
.............................. CYCLE    1 ..............................
........................................................................
   1    -54.2204114 -0.542204E+02  0.141E-04    2.00       0.0  T
   2    -54.2204114 -0.129887E-10  0.101E-04    2.00     169.6  T
   3    -54.2204114 -0.121076E-09  0.709E-05    2.00     241.9  T
     SCC iter.                  ...        0 min,  0.348 sec
     gradient                   ...        0 min,  0.133 sec
 * total energy  :   -53.4102564 Eh     change       -0.1917115E-08 Eh
   gradient norm :     0.0932245 Eh/α   predicted     0.0000000E+00 (-100.00%)
   displ. norm   :     0.4470143 α      lambda       -0.2399095E-01
   maximum displ.:     0.2285798 α      in ANC's #13, #21, #50, ...

........................................................................
.............................. CYCLE    2 ..............................
........................................................................
   1    -54.3060877 -0.543061E+02  0.292E-01    2.16       0.0  T
   2    -54.3061683 -0.806760E-04  0.211E-01    2.10       1.0  T
   3    -54.3065399 -0.371546E-03  0.137E-01    2.15       1.0  T
   4    -54.3067546 -0.214720E-03  0.455E-02    2.12       1.0  T
   5    -54.3068103 -0.557379E-04  0.115E-02    2.12       1.5  T
   6    -54.3068137 -0.330742E-05  0.425E-03    2.12       4.0  T
   7    -54.3068137 -0.285556E-07  0.192E-03    2.12       8.9  T
   8    -54.3068137 -0.597044E-07  0.578E-04    2.12      29.7  T
   9    -54.3068137 -0.253611E-08  0.274E-04    2.12      62.5  T
     SCC iter.                  ...        0 min,  0.717 sec
     gradient                   ...        0 min,  0.132 sec
 * total energy  :   -53.4268050 Eh     change       -0.1654860E-01 Eh
   gradient norm :     0.0682542 Eh/α   predicted    -0.1439245E-01 ( -13.03%)
   displ. norm   :     0.4662138 α      lambda       -0.9941417E-02
   maximum displ.:     0.3065967 α      in ANC's #13, #21, #8, ...

........................................................................
.............................. CYCLE    3 ..............................
........................................................................
   1    -54.3574536 -0.543575E+02  0.225E-01    2.22       0.0  T
   2    -54.3575634 -0.109767E-03  0.186E-01    2.17       1.0  T
   3    -54.3581601 -0.596745E-03  0.921E-02    2.21       1.0  T
   4    -54.3581942 -0.340687E-04  0.377E-02    2.19       1.0  T
   5    -54.3582199 -0.256864E-04  0.105E-02    2.19       1.6  T
   6    -54.3582229 -0.305149E-05  0.313E-03    2.19       5.5  T
   7    -54.3582229 -0.104691E-07  0.137E-03    2.19      12.5  T
   8    -54.3582230 -0.326944E-07  0.354E-04    2.19      48.4  T
   9    -54.3582230 -0.174413E-08  0.162E-04    2.19     105.9  T
     SCC iter.                  ...        0 min,  0.735 sec
     gradient                   ...        0 min,  0.148 sec
 * total energy  :   -53.4311368 Eh     change       -0.4331737E-02 Eh
   gradient norm :     0.1959184 Eh/α   predicted    -0.6051144E-02 (  39.69%)
   displ. norm   :     0.3332847 α      lambda       -0.6326525E-02
   maximum displ.:     0.2251557 α      in ANC's #13, #8, #9, ...

........................................................................
.............................. CYCLE    4 ..............................
........................................................................
   1    -54.3709218 -0.543709E+02  0.153E-01    2.26       0.0  T
   2    -54.3709627 -0.408677E-04  0.121E-01    2.22       1.0  T
   3    -54.3712050 -0.242303E-03  0.617E-02    2.25       1.0  T
   4    -54.3712290 -0.240834E-04  0.209E-02    2.24       1.0  T
   5    -54.3712367 -0.770529E-05  0.601E-03    2.24       2.9  T
   6    -54.3712377 -0.935552E-06  0.195E-03    2.24       8.8  T
   7    -54.3712377 -0.789225E-08  0.766E-04    2.24      22.4  T
   8    -54.3712377 -0.108790E-07  0.180E-04    2.24      95.5  T
     SCC iter.                  ...        0 min,  0.956 sec
     gradient                   ...        0 min,  0.166 sec
 * total energy  :   -53.4299728 Eh     change        0.1164022E-02 Eh
   gradient norm :     0.3521674 Eh/α   predicted    -0.3514622E-02 (-401.94%)
   displ. norm   :     0.1060849 α      lambda       -0.7181476E-02
   maximum displ.:     0.0346972 α      in ANC's #8, #20, #21, ...

........................................................................
.............................. CYCLE    5 ..............................
........................................................................
   1    -54.3577423 -0.543577E+02  0.780E-02    2.21       0.0  T
   2    -54.3577552 -0.129881E-04  0.520E-02    2.22       1.0  T
   3    -54.3577601 -0.484564E-05  0.339E-02    2.21       1.0  T
   4    -54.3577750 -0.149409E-04  0.106E-02    2.22       1.6  T
   5    -54.3577785 -0.344023E-05  0.261E-03    2.22       6.6  T
   6    -54.3577786 -0.135917E-06  0.118E-03    2.22      14.5  T
   7    -54.3577786 -0.248392E-08  0.440E-04    2.22      39.0  T
   8    -54.3577786 -0.401909E-08  0.122E-04    2.22     140.9  T
     SCC iter.                  ...        0 min,  1.056 sec
     gradient                   ...        0 min,  0.148 sec
 * total energy  :   -53.4330814 Eh     change       -0.3108597E-02 Eh
   gradient norm :     0.0804650 Eh/α   predicted    -0.3631199E-02 (  16.81%)
   displ. norm   :     0.0916755 α      lambda       -0.1073004E-02
   maximum displ.:     0.0473814 α      in ANC's #1, #3, #2, ...

........................................................................
.............................. CYCLE    6 ..............................
........................................................................
   1    -54.3539739 -0.543540E+02  0.406E-02    2.20       0.0  T
   2    -54.3539750 -0.107690E-05  0.310E-02    2.21       1.0  T
   3    -54.3539855 -0.104486E-04  0.177E-02    2.20       1.0  T
   4    -54.3539886 -0.317090E-05  0.499E-03    2.20       3.4  T
   5    -54.3539892 -0.558165E-06  0.133E-03    2.20      12.9  T
   6    -54.3539892 -0.492029E-07  0.358E-04    2.20      47.9  T
   7    -54.3539892 -0.108969E-09  0.185E-04    2.20      92.7  T
     SCC iter.                  ...        0 min,  0.903 sec
     gradient                   ...        0 min,  0.158 sec
 * total energy  :   -53.4333600 Eh     change       -0.2786065E-03 Eh
   gradient norm :     0.0516969 Eh/α   predicted    -0.5411428E-03 (  94.23%)
   displ. norm   :     0.0890155 α      lambda       -0.3455716E-03
   maximum displ.:     0.0422975 α      in ANC's #1, #3, #8, ...

........................................................................
.............................. CYCLE    7 ..............................
........................................................................
   1    -54.3558776 -0.543559E+02  0.343E-02    2.21       0.0  T
   2    -54.3558787 -0.111154E-05  0.228E-02    2.20       1.0  T
   3    -54.3558843 -0.553733E-05  0.151E-02    2.21       1.1  T
   4    -54.3558872 -0.297550E-05  0.402E-03    2.21       4.3  T
   5    -54.3558876 -0.396051E-06  0.110E-03    2.21      15.6  T
   6    -54.3558877 -0.343128E-07  0.317E-04    2.21      54.2  T
   7    -54.3558877 -0.112962E-09  0.147E-04    2.21     116.5  T
     SCC iter.                  ...        0 min,  0.827 sec
     gradient                   ...        0 min,  0.161 sec
 * total energy  :   -53.4335832 Eh     change       -0.2232422E-03 Eh
   gradient norm :     0.0077792 Eh/α   predicted    -0.1742060E-03 ( -21.97%)
   displ. norm   :     0.1274116 α      lambda       -0.1285439E-03
   maximum displ.:     0.0746070 α      in ANC's #1, #2, #3, ...

........................................................................
.............................. CYCLE    8 ..............................
........................................................................
   1    -54.3559764 -0.543560E+02  0.406E-02    2.21       0.0  T
   2    -54.3559772 -0.773868E-06  0.239E-02    2.21       1.0  T
   3    -54.3559712  0.590807E-05  0.182E-02    2.21       1.0  T
   4    -54.3559791 -0.782791E-05  0.279E-03    2.21       6.1  T
   5    -54.3559794 -0.278624E-06  0.711E-04    2.21      24.1  T
   6    -54.3559794 -0.135677E-07  0.256E-04    2.21      67.1  T
     SCC iter.                  ...        0 min,  0.688 sec
     gradient                   ...        0 min,  0.150 sec
 * total energy  :   -53.4336789 Eh     change       -0.9572103E-04 Eh
   gradient norm :     0.0083200 Eh/α   predicted    -0.6535355E-04 ( -31.72%)
   displ. norm   :     0.1595982 α      lambda       -0.9952469E-04
   maximum displ.:     0.0963972 α      in ANC's #1, #2, #3, ...

........................................................................
.............................. CYCLE    9 ..............................
........................................................................
   1    -54.3555704 -0.543556E+02  0.481E-02    2.21       0.0  T
   2    -54.3555709 -0.577386E-06  0.281E-02    2.21       1.0  T
   3    -54.3555693  0.160180E-05  0.806E-03    2.21       2.1  T
   4    -54.3555711 -0.179187E-05  0.155E-03    2.21      11.0  T
   5    -54.3555712 -0.695206E-07  0.603E-04    2.21      28.5  T
   6    -54.3555712 -0.903728E-08  0.274E-04    2.21      62.6  T
     SCC iter.                  ...        0 min,  0.746 sec
     gradient                   ...        0 min,  0.165 sec
 * total energy  :   -53.4337529 Eh     change       -0.7400956E-04 Eh
   gradient norm :     0.0081696 Eh/α   predicted    -0.5106275E-04 ( -31.01%)
   displ. norm   :     0.1347153 α      lambda       -0.5883414E-04
   maximum displ.:     0.0857808 α      in ANC's #1, #2, #3, ...

........................................................................
.............................. CYCLE   10 ..............................
........................................................................
   1    -54.3552904 -0.543553E+02  0.395E-02    2.21       0.0  T
   2    -54.3552906 -0.173409E-06  0.235E-02    2.21       1.0  T
   3    -54.3552867  0.391846E-05  0.102E-02    2.21       1.7  T
   4    -54.3552909 -0.424532E-05  0.985E-04    2.21      17.4  T
   5    -54.3552909 -0.191662E-07  0.388E-04    2.21      44.2  T
   6    -54.3552909 -0.190133E-08  0.205E-04    2.21      83.5  T
     SCC iter.                  ...        0 min,  0.783 sec
     gradient                   ...        0 min,  0.172 sec
 * total energy  :   -53.4337970 Eh     change       -0.4409496E-04 Eh
   gradient norm :     0.0038432 Eh/α   predicted    -0.2996608E-04 ( -32.04%)
   displ. norm   :     0.1036000 α      lambda       -0.3404349E-04
   maximum displ.:     0.0689239 α      in ANC's #1, #2, #3, ...

........................................................................
.............................. CYCLE   11 ..............................
........................................................................
   1    -54.3553773 -0.543554E+02  0.312E-02    2.21       0.0  T
   2    -54.3553774 -0.801838E-07  0.187E-02    2.21       1.0  T
   3    -54.3553726  0.479110E-05  0.126E-02    2.21       1.4  T
   4    -54.3553780 -0.542293E-05  0.983E-04    2.21      17.5  T
   5    -54.3553780 -0.221494E-07  0.358E-04    2.21      47.9  T
   6    -54.3553780 -0.214422E-08  0.179E-04    2.21      95.6  T
     SCC iter.                  ...        0 min,  0.717 sec
     gradient                   ...        0 min,  0.151 sec
 * total energy  :   -53.4338228 Eh     change       -0.2574874E-04 Eh
   gradient norm :     0.0014832 Eh/α   predicted    -0.1720997E-04 ( -33.16%)
   displ. norm   :     0.1190978 α      lambda       -0.2060321E-04
   maximum displ.:     0.0816235 α      in ANC's #1, #2, #3, ...

........................................................................
.............................. CYCLE   12 ..............................
........................................................................
   1    -54.3556086 -0.543556E+02  0.392E-02    2.21       0.0  T
   2    -54.3556088 -0.204047E-06  0.230E-02    2.21       1.0  T
   3    -54.3556020  0.676480E-05  0.159E-02    2.21       1.1  T
   4    -54.3556098 -0.776522E-05  0.157E-03    2.21      10.9  T
   5    -54.3556098 -0.710762E-07  0.494E-04    2.21      34.7  T
   6    -54.3556098 -0.450843E-08  0.222E-04    2.21      77.2  T
     SCC iter.                  ...        0 min,  0.793 sec
     gradient                   ...        0 min,  0.156 sec
 * total energy  :   -53.4338422 Eh     change       -0.1942932E-04 Eh
   gradient norm :     0.0027661 Eh/α   predicted    -0.1036761E-04 ( -46.64%)
   displ. norm   :     0.0376247 α      lambda       -0.8056425E-05
   maximum displ.:     0.0244633 α      in ANC's #1, #2, #5, ...

........................................................................
.............................. CYCLE   13 ..............................
........................................................................
   1    -54.3557255 -0.543557E+02  0.133E-02    2.21       0.0  T
   2    -54.3557255 -0.275903E-07  0.777E-03    2.21       2.2  T
   3    -54.3557253  0.155376E-06  0.234E-03    2.21       7.3  T
   4    -54.3557255 -0.166032E-06  0.430E-04    2.21      39.9  T
   5    -54.3557255 -0.614161E-08  0.117E-04    2.21     147.0  T
     SCC iter.                  ...        0 min,  0.616 sec
     gradient                   ...        0 min,  0.149 sec
 * total energy  :   -53.4338487 Eh     change       -0.6522753E-05 Eh
   gradient norm :     0.0018290 Eh/α   predicted    -0.4039707E-05 ( -38.07%)
   displ. norm   :     0.1040934 α      lambda       -0.1310400E-04
   maximum displ.:     0.0601635 α      in ANC's #1, #2, #5, ...

........................................................................
.............................. CYCLE   14 ..............................
........................................................................
   1    -54.3560347 -0.543560E+02  0.368E-02    2.21       0.0  T
   2    -54.3560349 -0.211543E-06  0.216E-02    2.21       1.0  T
   3    -54.3560345  0.336783E-06  0.370E-03    2.21       4.6  T
   4    -54.3560349 -0.366661E-06  0.110E-03    2.21      15.6  T
   5    -54.3560349 -0.354406E-07  0.369E-04    2.21      46.5  T
   6    -54.3560349 -0.202248E-08  0.196E-04    2.21      87.6  T
     SCC iter.                  ...        0 min,  0.856 sec
     gradient                   ...        0 min,  0.159 sec
 * total energy  :   -53.4338591 Eh     change       -0.1035049E-04 Eh
   gradient norm :     0.0022122 Eh/α   predicted    -0.6583973E-05 ( -36.39%)
   displ. norm   :     0.0228206 α      lambda       -0.3505632E-05
   maximum displ.:     0.0132209 α      in ANC's #1, #2, #4, ...

........................................................................
.............................. CYCLE   15 ..............................
........................................................................
   1    -54.3559126 -0.543559E+02  0.769E-03    2.21       0.0  T
   2    -54.3559126 -0.629590E-08  0.451E-03    2.21       3.8  T
   3    -54.3559126  0.341552E-07  0.102E-03    2.21      16.8  T
   4    -54.3559126 -0.374002E-07  0.181E-04    2.21      94.6  T
   5    -54.3559126 -0.818915E-09  0.712E-05    2.21     240.9  T
     SCC iter.                  ...        0 min,  0.674 sec
     gradient                   ...        0 min,  0.165 sec
 * total energy  :   -53.4338619 Eh     change       -0.2819090E-05 Eh
   gradient norm :     0.0014687 Eh/α   predicted    -0.1757505E-05 ( -37.66%)
   displ. norm   :     0.0649268 α      lambda       -0.5847985E-05
   maximum displ.:     0.0353407 α      in ANC's #1, #2, #4, ...

........................................................................
.............................. CYCLE   16 ..............................
........................................................................
   1    -54.3557548 -0.543558E+02  0.218E-02    2.21       0.0  T
   2    -54.3557548 -0.378219E-07  0.128E-02    2.21       1.3  T
   3    -54.3557545  0.278064E-06  0.280E-03    2.21       6.1  T
   4    -54.3557548 -0.306848E-06  0.437E-04    2.21      39.3  T
   5    -54.3557548 -0.391668E-08  0.207E-04    2.21      83.0  T
     SCC iter.                  ...        0 min,  0.581 sec
     gradient                   ...        0 min,  0.160 sec
 * total energy  :   -53.4338668 Eh     change       -0.4947952E-05 Eh
   gradient norm :     0.0016360 Eh/α   predicted    -0.2934675E-05 ( -40.69%)
   displ. norm   :     0.0267963 α      lambda       -0.1586548E-05
   maximum displ.:     0.0149807 α      in ANC's #1, #4, #3, ...

........................................................................
.............................. CYCLE   17 ..............................
........................................................................
   1    -54.3558314 -0.543558E+02  0.903E-03    2.21       0.0  T
   2    -54.3558314 -0.206360E-07  0.526E-03    2.21       3.3  T
   3    -54.3558313  0.101126E-06  0.193E-03    2.21       8.9  T
   4    -54.3558314 -0.112798E-06  0.318E-04    2.21      53.9  T
   5    -54.3558314 -0.313060E-08  0.125E-04    2.21     137.3  T
     SCC iter.                  ...        0 min,  0.611 sec
     gradient                   ...        0 min,  0.157 sec
 * total energy  :   -53.4338686 Eh     change       -0.1713526E-05 Eh
   gradient norm :     0.0005419 Eh/α   predicted    -0.7955768E-06 ( -53.57%)
   displ. norm   :     0.0255631 α      lambda       -0.1120893E-05
   maximum displ.:     0.0149896 α      in ANC's #1, #4, #3, ...

   *** GEOMETRY OPTIMIZATION CONVERGED AFTER 17 ITERATIONS ***

------------------------------------------------------------------------
 total energy gain   :        -0.0236121 Eh      -14.8168 kcal/mol
 total RMSD          :         0.2777152 a0        0.1470 Å
 total power (kW/mol):        -3.6466826 (step)   -3.4295 (real)
------------------------------------------------------------------------

 ANCopt (total)                0 d,  0 h,  0 min, 18.077 sec
 optimizer setup                ...        0 min,  0.000 sec (  0.001%)
 model hessian                  ...        0 min,  0.010 sec (  0.057%)
 ANC generation                 ...        0 min,  0.002 sec (  0.011%)
 coordinate transformation      ...        0 min,  0.123 sec (  0.681%)
 single point calculation       ...        0 min, 17.388 sec ( 96.192%)
 optimization log               ...        0 min,  0.003 sec (  0.017%)
 hessian update                 ...        0 min,  0.507 sec (  2.805%)
 rational function              ...        0 min,  0.035 sec (  0.192%)

================
 final structure:
================
34
 xtb: 6.5.0 (97a52f5)
H            1.16964649595826        1.56763780406434        0.39516828769474
N            0.95501158471295        0.76108380032473       -0.20081155667002
C           -0.39922206003424        0.61390510663672       -0.28988943965449
C           -1.10299744151391       -0.68344737358094       -0.15118459780217
C            1.92706394378891       -0.22629470391317       -0.02975016975727
C           -1.16924747926809        1.75067159050002       -0.26843596530340
C           -2.60273780601111        1.88223798870480       -0.29005068251599
N           -1.73048596233739        3.90066972050703        0.11605992920683
C           -0.63679384894142        3.08349626174000        0.02296735456505
C           -2.89604170408865        3.17993075358155       -0.08108753721668
C           -1.37967806051776       -1.14608574609281        1.12970566687724
C           -1.50814409019882       -1.42986519781525       -1.25333320627461
C           -2.05523426127098       -2.34103155515670        1.30312843590112
C           -2.18649091524040       -2.62209704565121       -1.07428705793121
C           -2.45820482985075       -3.08065282625354        0.20427243431639
C            1.76882433840414       -1.57635148347951       -0.33657072355088
C            3.19583395378691        0.22646625015622        0.34925369497971
C            2.83399760168627       -2.44930193026829       -0.20037362155378
C            4.25160592422040       -0.65053684914937        0.48036520912391
C            4.07492182807424       -1.99915654451487        0.21218174087515
H           -1.68255027267665        4.88694361051485        0.30891644813461
O            0.52327339212132        3.41853202320309        0.24631196524207
H           -1.06609949072908       -0.56720759418354        1.98620852550594
H           -1.29190934292344       -1.06672822067628       -2.24755240592896
H           -2.26716169909913       -2.69523903455174        2.30100447779594
H           -2.49940480595572       -3.19641933926646       -1.93380938420559
H           -2.98426830634563       -4.01330343558508        0.34373549837704
H            0.82270813012478       -1.95640800509750       -0.68041062429398
H            3.33373160770252        1.27883393640587        0.55299581517851
H            2.68705743227236       -3.49461428372053       -0.42946506004830
H            5.21958948050663       -0.28086679818893        0.78470520494949
H           -3.29378716210312        1.08442847159691       -0.47658112853895
H           -3.84896185060220        3.67187380186833       -0.04467079194965
H            4.89954967634943       -2.68810416265957        0.31334225447284

 Bond Distances (Angstroems)
 ---------------------------
H1-N2=1.0256         N2-H1=1.0256         N2-C3=1.3651         N2-C5=1.3961         C3-N2=1.3651         C3-C4=1.4825         
C3-C6=1.3732         C4-C3=1.4825         C4-C11=1.3897        C4-C12=1.3914        C5-N2=1.3961         C5-C16=1.3935        
C5-C17=1.3994        C6-C3=1.3732         C6-C7=1.4397         C6-C9=1.4645         C7-C6=1.4397         C7-C10=1.3467        
C7-H32=1.0718        N8-C9=1.3684         N8-C10=1.3845        N8-H21=1.0061        C9-C6=1.4645         C9-N8=1.3684         
C9-O22=1.2280        C10-C7=1.3467        C10-N8=1.3845        C10-H33=1.0730       C11-C4=1.3897        C11-C13=1.3836       
C11-H23=1.0803       C12-C4=1.3914        C12-C14=1.3833       C12-H24=1.0803       C13-C11=1.3836       C13-C15=1.3845       
C13-H25=1.0799       C14-C12=1.3833       C14-C15=1.3852       C14-H26=1.0801       C15-C13=1.3845       C15-C14=1.3852       
C15-H27=1.0798       C16-C5=1.3935        C16-C18=1.3839       C16-H28=1.0760       C17-C5=1.3994        C17-C19=1.3788       
C17-H29=1.0807       C18-C16=1.3839       C18-C20=1.3830       C18-H30=1.0802       C19-C17=1.3788       C19-C20=1.3863       
C19-H31=1.0799       C20-C18=1.3830       C20-C19=1.3863       C20-H34=1.0793       H21-N8=1.0061        O22-C9=1.2280        
H23-C11=1.0803       H24-C12=1.0803       H25-C13=1.0799       H26-C14=1.0801       H27-C15=1.0798       H28-C16=1.0760       
H29-C17=1.0807       H30-C18=1.0802       H31-C19=1.0799       H32-C7=1.0718        H33-C10=1.0730       H34-C20=1.0793       
 C  H  Rav=1.0785 sigma=0.0029  Rmin=1.0718  Rmax=1.0807    12
 C  C  Rav=1.3970 sigma=0.0329  Rmin=1.3467  Rmax=1.4825    17
 N  H  Rav=1.0158 sigma=0.0097  Rmin=1.0061  Rmax=1.0256     2
 N  C  Rav=1.3785 sigma=0.0125  Rmin=1.3651  Rmax=1.3961     4
 O  C  Rav=1.2280 sigma=0.0000  Rmin=1.2280  Rmax=1.2280     1

 selected bond angles (degree)
 --------------------
C3-N2-H1=109.29                C5-N2-H1=109.83                C5-N2-C3=128.50                C4-C3-N2=124.00                
C6-C3-N2=117.78                C6-C3-C4=117.18                C11-C4-C3=118.17               C12-C4-C3=122.25               
C12-C4-C11=119.57              C16-C5-N2=125.39               C17-C5-N2=115.83               C17-C5-C16=118.43              
C7-C6-C3=129.33                C9-C6-C3=123.55                C9-C6-C7=106.37                C10-C7-C6=107.61               
H32-C7-C6=125.21               H32-C7-C10=127.14              C10-N8-C9=110.63               H21-N8-C9=124.08               
H21-N8-C10=125.29              N8-C9-C6=105.45                O22-C9-C6=128.90               O22-C9-N8=125.43               
N8-C10-C7=109.90               H33-C10-C7=129.82              H33-C10-N8=120.27              

 selected dihedral angles (degree)
 ---------------------------------
C4-C3-N2-H1=225.49            C4-C3-N2-C5=  3.02            C6-C3-N2-H1= 33.46            C6-C3-N2-C5=170.99            
C11-C4-C3-N2= 82.87           C11-C4-C3-C6=274.84           C12-C4-C3-N2=261.80           C12-C4-C3-C6= 93.77           
C16-C5-N2-H1=159.26           C16-C5-N2-C3= 21.90           C17-C5-N2-H1=332.25           C17-C5-N2-C3=194.90           
C7-C6-C3-N2=182.86            C7-C6-C3-C4=351.65            C9-C6-C3-N2=351.50            C9-C6-C3-C4=160.30            
C10-C7-C6-C3=172.22           C10-C7-C6-C9=  2.06           H32-C7-C6-C3=350.18           H32-C7-C6-C9=180.03           
N8-C9-C6-C3=187.54            N8-C9-C6-C7=358.41            O22-C9-C6-C3=  2.35           O22-C9-C6-C7=173.22           
C6-C9-N8-C10=  0.58           C6-C9-N8-H21=180.13           O22-C9-N8-C10=185.54          O22-C9-N8-H21=  5.09          
N8-C10-C7-C6=358.24           N8-C10-C7-H32=180.32          H33-C10-C7-C6=178.83          H33-C10-C7-H32=  0.91         
C7-C10-N8-C9=  0.75           C7-C10-N8-H21=181.20          H33-C10-N8-C9=180.23          H33-C10-N8-H21=  0.68         
           -------------------------------------------------
          |                Final Singlepoint                |
           -------------------------------------------------

          ...................................................
          :                      SETUP                      :
          :.................................................:
          :  # basis functions                  94          :
          :  # atomic orbitals                  94          :
          :  # shells                           54          :
          :  # electrons                        98          :
          :  max. iterations                   250          :
          :  Hamiltonian                  GFN2-xTB          :
          :  restarted?                      false          :
          :  GBSA solvation                  false          :
          :  PC potential                    false          :
          :  electronic temp.          300.0000000     K    :
          :  accuracy                    1.0000000          :
          :  -> integral cutoff          0.2500000E+02      :
          :  -> integral neglect         0.1000000E-07      :
          :  -> SCF convergence          0.1000000E-05 Eh   :
          :  -> wf. convergence          0.1000000E-03 e    :
          :  Broyden damping             0.4000000          :
          ...................................................

 iter      E             dE          RMSdq      gap      omega  full diag
   1    -54.3558314 -0.543558E+02  0.528E-05    2.21       0.0  T
   2    -54.3558314 -0.395062E-11  0.337E-05    2.21     508.2  T
   3    -54.3558314  0.104450E-11  0.243E-05    2.21     706.6  T

   *** convergence criteria satisfied after 3 iterations ***

         #    Occupation            Energy/Eh            Energy/eV
      -------------------------------------------------------------
         1        2.0000           -0.6852638             -18.6470
       ...           ...                  ...                  ...
        43        2.0000           -0.4192312             -11.4079
        44        2.0000           -0.4153774             -11.3030
        45        2.0000           -0.4077531             -11.0955
        46        2.0000           -0.4046332             -11.0106
        47        2.0000           -0.3864541             -10.5160
        48        2.0000           -0.3803407             -10.3496
        49        2.0000           -0.3504819              -9.5371 (HOMO)
        50                         -0.2692574              -7.3269 (LUMO)
        51                         -0.2362047              -6.4275
        52                         -0.2344177              -6.3788
        53                         -0.2229740              -6.0674
        54                         -0.2087954              -5.6816
       ...                                ...                  ...
        94                          0.7299990              19.8643
      -------------------------------------------------------------
                  HL-Gap            0.0812244 Eh            2.2102 eV
             Fermi-level           -0.3098697 Eh           -8.4320 eV

 SCC (total)                   0 d,  0 h,  0 min,  0.623 sec
 SCC setup                      ...        0 min,  0.027 sec (  4.256%)
 Dispersion                     ...        0 min,  0.020 sec (  3.237%)
 classical contributions        ...        0 min,  0.014 sec (  2.173%)
 integral evaluation            ...        0 min,  0.031 sec (  4.971%)
 iterations                     ...        0 min,  0.347 sec ( 55.718%)
 molecular gradient             ...        0 min,  0.166 sec ( 26.594%)
 printout                       ...        0 min,  0.019 sec (  3.026%)

         :::::::::::::::::::::::::::::::::::::::::::::::::::::
         ::                     SUMMARY                     ::
         :::::::::::::::::::::::::::::::::::::::::::::::::::::
         :: total energy             -53.433868563082 Eh    ::
         :: gradient norm              0.000541368337 Eh/a0 ::
         :: HOMO-LUMO gap              2.210229741355 eV    ::
         ::.................................................::
         :: SCC energy               -54.355831414377 Eh    ::
         :: -> isotropic ES            0.045794356689 Eh    ::
         :: -> anisotropic ES          0.003213171041 Eh    ::
         :: -> anisotropic XC          0.027728217412 Eh    ::
         :: -> dispersion             -0.039103663185 Eh    ::
         :: repulsion energy           0.921566213011 Eh    ::
         :: add. restraining           0.000086217336 Eh    ::
         :: total charge              -0.000000000000 e     ::
         :::::::::::::::::::::::::::::::::::::::::::::::::::::

           -------------------------------------------------
          |                Property Printout                |
           -------------------------------------------------

    * Orbital Energies and Occupations

         #    Occupation            Energy/Eh            Energy/eV
      -------------------------------------------------------------
         1        2.0000           -0.6852638             -18.6470
       ...           ...                  ...                  ...
        37        2.0000           -0.4600346             -12.5182
        38        2.0000           -0.4567402             -12.4285
        39        2.0000           -0.4373090             -11.8998
        40        2.0000           -0.4365756             -11.8798
        41        2.0000           -0.4335009             -11.7962
        42        2.0000           -0.4260994             -11.5948
        43        2.0000           -0.4192312             -11.4079
        44        2.0000           -0.4153774             -11.3030
        45        2.0000           -0.4077531             -11.0955
        46        2.0000           -0.4046332             -11.0106
        47        2.0000           -0.3864541             -10.5160
        48        2.0000           -0.3803407             -10.3496
        49        2.0000           -0.3504819              -9.5371 (HOMO)
        50                         -0.2692574              -7.3269 (LUMO)
        51                         -0.2362047              -6.4275
        52                         -0.2344177              -6.3788
        53                         -0.2229740              -6.0674
        54                         -0.2087954              -5.6816
        55                         -0.1705395              -4.6406
        56                         -0.1214292              -3.3043
        57                         -0.1060937              -2.8870
        58                         -0.0886449              -2.4122
        59                          0.0303041               0.8246
        60                          0.0402652               1.0957
       ...                                ...                  ...
        94                          0.7299990              19.8643
      -------------------------------------------------------------
                  HL-Gap            0.0812244 Eh            2.2102 eV
             Fermi-level           -0.3098697 Eh           -8.4320 eV

     #   Z          covCN         q      C6AA      α(0)
     1   1 H        0.859     0.224     0.992     1.560
     2   7 N        2.704    -0.135    23.925     7.265
     3   6 C        2.889     0.079    26.227     8.396
     4   6 C        2.981     0.015    27.679     8.630
     5   6 C        2.903     0.067    26.510     8.442
     6   6 C        3.096    -0.069    29.587     8.915
     7   6 C        2.982    -0.070    29.748     8.947
     8   7 N        2.775    -0.146    24.159     7.300
     9   6 C        2.869     0.257    22.687     7.808
    10   6 C        2.987     0.004    27.920     8.668
    11   6 C        2.925    -0.028    28.712     8.787
    12   6 C        2.922    -0.029    28.736     8.791
    13   6 C        2.920    -0.026    28.660     8.779
    14   6 C        2.919    -0.028    28.701     8.785
    15   6 C        2.920    -0.029    28.725     8.789
    16   6 C        2.920    -0.052    29.298     8.876
    17   6 C        2.930    -0.052    29.296     8.876
    18   6 C        2.921    -0.029    28.731     8.790
    19   6 C        2.919    -0.027    28.687     8.783
    20   6 C        2.919    -0.038    28.933     8.821
    21   1 H        0.860     0.170     1.270     1.766
    22   8 O        0.857    -0.477    23.278     6.469
    23   1 H        0.926     0.031     2.566     2.505
    24   1 H        0.926     0.038     2.477     2.461
    25   1 H        0.926     0.036     2.498     2.471
    26   1 H        0.926     0.036     2.504     2.475
    27   1 H        0.926     0.035     2.516     2.480
    28   1 H        0.926     0.037     2.486     2.465
    29   1 H        0.926     0.042     2.424     2.435
    30   1 H        0.926     0.032     2.563     2.504
    31   1 H        0.926     0.035     2.516     2.480
    32   1 H        0.926     0.031     2.574     2.509
    33   1 H        0.926     0.036     2.503     2.474
    34   1 H        0.926     0.032     2.561     2.503

 Mol. C6AA /au·bohr⁶  :      15834.806451
 Mol. C8AA /au·bohr⁸  :     391493.730512
 Mol. α(0) /au        :        202.004758


Wiberg/Mayer (AO) data.
largest (>0.10) Wiberg bond orders for each atom

 ---------------------------------------------------------------------------
     #   Z sym  total        # sym  WBO       # sym  WBO       # sym  WBO
 ---------------------------------------------------------------------------
     1   1 H    0.949 --     2 N    0.877
     2   7 N    3.487 --     3 C    1.220     5 C    1.096     1 H    0.877
     3   6 C    3.969 --     6 C    1.479     2 N    1.220     4 C    1.001
     4   6 C    3.988 --    11 C    1.399    12 C    1.398     3 C    1.001
                            15 C    0.111
     5   6 C    3.966 --    16 C    1.369    17 C    1.348     2 N    1.096
     6   6 C    3.962 --     3 C    1.479     7 C    1.158     9 C    1.062
     7   6 C    3.978 --    10 C    1.694     6 C    1.158    32 H    0.972
     8   7 N    3.511 --     9 C    1.174    10 C    1.129    21 H    0.942
                            22 O    0.142
     9   6 C    3.947 --    22 O    1.584     8 N    1.174     6 C    1.062
    10   6 C    3.939 --     7 C    1.694     8 N    1.129    33 H    0.970
    11   6 C    3.991 --    13 C    1.442     4 C    1.399    23 H    0.971
                            14 C    0.111
    12   6 C    3.989 --    14 C    1.446     4 C    1.398    24 H    0.970
                            13 C    0.111
    13   6 C    3.991 --    11 C    1.442    15 C    1.440    25 H    0.970
                            12 C    0.111
    14   6 C    3.991 --    12 C    1.446    15 C    1.436    26 H    0.970
                            11 C    0.111
    15   6 C    3.991 --    13 C    1.440    14 C    1.436    27 H    0.971
                             4 C    0.111
    16   6 C    3.985 --    18 C    1.447     5 C    1.369    28 H    0.960
                            19 C    0.103
    17   6 C    3.984 --    19 C    1.471     5 C    1.348    29 H    0.966
                            18 C    0.106
    18   6 C    3.992 --    16 C    1.447    20 C    1.439    30 H    0.971
                            17 C    0.106
    19   6 C    3.991 --    17 C    1.471    20 C    1.419    31 H    0.971
                            16 C    0.103
    20   6 C    3.971 --    18 C    1.439    19 C    1.419    34 H    0.972
    21   1 H    0.970 --     8 N    0.942
    22   8 O    1.975 --     9 C    1.584     8 N    0.142
    23   1 H    0.999 --    11 C    0.971
    24   1 H    0.998 --    12 C    0.970
    25   1 H    0.998 --    13 C    0.970
    26   1 H    0.998 --    14 C    0.970
    27   1 H    0.998 --    15 C    0.971
    28   1 H    0.999 --    16 C    0.960
    29   1 H    0.998 --    17 C    0.966
    30   1 H    0.999 --    18 C    0.971
    31   1 H    0.998 --    19 C    0.971
    32   1 H    0.999 --     7 C    0.972
    33   1 H    0.998 --    10 C    0.970
    34   1 H    0.999 --    20 C    0.972
 ---------------------------------------------------------------------------

Topologies differ in total number of bonds
Writing topology from bond orders to xtbtopo.mol

molecular dipole:
                 x           y           z       tot (Debye)
 q only:       -0.621      -0.905       0.073
   full:       -0.895      -0.716       0.228       2.969
molecular quadrupole (traceless):
                xx          xy          yy          xz          yz          zz
 q only:        3.895      -6.642      -2.786       0.568       0.430      -1.110
  q+dip:        1.069      -7.605       3.519       1.861       2.740      -4.588
   full:        1.499      -8.991       0.755       0.907       1.603      -2.255

           -------------------------------------------------
          |                Geometry Summary                 |
           -------------------------------------------------

      molecular mass/u    :      262.3064921
   center of mass at/Å    :       -0.0282579       0.0867850       0.0025034
  moments of inertia/u·Å² :        0.1154438E+04   0.1689264E+04   0.2646165E+04
rotational constants/cm⁻¹ :        0.1460245E-01   0.9979275E-02   0.6370589E-02

 * 34 selected distances

     #   Z          #   Z                                           value/Å
     1   1 H        2   7 N                                       1.0255680
     2   7 N        3   6 C                                       1.3651174
     2   7 N        5   6 C                                       1.3960890
     3   6 C        6   6 C                                       1.3731853
     6   6 C        7   6 C                                       1.4396777 (max)
     8   7 N        9   6 C                                       1.3684303
     7   6 C       10   6 C                                       1.3467367
     8   7 N       10   6 C                                       1.3845044
     4   6 C       11   6 C                                       1.3897002
     4   6 C       12   6 C                                       1.3914077
    11   6 C       13   6 C                                       1.3835995
    12   6 C       14   6 C                                       1.3833398
    13   6 C       15   6 C                                       1.3845251
    14   6 C       15   6 C                                       1.3852136
     5   6 C       16   6 C                                       1.3934964
     5   6 C       17   6 C                                       1.3994335
    16   6 C       18   6 C                                       1.3839027
    17   6 C       19   6 C                                       1.3787601
    18   6 C       20   6 C                                       1.3830134
    19   6 C       20   6 C                                       1.3863315
     8   7 N       21   1 H                                       1.0060953 (min)
     9   6 C       22   8 O                                       1.2279609
    11   6 C       23   1 H                                       1.0802911
    12   6 C       24   1 H                                       1.0803231
    13   6 C       25   1 H                                       1.0798764
    14   6 C       26   1 H                                       1.0800648
    15   6 C       27   1 H                                       1.0798287
    16   6 C       28   1 H                                       1.0760134
    17   6 C       29   1 H                                       1.0807426
    18   6 C       30   1 H                                       1.0801632
    19   6 C       31   1 H                                       1.0799404
     7   6 C       32   1 H                                       1.0718410
    10   6 C       33   1 H                                       1.0730290
    20   6 C       34   1 H                                       1.0793024

 * 5 distinct bonds (by element types)

   Z      Z             #   av. dist./Å        max./Å        min./Å
   1 H    6 C          12     1.0784513     1.0807426     1.0718410
   6 C    6 C          15     1.3868215     1.4396777     1.3467367
   1 H    7 N           2     1.0158317     1.0255680     1.0060953
   6 C    7 N           4     1.3785353     1.3960890     1.3651174
   6 C    8 O           1     1.2279609     1.2279609     1.2279609


optimized geometry written to: xtbopt.xyz


           -------------------------------------------------
          | TOTAL ENERGY              -53.433868563082 Eh   |
          | GRADIENT NORM               0.000541368337 Eh/α |
          | HOMO-LUMO GAP               2.210229741355 eV   |
           -------------------------------------------------
########################################################################
[WARNING] Runtime exception occurred
-1- restart_readRestart: Number of electron missmatch in restart file.
########################################################################

------------------------------------------------------------------------
 * finished run on 2023/11/18 at 09:06:56.703     
------------------------------------------------------------------------
 total:
 * wall-time:     0 d,  0 h,  0 min, 20.327 sec
 *  cpu-time:     0 d,  0 h, 17 min, 43.114 sec
 * ratio c/w:    52.301 speedup
 SCF:
 * wall-time:     0 d,  0 h,  0 min,  1.482 sec
 *  cpu-time:     0 d,  0 h,  1 min, 16.366 sec
 * ratio c/w:    51.536 speedup
 ANC optimizer:
 * wall-time:     0 d,  0 h,  0 min, 18.709 sec
 *  cpu-time:     0 d,  0 h, 16 min, 19.778 sec
 * ratio c/w:    52.369 speedup

