
    -----------------------------------------------------------------------
          Psi4: An Open-Source Ab Initio Electronic Structure Package
                               Psi4 1.6 release

                         Git: Rev {HEAD} 77475b5 


    D. G. A. Smith, L. A. Burns, A. C. Simmonett, R. M. Parrish,
    M. C. Schieber, R. Galvelis, P. Kraus, H. Kruse, R. Di Remigio,
    A. Alenaizan, A. M. James, S. Lehtola, J. P. Misiewicz, M. Scheurer,
    R. A. Shaw, J. B. Schriber, Y. Xie, Z. L. Glick, D. A. Sirianni,
    J. S. O'Brien, J. M. Waldrop, A. Kumar, E. G. Hohenstein,
    B. P. Pritchard, B. R. Brooks, H. F. Schaefer III, A. Yu. Sokolov,
    K. Patkowski, A. E. DePrince III, U. Bozkaya, R. A. King,
    F. A. Evangelista, J. M. Turney, T. D. Crawford, C. D. Sherrill,
    J. Chem. Phys. 152(18) 184108 (2020). https://doi.org/10.1063/5.0006002

                            Additional Code Authors
    E. T. Seidl, C. L. Janssen, E. F. Valeev, M. L. Leininger,
    J. F. Gonthier, R. M. Richard, H. R. McAlexander, M. Saitow, X. Wang,
    P. Verma, M. H. Lechner, and A. Jiang

             Previous Authors, Complete List of Code Contributors,
                       and Citations for Specific Modules
    https://github.com/psi4/psi4/blob/master/codemeta.json
    https://github.com/psi4/psi4/graphs/contributors
    http://psicode.org/psi4manual/master/introduction.html#citing-psifour

    -----------------------------------------------------------------------


    Psi4 started on: Saturday, 18 November 2023 09:12AM

    Process ID: 1139945
    Host:       node165.bme.utexas.edu
    PSIDATADIR: /home/liuchw/anaconda3/envs/poltype2022/share/psi4
    Memory:     500.0 MiB
    Threads:    1
    
  ==> Input File <==

--------------------------------------------------------------------------
molecule { 
0 1
 H    1.076364    1.011640   -1.213918
 N    0.854497    0.151218   -0.706454
 C   -0.446681    0.206093   -0.231053
 C   -1.321748   -0.988347   -0.365828
 C    1.992729   -0.298004   -0.042527
 C   -1.034452    1.418479   -0.014143
 C   -2.338591    1.713851    0.524961
 N   -1.255276    3.652961    0.245691
 C   -0.354664    2.714206   -0.181589
 C   -2.422498    3.047805    0.680395
 C   -1.365468   -2.073190    0.499246
 C   -2.188463   -0.969753   -1.458660
 C   -2.235759   -3.124803    0.266506
 C   -3.050477   -2.023711   -1.693611
 C   -3.075944   -3.107554   -0.831912
 C    1.951264   -1.028723    1.140675
 C    3.236215    0.026385   -0.588524
 C    3.122268   -1.458031    1.737816
 C    4.399535   -0.405408    0.013626
 C    4.350384   -1.159343    1.175952
 H   -1.073971    4.642565    0.258823
 O    0.748280    2.951485   -0.653876
 H   -0.738146   -2.102150    1.375876
 H   -2.172780   -0.124084   -2.130245
 H   -2.258168   -3.959250    0.951976
 H   -3.708502   -1.995438   -2.549574
 H   -3.751976   -3.929932   -1.012570
 H    1.004326   -1.229618    1.613039
 H    3.276825    0.623522   -1.487650
 H    3.071123   -2.022343    2.657832
 H    5.353257   -0.145841   -0.421886
 H   -3.080402    0.982421    0.775926
 H   -3.221477    3.641781    1.081416
 H    5.261770   -1.495888    1.646323
}
memory 20GB
set_num_threads(5)
psi4_io.set_default_path("/scratch/liuchw/Psi4-1_7_Index_0-farH_in17")
set freeze_core True
E, wfn = energy('wb97x-d/6-311+G*',return_wfn=True)
oeprop(wfn,"WIBERG_LOWDIN_INDICES")
clean()
--------------------------------------------------------------------------

  Memory set to  18.626 GiB by Python driver.
  Threads set to 5 by Python driver.

Scratch directory: /scratch/liuchw/Psi4-1_7_Index_0-farH_in17/

*** tstart() called on node165.bme.utexas.edu
*** at Sat Nov 18 09:12:34 2023

   => Loading Basis Set <=

    Name: 6-311+G*
    Role: ORBITAL
    Keyword: BASIS
    atoms 1, 21, 23-34 entry H          line    47 file /home/liuchw/anaconda3/envs/poltype2022/share/psi4/basis/6-311pgs.gbs 
    atoms 2, 8         entry N          line   151 file /home/liuchw/anaconda3/envs/poltype2022/share/psi4/basis/6-311pgs.gbs 
    atoms 3-7, 9-20    entry C          line   130 file /home/liuchw/anaconda3/envs/poltype2022/share/psi4/basis/6-311pgs.gbs 
    atoms 22           entry O          line   172 file /home/liuchw/anaconda3/envs/poltype2022/share/psi4/basis/6-311pgs.gbs 

   => WB97X-D: Empirical Dispersion <=

    Chai and Head-Gordon Dispersion Correction
    Chai, J.-D.; Head-Gordon, M. (2010), J. Chem. Phys., 132: 6615-6620

        s6 =       1.000000


         ---------------------------------------------------------
                                   SCF
               by Justin Turney, Rob Parrish, Andy Simmonett
                          and Daniel G. A. Smith
                              RKS Reference
                        5 Threads,  19073 MiB Core
         ---------------------------------------------------------

  ==> Geometry <==

    Molecular point group: c1
    Full point group: C1

    Geometry (in Angstrom), charge = 0, multiplicity = 1:

       Center              X                  Y                   Z               Mass       
    ------------   -----------------  -----------------  -----------------  -----------------
         H            1.091628342094     0.995585684494    -1.184245914107     1.007825032230
         N            0.869761342094     0.135163684494    -0.676781914107    14.003074004430
         C           -0.431416657906     0.190038684494    -0.201380914107    12.000000000000
         C           -1.306483657906    -1.004401315506    -0.336155914107    12.000000000000
         C            2.007993342094    -0.314058315506    -0.012854914107    12.000000000000
         C           -1.019187657906     1.402424684494     0.015529085893    12.000000000000
         C           -2.323326657906     1.697796684494     0.554633085893    12.000000000000
         N           -1.240011657906     3.636906684494     0.275363085893    14.003074004430
         C           -0.339399657906     2.698151684494    -0.151916914107    12.000000000000
         C           -2.407233657906     3.031750684494     0.710067085893    12.000000000000
         C           -1.350203657906    -2.089244315506     0.528918085893    12.000000000000
         C           -2.173198657906    -0.985807315506    -1.428987914107    12.000000000000
         C           -2.220494657906    -3.140857315506     0.296178085893    12.000000000000
         C           -3.035212657906    -2.039765315506    -1.663938914107    12.000000000000
         C           -3.060679657906    -3.123608315506    -0.802239914107    12.000000000000
         C            1.966528342094    -1.044777315506     1.170347085893    12.000000000000
         C            3.251479342094     0.010330684494    -0.558851914107    12.000000000000
         C            3.137532342094    -1.474085315506     1.767488085893    12.000000000000
         C            4.414799342094    -0.421462315506     0.043298085893    12.000000000000
         C            4.365648342094    -1.175397315506     1.205624085893    12.000000000000
         H           -1.058706657906     4.626510684494     0.288495085893     1.007825032230
         O            0.763544342094     2.935430684494    -0.624203914107    15.994914619570
         H           -0.722881657906    -2.118204315506     1.405548085893     1.007825032230
         H           -2.157515657906    -0.140138315506    -2.100572914107     1.007825032230
         H           -2.242903657906    -3.975304315506     0.981648085893     1.007825032230
         H           -3.693237657906    -2.011492315506    -2.519901914107     1.007825032230
         H           -3.736711657906    -3.945986315506    -0.982897914107     1.007825032230
         H            1.019590342094    -1.245672315506     1.642711085893     1.007825032230
         H            3.292089342094     0.607467684494    -1.457977914107     1.007825032230
         H            3.086387342094    -2.038397315506     2.687504085893     1.007825032230
         H            5.368521342094    -0.161895315506    -0.392213914107     1.007825032230
         H           -3.065137657906     0.966366684494     0.805598085893     1.007825032230
         H           -3.206212657906     3.625726684494     1.111088085893     1.007825032230
         H            5.277034342094    -1.511942315506     1.675995085893     1.007825032230

  Running in c1 symmetry.

  Rotational constants: A =      0.01344  B =      0.00981  C =      0.00640 [cm^-1]
  Rotational constants: A =    402.93760  B =    294.15327  C =    191.76640 [MHz]
  Nuclear repulsion = 1421.406641058016476

  Charge       = 0
  Multiplicity = 1
  Electrons    = 138
  Nalpha       = 69
  Nbeta        = 69

  ==> Algorithm <==

  SCF Algorithm Type is DF.
  DIIS enabled.
  MOM disabled.
  Fractional occupation disabled.
  Guess Type is SAD.
  Energy threshold   = 1.00e-06
  Density threshold  = 1.00e-06
  Integral threshold = 1.00e-12

  ==> Primary Basis <==

  Basis Set: 6-311+G*
    Blend: 6-311+G*
    Number of shells: 242
    Number of basis functions: 482
    Number of Cartesian functions: 502
    Spherical Harmonics?: true
    Max angular momentum: 2

  ==> DFT Potential <==

   => LibXC <=

    Version 5.1.5
    S. Lehtola, C. Steigemann, M. J. Oliveira, and M. A. Marques, SoftwareX 7, 1 (2018) (10.1016/j.softx.2017.11.002)

   => Composite Functional: WB97X-D <= 

    wB97X-D Hyb-GGA Exchange-Correlation Functional

    J.-D. Chai and M. Head-Gordon, Phys. Chem. Chem. Phys. 10, 6615 (2008) (10.1039/B810189B)

    Deriv               =              1
    GGA                 =           TRUE
    Meta                =          FALSE

    Exchange Hybrid     =           TRUE
    MP2 Hybrid          =          FALSE

   => Exchange-Correlation Functionals <=

    1.0000   wB97X-D range-separated functional

   => Exact (HF) Exchange <=

    0.7780            HF,LR [omega = 0.2000]
    0.2220               HF 

   => LibXC Density Thresholds  <==

    XC_HYB_GGA_XC_WB97X_D:  1.00E-14 

   => Molecular Quadrature <=

    Radial Scheme          =       TREUTLER
    Pruning Scheme         =           NONE
    Nuclear Scheme         =       TREUTLER

    Blocking Scheme        =         OCTREE
    BS radius alpha        =              1
    Pruning alpha          =              1
    Radial Points          =             75
    Spherical Points       =            302
    Total Points           =         704707
    Total Blocks           =           5031
    Max Points             =            256
    Max Functions          =            384
    Weights Tolerance      =       1.00E-15

   => Loading Basis Set <=

    Name: (6-311+G* AUX)
    Role: JKFIT
    Keyword: DF_BASIS_SCF
    atoms 1, 21, 23-34 entry H          line   116 file /home/liuchw/anaconda3/envs/poltype2022/share/psi4/basis/heavy-aug-cc-pvtz-jkfit.gbs 
    atoms 2, 8         entry N          line   262 file /home/liuchw/anaconda3/envs/poltype2022/share/psi4/basis/heavy-aug-cc-pvtz-jkfit.gbs 
    atoms 3-7, 9-20    entry C          line   200 file /home/liuchw/anaconda3/envs/poltype2022/share/psi4/basis/heavy-aug-cc-pvtz-jkfit.gbs 
    atoms 22           entry O          line   324 file /home/liuchw/anaconda3/envs/poltype2022/share/psi4/basis/heavy-aug-cc-pvtz-jkfit.gbs 

  ==> Integral Setup <==

  DFHelper Memory: AOs need 10.742 GiB; user supplied 10.742 GiB. Using in-core AOs.

  ==> MemDFJK: Density-Fitted J/K Matrices <==

    J tasked:                   Yes
    K tasked:                   Yes
    wK tasked:                  Yes
    Omega:                2.000E-01
    OpenMP threads:               5
    Memory [MiB]:             10999
    Algorithm:                 Core
    Schwarz Cutoff:           1E-12
    Mask sparsity (%):      18.0395
    Fitting Condition:        1E-10

   => Auxiliary Basis Set <=

  Basis Set: (6-311+G* AUX)
    Blend: HEAVY-AUG-CC-PVTZ-JKFIT
    Number of shells: 740
    Number of basis functions: 2500
    Number of Cartesian functions: 3110
    Spherical Harmonics?: true
    Max angular momentum: 4

  Cached 50.0% of DFT collocation blocks in 2.734 [GiB].

  Minimum eigenvalue in the overlap matrix is 3.7159127061E-07.
  Reciprocal condition number of the overlap matrix is 2.2137634912E-08.
    Using symmetric orthogonalization.

  ==> Pre-Iterations <==

  SCF Guess: Superposition of Atomic Densities via on-the-fly atomic UHF (no occupation information).

   -------------------------
    Irrep   Nso     Nmo    
   -------------------------
     A        482     482 
   -------------------------
    Total     482     482
   -------------------------

  ==> Iterations <==

                           Total Energy        Delta E     RMS |[F,P]|

   @DF-RKS iter SAD:  -840.64187429260210   -8.40642e+02   0.00000e+00 
   @DF-RKS iter   1:  -839.99787273175184    6.44002e-01   2.69902e-03 ADIIS/DIIS
   @DF-RKS iter   2:  -840.37978289920170   -3.81910e-01   2.13103e-03 ADIIS/DIIS
   @DF-RKS iter   3:  -840.83334468048349   -4.53562e-01   3.47989e-04 ADIIS/DIIS
   @DF-RKS iter   4:  -840.84170065167166   -8.35597e-03   1.75329e-04 ADIIS/DIIS
   @DF-RKS iter   5:  -840.84438936906372   -2.68872e-03   3.84494e-05 DIIS
   @DF-RKS iter   6:  -840.84453537474133   -1.46006e-04   1.15442e-05 DIIS
   @DF-RKS iter   7:  -840.84455204421556   -1.66695e-05   2.99136e-06 DIIS
   @DF-RKS iter   8:  -840.84455379946041   -1.75524e-06   1.53557e-06 DIIS
   @DF-RKS iter   9:  -840.84455437760607   -5.78146e-07   5.33400e-07 DIIS
  Energy and wave function converged.


  ==> Post-Iterations <==

   Electrons on quadrature grid:
      Ntotal   =  137.9999510653 ; deviation = -4.893e-05 

    Orbital Energies [Eh]
    ---------------------

    Doubly Occupied:                                                      

       1A    -19.222926     2A    -14.475748     3A    -14.452540  
       4A    -10.392998     5A    -10.359086     6A    -10.332286  
       7A    -10.330348     8A    -10.311951     9A    -10.300017  
      10A    -10.299776    11A    -10.298164    12A    -10.297053  
      13A    -10.296517    14A    -10.296081    15A    -10.285202  
      16A    -10.283296    17A    -10.282268    18A    -10.279606  
      19A    -10.278113    20A    -10.273557    21A     -1.155519  
      22A     -1.073926    23A     -1.064330    24A     -0.981142  
      25A     -0.955917    26A     -0.917747    27A     -0.877467  
      28A     -0.862484    29A     -0.848461    30A     -0.846657  
      31A     -0.819300    32A     -0.775056    33A     -0.721024  
      34A     -0.717295    35A     -0.708282    36A     -0.702310  
      37A     -0.687610    38A     -0.657553    39A     -0.635055  
      40A     -0.615066    41A     -0.610199    42A     -0.586082  
      43A     -0.576120    44A     -0.559837    45A     -0.556484  
      46A     -0.540982    47A     -0.535314    48A     -0.528997  
      49A     -0.525938    50A     -0.520695    51A     -0.513295  
      52A     -0.511033    53A     -0.506046    54A     -0.496559  
      55A     -0.476732    56A     -0.470227    57A     -0.446385  
      58A     -0.443620    59A     -0.438293    60A     -0.427480  
      61A     -0.423894    62A     -0.414480    63A     -0.369300  
      64A     -0.351661    65A     -0.343408    66A     -0.341794  
      67A     -0.328588    68A     -0.299191    69A     -0.269455  

    Virtual:                                                              

      70A     -0.009318    71A      0.044127    72A      0.045786  
      73A      0.053744    74A      0.059211    75A      0.063204  
      76A      0.068055    77A      0.072193    78A      0.076605  
      79A      0.078986    80A      0.082702    81A      0.086190  
      82A      0.094015    83A      0.098935    84A      0.101860  
      85A      0.104611    86A      0.106074    87A      0.108160  
      88A      0.117936    89A      0.120598    90A      0.124839  
      91A      0.129695    92A      0.133421    93A      0.138118  
      94A      0.145064    95A      0.146686    96A      0.151577  
      97A      0.158358    98A      0.161204    99A      0.166207  
     100A      0.169880   101A      0.174054   102A      0.180767  
     103A      0.182748   104A      0.185578   105A      0.193597  
     106A      0.194705   107A      0.197453   108A      0.201651  
     109A      0.203706   110A      0.206017   111A      0.209283  
     112A      0.211432   113A      0.213641   114A      0.216031  
     115A      0.220773   116A      0.226077   117A      0.227902  
     118A      0.231724   119A      0.235136   120A      0.239321  
     121A      0.242589   122A      0.245680   123A      0.248745  
     124A      0.250991   125A      0.256092   126A      0.257137  
     127A      0.260851   128A      0.264315   129A      0.266599  
     130A      0.268621   131A      0.270525   132A      0.272432  
     133A      0.275910   134A      0.281104   135A      0.283097  
     136A      0.283640   137A      0.287290   138A      0.290791  
     139A      0.291669   140A      0.295249   141A      0.298625  
     142A      0.300471   143A      0.303984   144A      0.308430  
     145A      0.309946   146A      0.314417   147A      0.316259  
     148A      0.321190   149A      0.323996   150A      0.326511  
     151A      0.334682   152A      0.336243   153A      0.342577  
     154A      0.343561   155A      0.347462   156A      0.350539  
     157A      0.355558   158A      0.359343   159A      0.361326  
     160A      0.369064   161A      0.370201   162A      0.375972  
     163A      0.382735   164A      0.384904   165A      0.388781  
     166A      0.391424   167A      0.396580   168A      0.405215  
     169A      0.408753   170A      0.411408   171A      0.415749  
     172A      0.421424   173A      0.425609   174A      0.429534  
     175A      0.432959   176A      0.437533   177A      0.446036  
     178A      0.449813   179A      0.454780   180A      0.463168  
     181A      0.466719   182A      0.473587   183A      0.486952  
     184A      0.494784   185A      0.500791   186A      0.519138  
     187A      0.533868   188A      0.545348   189A      0.549108  
     190A      0.577636   191A      0.584842   192A      0.598890  
     193A      0.608256   194A      0.609558   195A      0.616684  
     196A      0.623071   197A      0.627602   198A      0.631389  
     199A      0.633511   200A      0.636915   201A      0.642695  
     202A      0.647160   203A      0.649510   204A      0.662596  
     205A      0.667410   206A      0.676694   207A      0.679519  
     208A      0.684673   209A      0.693155   210A      0.696817  
     211A      0.703719   212A      0.710392   213A      0.715569  
     214A      0.729320   215A      0.733665   216A      0.740811  
     217A      0.744294   218A      0.751169   219A      0.753832  
     220A      0.756983   221A      0.772361   222A      0.778997  
     223A      0.781975   224A      0.788164   225A      0.793027  
     226A      0.795201   227A      0.799989   228A      0.805402  
     229A      0.812519   230A      0.821183   231A      0.826579  
     232A      0.831355   233A      0.837485   234A      0.839617  
     235A      0.845087   236A      0.849080   237A      0.854314  
     238A      0.862953   239A      0.866081   240A      0.878251  
     241A      0.882677   242A      0.899491   243A      0.904769  
     244A      0.908840   245A      0.919213   246A      0.920761  
     247A      0.929520   248A      0.933868   249A      0.937376  
     250A      0.941671   251A      0.944252   252A      0.947434  
     253A      0.956647   254A      0.961518   255A      0.963540  
     256A      0.977686   257A      0.990164   258A      0.995363  
     259A      1.009094   260A      1.017190   261A      1.021941  
     262A      1.025781   263A      1.036959   264A      1.060141  
     265A      1.063013   266A      1.065159   267A      1.079656  
     268A      1.086190   269A      1.092819   270A      1.098852  
     271A      1.103244   272A      1.111037   273A      1.125591  
     274A      1.135835   275A      1.140926   276A      1.158892  
     277A      1.181894   278A      1.185461   279A      1.199130  
     280A      1.206491   281A      1.210506   282A      1.243150  
     283A      1.243713   284A      1.247622   285A      1.268085  
     286A      1.276327   287A      1.292970   288A      1.301321  
     289A      1.306477   290A      1.316783   291A      1.323458  
     292A      1.339029   293A      1.346745   294A      1.352513  
     295A      1.358119   296A      1.372747   297A      1.400023  
     298A      1.404306   299A      1.407009   300A      1.430267  
     301A      1.442001   302A      1.455059   303A      1.482047  
     304A      1.517537   305A      1.557870   306A      1.583357  
     307A      1.592593   308A      1.604413   309A      1.620908  
     310A      1.632166   311A      1.634687   312A      1.653521  
     313A      1.668666   314A      1.677667   315A      1.691960  
     316A      1.710551   317A      1.715718   318A      1.740644  
     319A      1.765366   320A      1.808856   321A      1.835594  
     322A      1.849722   323A      1.858473   324A      1.865878  
     325A      1.871915   326A      1.880948   327A      1.883776  
     328A      1.892911   329A      1.897324   330A      1.909644  
     331A      1.927078   332A      1.930692   333A      1.937845  
     334A      1.947043   335A      1.952907   336A      1.960467  
     337A      1.987686   338A      2.002200   339A      2.012089  
     340A      2.016037   341A      2.034236   342A      2.035935  
     343A      2.040761   344A      2.049005   345A      2.064052  
     346A      2.065541   347A      2.085979   348A      2.093630  
     349A      2.104119   350A      2.112398   351A      2.121195  
     352A      2.162334   353A      2.187192   354A      2.211284  
     355A      2.257857   356A      2.277839   357A      2.290208  
     358A      2.326828   359A      2.336116   360A      2.340360  
     361A      2.360209   362A      2.369038   363A      2.398434  
     364A      2.399802   365A      2.410450   366A      2.413370  
     367A      2.425318   368A      2.440249   369A      2.443081  
     370A      2.467514   371A      2.487483   372A      2.504874  
     373A      2.515243   374A      2.522115   375A      2.536805  
     376A      2.544601   377A      2.562234   378A      2.594686  
     379A      2.639539   380A      2.661334   381A      2.708734  
     382A      2.752758   383A      2.764515   384A      2.793346  
     385A      2.796437   386A      2.798806   387A      2.818178  
     388A      2.826798   389A      2.848826   390A      2.868514  
     391A      2.890503   392A      2.898767   393A      2.904275  
     394A      2.920554   395A      2.930974   396A      2.956747  
     397A      2.963990   398A      2.983596   399A      2.997766  
     400A      3.003797   401A      3.010467   402A      3.030406  
     403A      3.041778   404A      3.058361   405A      3.073887  
     406A      3.086157   407A      3.095300   408A      3.116916  
     409A      3.149133   410A      3.192428   411A      3.205043  
     412A      3.223782   413A      3.240794   414A      3.282633  
     415A      3.298022   416A      3.322460   417A      3.338533  
     418A      3.410176   419A      3.417112   420A      3.421900  
     421A      3.432674   422A      3.440468   423A      3.446151  
     424A      3.450987   425A      3.457461   426A      3.464709  
     427A      3.471407   428A      3.488651   429A      3.498177  
     430A      3.533136   431A      3.563186   432A      3.577038  
     433A      3.631334   434A      3.640681   435A      3.663999  
     436A      3.687517   437A      3.716631   438A      3.748978  
     439A      3.776842   440A      3.785435   441A      3.802965  
     442A      3.886781   443A      3.898748   444A      3.984709  
     445A      4.005916   446A      4.068862   447A      4.132962  
     448A      4.154576   449A      4.160926   450A      4.191028  
     451A      4.259852   452A      4.345197   453A      4.476580  
     454A      4.630439   455A      4.666989   456A      4.901302  
     457A      4.918163   458A      5.137332   459A      5.201056  
     460A      5.214165   461A      5.391106   462A      5.917782  
     463A     23.499282   464A     23.525043   465A     23.706652  
     466A     23.938064   467A     23.997024   468A     24.015651  
     469A     24.043760   470A     24.048640   471A     24.061207  
     472A     24.174575   473A     24.196091   474A     24.208302  
     475A     24.229114   476A     24.272733   477A     24.299148  
     478A     24.327809   479A     24.331918   480A     35.655852  
     481A     35.755132   482A     50.201531  

    Final Occupation by Irrep:
              A 
    DOCC [    69 ]

  @DF-RKS Final Energy:  -840.84455437760607

   => Energetics <=

    Nuclear Repulsion Energy =           1421.4066410580164757
    One-Electron Energy =               -3961.4828127108421540
    Two-Electron Energy =                1782.0348167140136866
    DFT Exchange-Correlation Energy =     -82.7794444218327357
    Empirical Dispersion Energy =          -0.0237550169612398
    VV10 Nonlocal Energy =                  0.0000000000000000
    Total Energy =                       -840.8445543776061868

Computation Completed


Properties will be evaluated at   0.000000,   0.000000,   0.000000 [a0]

Properties computed using the SCF density matrix


 Multipole Moments:

 ------------------------------------------------------------------------------------
     Multipole            Electronic (a.u.)      Nuclear  (a.u.)        Total (a.u.)
 ------------------------------------------------------------------------------------

 L = 1.  Multiply by 2.5417464519 to convert [e a0] to [Debye]
 Dipole X            :         -0.6520491           -0.6965356           -1.3485847
 Dipole Y            :          5.9977904           -5.9285727            0.0692177
 Dipole Z            :         -1.4804271            1.8363354            0.3559083
 Magnitude           :                                                    1.3964750

 ------------------------------------------------------------------------------------

*** tstop() called on node165.bme.utexas.edu at Sat Nov 18 09:13:33 2023
Module time:
	user time   =     273.26 seconds =       4.55 minutes
	system time =       6.09 seconds =       0.10 minutes
	total time  =         59 seconds =       0.98 minutes
Total time:
	user time   =     273.26 seconds =       4.55 minutes
	system time =       6.09 seconds =       0.10 minutes
	total time  =         59 seconds =       0.98 minutes


Properties will be evaluated at   0.000000,   0.000000,   0.000000 [a0]
OEProp: No title given, name of density matrix used for the following properties is 'SCF density'


  Wiberg Bond Indices using Orthogonal Lowdin Orbitals:

  Irrep: 1 Size: 34 x 34

                 1                   2                   3                   4                   5

    1     0.00000000000000     0.75212745909268     0.04150368335344     0.00688587312748     0.04194820406963
    2     0.75212745909268     0.00000000000000     1.26240726830593     0.10480187593976     1.23309651267835
    3     0.04150368335344     1.26240726830593     0.00000000000000     0.99632125204826     0.10045424689640
    4     0.00688587312748     0.10480187593976     0.99632125204826     0.00000000000000     0.01840651337767
    5     0.04194820406963     1.23309651267835     0.10045424689640     0.01840651337767     0.00000000000000
    6     0.01566323116895     0.15555366111745     1.54487010968377     0.12800395617560     0.03353425230165
    7     0.00112018160077     0.01784065630018     0.11581826820221     0.03961831198681     0.00284324345585
    8     0.00084021983193     0.00414231070842     0.01704621261484     0.00288748371239     0.00102241545566
    9     0.00952663229260     0.05014677458299     0.13241993950066     0.01564960044807     0.01026088335075
   10     0.00096725148387     0.01715202756275     0.08859935594142     0.00791438034381     0.00473915921454
   11     0.00087376712422     0.02589478821888     0.11303504368561     1.42684362031127     0.01010661797260
   12     0.00089689633378     0.02939207117901     0.12919341170716     1.39708550165289     0.00387958357506
   13     0.00015146449688     0.00251934201560     0.01616798195516     0.13744513701698     0.00107992489920
   14     0.00014873586742     0.00304865723991     0.01718368902706     0.13364211514497     0.00065064684662
   15     0.00014266120252     0.00469896760572     0.01028579805415     0.13789983571485     0.00067299795527
   16     0.00947298940975     0.13398523113649     0.03932139445086     0.01571194118343     1.39296966072738
   17     0.01646062579423     0.14685365364843     0.02370763904538     0.00325242279360     1.37847416592859
   18     0.00091643979108     0.01781105758721     0.00425081167483     0.00147806206843     0.13693291849126
   19     0.00151716718382     0.01998122091933     0.00348121839016     0.00086466082776     0.13679856469439
   20     0.00180056058620     0.02238029934904     0.00490721423620     0.00106939907241     0.13003026098619
   21     0.00009836842116     0.00025468218590     0.00160394776222     0.00048004191820     0.00007151343191
   22     0.03733221834567     0.08086983875130     0.08710303666366     0.00540715218810     0.01658573474601
   23     0.00005550211404     0.00159588274558     0.01542146208279     0.05621156467152     0.00291317222163
   24     0.00013723480800     0.00214287921935     0.02009418598725     0.05428758196979     0.00020012049331
   25     0.00000705591734     0.00016586936879     0.00118253585525     0.01070526668020     0.00006025291693
   26     0.00001266772832     0.00014051364232     0.00133649305177     0.01069937513557     0.00003584881979
   27     0.00001085516054     0.00003581097333     0.00029816408795     0.00288678334836     0.00001752270345
   28     0.00013598595457     0.01425047701869     0.01043758701765     0.00684472667340     0.05573387826483
   29     0.00233358741502     0.02033998777330     0.00184579688637     0.00019666898215     0.05725749179309
   30     0.00026817153029     0.00086130001518     0.00026623376951     0.00008280945516     0.01082882051744
   31     0.00003933796604     0.00087850973025     0.00038083451789     0.00005195620255     0.01092384259296
   32     0.00003574801051     0.00019238674717     0.01148686189200     0.01016660184170     0.00009839500337
   33     0.00012203366375     0.00039848645060     0.00171496256843     0.00033975713818     0.00010493435749
   34     0.00001537447633     0.00027477774282     0.00007201935665     0.00003370626144     0.00295212653061

                 6                   7                   8                   9                  10

    1     0.01566323116895     0.00112018160077     0.00084021983193     0.00952663229260     0.00096725148387
    2     0.15555366111745     0.01784065630018     0.00414231070842     0.05014677458299     0.01715202756275
    3     1.54487010968377     0.11581826820221     0.01704621261484     0.13241993950066     0.08859935594142
    4     0.12800395617560     0.03961831198681     0.00288748371239     0.01564960044807     0.00791438034381
    5     0.03353425230165     0.00284324345585     0.00102241545566     0.01026088335075     0.00473915921454
    6     0.00000000000000     1.14340257568708     0.13213577064602     1.02226213876439     0.16020314813135
    7     1.14340257568708     0.00000000000000     0.20132818257082     0.13264640975806     1.80406897992507
    8     0.13213577064602     0.20132818257082     0.00000000000000     1.33414311208866     1.27713834225418
    9     1.02226213876439     0.13264640975806     1.33414311208866     0.00000000000000     0.13425712971391
   10     0.16020314813135     1.80406897992507     1.27713834225418     0.13425712971391     0.00000000000000
   11     0.02746020409427     0.01205386406781     0.00072451266341     0.00345804011009     0.00228382128739
   12     0.05402107790521     0.02923708383946     0.00153934747341     0.00683521097495     0.00588352429894
   13     0.00334436416770     0.00225742682712     0.00021026788323     0.00051452886926     0.00053770118506
   14     0.00662117474224     0.00520859317449     0.00042159150714     0.00096694662662     0.00111848278904
   15     0.00423904079936     0.00196679583375     0.00014967315860     0.00081675331762     0.00058755425401
   16     0.01520744824982     0.00124860283834     0.00028064164902     0.00394019938039     0.00247716737787
   17     0.00651632277653     0.00072951727719     0.00045764540755     0.00379246894104     0.00145103676686
   18     0.00120122231053     0.00012993785417     0.00004119563462     0.00042553498209     0.00022975975226
   19     0.00122459365455     0.00016642727752     0.00006993507233     0.00043373728978     0.00020774818918
   20     0.00297753319683     0.00028265321676     0.00005027323914     0.00107863951024     0.00106829330837
   21     0.01178401947972     0.01082832271846     0.80381322387300     0.04371518122180     0.04281165307972
   22     0.13703673955634     0.02294080029151     0.22163590375409     2.15721303655823     0.02574162101414
   23     0.00193390689070     0.00055129146827     0.00003239466991     0.00008260008021     0.00002977043888
   24     0.01110138305339     0.00514623316357     0.00017405106924     0.00141599455708     0.00055425734684
   25     0.00032218695111     0.00007629809004     0.00001408117900     0.00006959430226     0.00003818727349
   26     0.00044102595410     0.00009933195102     0.00001155884139     0.00006862207181     0.00008461149108
   27     0.00007121081496     0.00002041923235     0.00000434954772     0.00001889575329     0.00000661753195
   28     0.00220124748458     0.00021145219922     0.00004072807064     0.00023870286372     0.00011533734537
   29     0.00031595678186     0.00003823026716     0.00002767794423     0.00044736552082     0.00003538884817
   30     0.00016160908911     0.00001426568621     0.00000330856601     0.00006087130435     0.00003931608684
   31     0.00011276974747     0.00001855900682     0.00000197489349     0.00002195674356     0.00001874637733
   32     0.04927085071417     0.81039455534771     0.01093947715258     0.00957996575165     0.05959707444738
   33     0.01380905875478     0.05884616559109     0.05617543653191     0.01239081465732     0.83218700319700
   34     0.00003731417266     0.00000511389459     0.00000216686996     0.00001245450736     0.00000647759544

                11                  12                  13                  14                  15

    1     0.00087376712422     0.00089689633378     0.00015146449688     0.00014873586742     0.00014266120252
    2     0.02589478821888     0.02939207117901     0.00251934201560     0.00304865723991     0.00469896760572
    3     0.11303504368561     0.12919341170716     0.01616798195516     0.01718368902706     0.01028579805415
    4     1.42684362031127     1.39708550165289     0.13744513701698     0.13364211514497     0.13789983571485
    5     0.01010661797260     0.00387958357506     0.00107992489920     0.00065064684662     0.00067299795527
    6     0.02746020409427     0.05402107790521     0.00334436416770     0.00662117474224     0.00423904079936
    7     0.01205386406781     0.02923708383946     0.00225742682712     0.00520859317449     0.00196679583375
    8     0.00072451266341     0.00153934747341     0.00021026788323     0.00042159150714     0.00014967315860
    9     0.00345804011009     0.00683521097495     0.00051452886926     0.00096694662662     0.00081675331762
   10     0.00228382128739     0.00588352429894     0.00053770118506     0.00111848278904     0.00058755425401
   11     0.00000000000000     0.13109743617001     1.51141915272989     0.14541852983883     0.14008220339530
   12     0.13109743617001     0.00000000000000     0.14691380354646     1.52637129836355     0.14133086581571
   13     1.51141915272989     0.14691380354646     0.00000000000000     0.14020571293909     1.52587695629009
   14     0.14541852983883     1.52637129836355     0.14020571293909     0.00000000000000     1.51302260000287
   15     0.14008220339530     0.14133086581571     1.52587695629009     1.51302260000287     0.00000000000000
   16     0.03267143825711     0.00181681257537     0.00318753635565     0.00084754235055     0.00095869918552
   17     0.00138427998400     0.00076324321719     0.00019260484384     0.00020170277482     0.00022611700005
   18     0.00357327777168     0.00017887159176     0.00038703327849     0.00016302255979     0.00012630175974
   19     0.00087836305587     0.00019405692033     0.00017891255312     0.00006959429676     0.00006026372672
   20     0.00107154396172     0.00024695137684     0.00018241724283     0.00009597579078     0.00011519071338
   21     0.00013270322153     0.00012419795214     0.00002389804505     0.00001780279591     0.00004590302928
   22     0.00180186549470     0.00294812656800     0.00019164077323     0.00054477655325     0.00034320956093
   23     0.80809249930197     0.00993538435742     0.05681722295318     0.00226116896128     0.01036394685197
   24     0.00916480741909     0.80282749393057     0.00218561998121     0.05556322639517     0.01035213585140
   25     0.06056938635553     0.00258226040071     0.83136439179332     0.01142795931946     0.05974481773919
   26     0.00260548149281     0.06148147788157     0.01132171016386     0.83048314753444     0.05945923206644
   27     0.01126497196041     0.01128496311517     0.06001968748485     0.05973372432334     0.83328526881275
   28     0.01480489075957     0.00034193334566     0.00146818052060     0.00013786628758     0.00030177933882
   29     0.00011521713919     0.00005583745123     0.00002156813611     0.00001273204214     0.00001637741710
   30     0.00010568051348     0.00001393919580     0.00001469690956     0.00000317777777     0.00000427964363
   31     0.00003903829633     0.00001561286849     0.00000716254922     0.00000392167302     0.00000453542768
   32     0.00314520723544     0.00719084152262     0.00060052448348     0.00128221124975     0.00056135338835
   33     0.00007662937797     0.00015732430452     0.00001714863376     0.00001750774646     0.00000823241830
   34     0.00006175513539     0.00000795478032     0.00001174859341     0.00000300342365     0.00000458931799

                16                  17                  18                  19                  20

    1     0.00947298940975     0.01646062579423     0.00091643979108     0.00151716718382     0.00180056058620
    2     0.13398523113649     0.14685365364843     0.01781105758721     0.01998122091933     0.02238029934904
    3     0.03932139445086     0.02370763904538     0.00425081167483     0.00348121839016     0.00490721423620
    4     0.01571194118343     0.00325242279360     0.00147806206843     0.00086466082776     0.00106939907241
    5     1.39296966072738     1.37847416592859     0.13693291849126     0.13679856469439     0.13003026098619
    6     0.01520744824982     0.00651632277653     0.00120122231053     0.00122459365455     0.00297753319683
    7     0.00124860283834     0.00072951727719     0.00012993785417     0.00016642727752     0.00028265321676
    8     0.00028064164902     0.00045764540755     0.00004119563462     0.00006993507233     0.00005027323914
    9     0.00394019938039     0.00379246894104     0.00042553498209     0.00043373728978     0.00107863951024
   10     0.00247716737787     0.00145103676686     0.00022975975226     0.00020774818918     0.00106829330837
   11     0.03267143825711     0.00138427998400     0.00357327777168     0.00087836305587     0.00107154396172
   12     0.00181681257537     0.00076324321719     0.00017887159176     0.00019405692033     0.00024695137684
   13     0.00318753635565     0.00019260484384     0.00038703327849     0.00017891255312     0.00018241724283
   14     0.00084754235055     0.00020170277482     0.00016302255979     0.00006959429676     0.00009597579078
   15     0.00095869918552     0.00022611700005     0.00012630175974     0.00006026372672     0.00011519071338
   16     0.00000000000000     0.12891088866962     1.51668529084016     0.13818820619047     0.14137982884576
   17     0.12891088866962     0.00000000000000     0.14372210729171     1.54875917631808     0.14129885920595
   18     1.51668529084016     0.14372210729171     0.00000000000000     0.14024650558768     1.52742049184611
   19     0.13818820619047     1.54875917631808     0.14024650558768     0.00000000000000     1.50253936275209
   20     0.14137982884576     0.14129885920595     1.52742049184611     1.50253936275209     0.00000000000000
   21     0.00001998184685     0.00003366088286     0.00000267746120     0.00000476304221     0.00000236749290
   22     0.00398189722479     0.01036953700580     0.00072828233208     0.00091517261423     0.00128234207350
   23     0.01271036973199     0.00015459465069     0.00153301110756     0.00013452525142     0.00018270831987
   24     0.00013594545821     0.00003653212002     0.00002193410431     0.00001129986830     0.00000975476636
   25     0.00013373547040     0.00001806306571     0.00001801491706     0.00000316170141     0.00001535924062
   26     0.00003839498063     0.00000874490918     0.00001215460606     0.00000289418585     0.00000293003955
   27     0.00008008631881     0.00000663836214     0.00001346624082     0.00000199784106     0.00000373065569
   28     0.79841984882645     0.00940516425674     0.05532024028983     0.00234167962576     0.01029830135757
   29     0.00994952941297     0.81408195378337     0.00259408667355     0.05764044409537     0.01102423195970
   30     0.06117716863753     0.00251531784466     0.83200618420611     0.01161038397709     0.05948305604087
   31     0.00265428145644     0.06159640359950     0.01143469616617     0.83194446146032     0.05922614193897
   32     0.00006277953055     0.00004342077124     0.00001407017620     0.00001389428897     0.00000912460033
   33     0.00002825389793     0.00005925834655     0.00000437059824     0.00001011240942     0.00000652676831
   34     0.01132959388337     0.01134025119958     0.06042998966603     0.06004515624635     0.83362089891748

                21                  22                  23                  24                  25

    1     0.00009836842116     0.03733221834567     0.00005550211404     0.00013723480800     0.00000705591734
    2     0.00025468218590     0.08086983875130     0.00159588274558     0.00214287921935     0.00016586936879
    3     0.00160394776222     0.08710303666366     0.01542146208279     0.02009418598725     0.00118253585525
    4     0.00048004191820     0.00540715218810     0.05621156467152     0.05428758196979     0.01070526668020
    5     0.00007151343191     0.01658573474601     0.00291317222163     0.00020012049331     0.00006025291693
    6     0.01178401947972     0.13703673955634     0.00193390689070     0.01110138305339     0.00032218695111
    7     0.01082832271846     0.02294080029151     0.00055129146827     0.00514623316357     0.00007629809004
    8     0.80381322387300     0.22163590375409     0.00003239466991     0.00017405106924     0.00001408117900
    9     0.04371518122180     2.15721303655823     0.00008260008021     0.00141599455708     0.00006959430226
   10     0.04281165307972     0.02574162101414     0.00002977043888     0.00055425734684     0.00003818727349
   11     0.00013270322153     0.00180186549470     0.80809249930197     0.00916480741909     0.06056938635553
   12     0.00012419795214     0.00294812656800     0.00993538435742     0.80282749393057     0.00258226040071
   13     0.00002389804505     0.00019164077323     0.05681722295318     0.00218561998121     0.83136439179332
   14     0.00001780279591     0.00054477655325     0.00226116896128     0.05556322639517     0.01142795931946
   15     0.00004590302928     0.00034320956093     0.01036394685197     0.01035213585140     0.05974481773919
   16     0.00001998184685     0.00398189722479     0.01271036973199     0.00013594545821     0.00013373547040
   17     0.00003366088286     0.01036953700580     0.00015459465069     0.00003653212002     0.00001806306571
   18     0.00000267746120     0.00072828233208     0.00153301110756     0.00002193410431     0.00001801491706
   19     0.00000476304221     0.00091517261423     0.00013452525142     0.00001129986830     0.00000316170141
   20     0.00000236749290     0.00128234207350     0.00018270831987     0.00000975476636     0.00001535924062
   21     0.00000000000000     0.01028513882287     0.00000351572980     0.00000068266272     0.00000063643576
   22     0.01028513882287     0.00000000000000     0.00006618960159     0.00022900643754     0.00002427061834
   23     0.00000351572980     0.00006618960159     0.00000000000000     0.00037224681334     0.00559920433053
   24     0.00000068266272     0.00022900643754     0.00037224681334     0.00000000000000     0.00023996179585
   25     0.00000063643576     0.00002427061834     0.00559920433053     0.00023996179585     0.00000000000000
   26     0.00000071086553     0.00008337987514     0.00025892382734     0.00537237113796     0.00025001155546
   27     0.00000058858046     0.00000556650762     0.00021959944890     0.00023590629541     0.00537520880119
   28     0.00000219890257     0.00024219876546     0.00610730211861     0.00005085896756     0.00002657273924
   29     0.00000233056313     0.00083489063763     0.00001169195247     0.00001030285591     0.00000063546533
   30     0.00000064443793     0.00004193536189     0.00008728788884     0.00000085280229     0.00000233908454
   31     0.00000009538849     0.00003222064829     0.00001965123446     0.00000072502588     0.00000033761119
   32     0.00043651150258     0.00198101845337     0.00009934110059     0.00064694108121     0.00000243016199
   33     0.00317107479882     0.00169811881795     0.00000649414364     0.00000338688748     0.00000106921605
   34     0.00000020657942     0.00001889570015     0.00001146306039     0.00000013900131     0.00000061702757

                26                  27                  28                  29                  30

    1     0.00001266772832     0.00001085516054     0.00013598595457     0.00233358741502     0.00026817153029
    2     0.00014051364232     0.00003581097333     0.01425047701869     0.02033998777330     0.00086130001518
    3     0.00133649305177     0.00029816408795     0.01043758701765     0.00184579688637     0.00026623376951
    4     0.01069937513557     0.00288678334836     0.00684472667340     0.00019666898215     0.00008280945516
    5     0.00003584881979     0.00001752270345     0.05573387826483     0.05725749179309     0.01082882051744
    6     0.00044102595410     0.00007121081496     0.00220124748458     0.00031595678186     0.00016160908911
    7     0.00009933195102     0.00002041923235     0.00021145219922     0.00003823026716     0.00001426568621
    8     0.00001155884139     0.00000434954772     0.00004072807064     0.00002767794423     0.00000330856601
    9     0.00006862207181     0.00001889575329     0.00023870286372     0.00044736552082     0.00006087130435
   10     0.00008461149108     0.00000661753195     0.00011533734537     0.00003538884817     0.00003931608684
   11     0.00260548149281     0.01126497196041     0.01480489075957     0.00011521713919     0.00010568051348
   12     0.06148147788157     0.01128496311517     0.00034193334566     0.00005583745123     0.00001393919580
   13     0.01132171016386     0.06001968748485     0.00146818052060     0.00002156813611     0.00001469690956
   14     0.83048314753444     0.05973372432334     0.00013786628758     0.00001273204214     0.00000317777777
   15     0.05945923206644     0.83328526881275     0.00030177933882     0.00001637741710     0.00000427964363
   16     0.00003839498063     0.00008008631881     0.79841984882645     0.00994952941297     0.06117716863753
   17     0.00000874490918     0.00000663836214     0.00940516425674     0.81408195378337     0.00251531784466
   18     0.00001215460606     0.00001346624082     0.05532024028983     0.00259408667355     0.83200618420611
   19     0.00000289418585     0.00000199784106     0.00234167962576     0.05764044409537     0.01161038397709
   20     0.00000293003955     0.00000373065569     0.01029830135757     0.01102423195970     0.05948305604087
   21     0.00000071086553     0.00000058858046     0.00000219890257     0.00000233056313     0.00000064443793
   22     0.00008337987514     0.00000556650762     0.00024219876546     0.00083489063763     0.00004193536189
   23     0.00025892382734     0.00021959944890     0.00610730211861     0.00001169195247     0.00008728788884
   24     0.00537237113796     0.00023590629541     0.00005085896756     0.00001030285591     0.00000085280229
   25     0.00025001155546     0.00537520880119     0.00002657273924     0.00000063546533     0.00000233908454
   26     0.00000000000000     0.00536067037939     0.00002392505914     0.00000144436572     0.00000017334379
   27     0.00536067037939     0.00000000000000     0.00002153700043     0.00000034306011     0.00000077195898
   28     0.00002392505914     0.00002153700043     0.00000000000000     0.00041592078880     0.00557288101160
   29     0.00000144436572     0.00000034306011     0.00041592078880     0.00000000000000     0.00024824099822
   30     0.00000017334379     0.00000077195898     0.00557288101160     0.00024824099822     0.00000000000000
   31     0.00000042077832     0.00000035101682     0.00023526542530     0.00550771063049     0.00025933004010
   32     0.00000879531281     0.00000211562876     0.00000240820321     0.00000090937948     0.00000081822649
   33     0.00000392380792     0.00000059670295     0.00000393362095     0.00000242473227     0.00000040290829
   34     0.00000016193757     0.00000012762082     0.00020996140739     0.00020916808006     0.00536631181507

                31                  32                  33                  34

    1     0.00003933796604     0.00003574801051     0.00012203366375     0.00001537447633
    2     0.00087850973025     0.00019238674717     0.00039848645060     0.00027477774282
    3     0.00038083451789     0.01148686189200     0.00171496256843     0.00007201935665
    4     0.00005195620255     0.01016660184170     0.00033975713818     0.00003370626144
    5     0.01092384259296     0.00009839500337     0.00010493435749     0.00295212653061
    6     0.00011276974747     0.04927085071417     0.01380905875478     0.00003731417266
    7     0.00001855900682     0.81039455534771     0.05884616559109     0.00000511389459
    8     0.00000197489349     0.01093947715258     0.05617543653191     0.00000216686996
    9     0.00002195674356     0.00957996575165     0.01239081465732     0.00001245450736
   10     0.00001874637733     0.05959707444738     0.83218700319700     0.00000647759544
   11     0.00003903829633     0.00314520723544     0.00007662937797     0.00006175513539
   12     0.00001561286849     0.00719084152262     0.00015732430452     0.00000795478032
   13     0.00000716254922     0.00060052448348     0.00001714863376     0.00001174859341
   14     0.00000392167302     0.00128221124975     0.00001750774646     0.00000300342365
   15     0.00000453542768     0.00056135338835     0.00000823241830     0.00000458931799
   16     0.00265428145644     0.00006277953055     0.00002825389793     0.01132959388337
   17     0.06159640359950     0.00004342077124     0.00005925834655     0.01134025119958
   18     0.01143469616617     0.00001407017620     0.00000437059824     0.06042998966603
   19     0.83194446146032     0.00001389428897     0.00001011240942     0.06004515624635
   20     0.05922614193897     0.00000912460033     0.00000652676831     0.83362089891748
   21     0.00000009538849     0.00043651150258     0.00317107479882     0.00000020657942
   22     0.00003222064829     0.00198101845337     0.00169811881795     0.00001889570015
   23     0.00001965123446     0.00009934110059     0.00000649414364     0.00001146306039
   24     0.00000072502588     0.00064694108121     0.00000338688748     0.00000013900131
   25     0.00000033761119     0.00000243016199     0.00000106921605     0.00000061702757
   26     0.00000042077832     0.00000879531281     0.00000392380792     0.00000016193757
   27     0.00000035101682     0.00000211562876     0.00000059670295     0.00000012762082
   28     0.00023526542530     0.00000240820321     0.00000393362095     0.00020996140739
   29     0.00550771063049     0.00000090937948     0.00000242473227     0.00020916808006
   30     0.00025933004010     0.00000081822649     0.00000040290829     0.00536631181507
   31     0.00000000000000     0.00000017982885     0.00000133248418     0.00535227681845
   32     0.00000017982885     0.00000000000000     0.00251972768879     0.00000042061644
   33     0.00000133248418     0.00251972768879     0.00000000000000     0.00000025860015
   34     0.00535227681845     0.00000042061644     0.00000025860015     0.00000000000000



  Atomic Valences: 

 #  #
 Irrep: 1
      1:    0.943568185322833
      2:    4.126235237552722
      3:    4.814218660272910
      4:    4.734175935412760
      5:    4.795684427269863
      6:    4.687041105018206
      7:    4.421158750601505
      8:    4.067505466534544
      9:    5.088910736395610
     10:    4.472150925853513
     11:    4.502310638403397
     12:    4.505844396191322
     13:    4.456837470116496
     14:    4.456898837965777
     15:    4.457754936649080
     16:    4.479983386350472
     17:    4.456824018482692
     18:    4.460053021218828
     19:    4.460539661507696
     20:    4.455163222608550
     21:    0.929773245132089
     22:    2.830515762317411
     23:    0.993875890121363
     24:    0.982726053326912
     25:    0.990041773380848
     26:    0.989711128793634
     27:    0.990288547270785
     28:    0.995964971511520
     29:    0.985596143832525
     30:    0.991102580644640
     31:    0.990784640145318
     32:    0.980386961339738
     33:    0.983886761821487
     34:    0.991436480836218


    Psi4 stopped on: Saturday, 18 November 2023 09:13AM
    Psi4 wall time for execution: 0:00:58.53

*** Psi4 exiting successfully. Buy a developer a beer!
