      -----------------------------------------------------------      
     |                   =====================                   |     
     |                           x T B                           |     
     |                   =====================                   |     
     |                         S. Grimme                         |     
     |          Mulliken Center for Theoretical Chemistry        |     
     |                    University of Bonn                     |     
      -----------------------------------------------------------      

   * xtb version 6.5.0 (97a52f5) compiled by 'conda@d2599ee0d4f4' on 2022-05-15

   xtb is free software: you can redistribute it and/or modify it under
   the terms of the GNU Lesser General Public License as published by
   the Free Software Foundation, either version 3 of the License, or
   (at your option) any later version.
   
   xtb is distributed in the hope that it will be useful,
   but WITHOUT ANY WARRANTY; without even the implied warranty of
   MERCHANTABILITY or FITNESS FOR A PARTICULAR PURPOSE.  See the
   GNU Lesser General Public License for more details.
   
   Cite this work as:
   * C. Bannwarth, E. Caldeweyher, S. Ehlert, A. Hansen, P. Pracht,
     J. Seibert, S. Spicher, S. Grimme, WIREs Comput. Mol. Sci., 2020, 11,
     e01493. DOI: 10.1002/wcms.1493
   
   for GFN2-xTB:
   * C. Bannwarth, S. Ehlert and S. Grimme., J. Chem. Theory Comput., 2019,
     15, 1652-1671. DOI: 10.1021/acs.jctc.8b01176
   for GFN1-xTB:
   * S. Grimme, C. Bannwarth, P. Shushkov, J. Chem. Theory Comput., 2017,
     13, 1989-2009. DOI: 10.1021/acs.jctc.7b00118
   for GFN0-xTB:
   * P. Pracht, E. Caldeweyher, S. Ehlert, S. Grimme, ChemRxiv, 2019, preprint.
     DOI: 10.26434/chemrxiv.8326202.v1
   for GFN-FF:
   * S. Spicher and S. Grimme, Angew. Chem. Int. Ed., 2020, 59, 15665-15673.
     DOI: 10.1002/anie.202004239
   
   for ALPB and GBSA implicit solvation:
   * S. Ehlert, M. Stahn, S. Spicher, S. Grimme, J. Chem. Theory Comput.,
     2021, 17, 4250-4261. DOI: 10.1021/acs.jctc.1c00471
   
   for DFT-D4:
   * E. Caldeweyher, C. Bannwarth and S. Grimme, J. Chem. Phys., 2017,
     147, 034112. DOI: 10.1063/1.4993215
   * E. Caldeweyher, S. Ehlert, A. Hansen, H. Neugebauer, S. Spicher,
     C. Bannwarth and S. Grimme, J. Chem. Phys., 2019, 150, 154122.
     DOI: 10.1063/1.5090222
   * E. Caldeweyher, J.-M. Mewes, S. Ehlert and S. Grimme, Phys. Chem. Chem. Phys.
     2020, 22, 8499-8512. DOI: 10.1039/D0CP00502A
   
   for sTDA-xTB:
   * S. Grimme and C. Bannwarth, J. Chem. Phys., 2016, 145, 054103.
     DOI: 10.1063/1.4959605
   
   in the mass-spec context:
   * V. Asgeirsson, C. Bauer and S. Grimme, Chem. Sci., 2017, 8, 4879.
     DOI: 10.1039/c7sc00601b
   * J. Koopman and S. Grimme, ACS Omega 2019, 4, 12, 15120-15133.
     DOI: 10.1021/acsomega.9b02011
   
   for metadynamics refer to:
   * S. Grimme, J. Chem. Theory Comput., 2019, 155, 2847-2862
     DOI: 10.1021/acs.jctc.9b00143
   
   for SPH calculations refer to:
   * S. Spicher and S. Grimme, J. Chem. Theory Comput., 2021, 17, 1701-1714
     DOI: 10.1021/acs.jctc.0c01306
   
   with help from (in alphabetical order)
   P. Atkinson, C. Bannwarth, F. Bohle, G. Brandenburg, E. Caldeweyher
   M. Checinski, S. Dohm, S. Ehlert, S. Ehrlich, I. Gerasimov, C. Hölzer
   A. Katbashev, J. Koopman, C. Lavigne, S. Lehtola, F. März, M. Müller,
   F. Musil, H. Neugebauer, J. Pisarek, C. Plett, P. Pracht, F. Pultar,
   J. Seibert, P. Shushkov, S. Spicher, M. Stahn, M. Steiner, T. Strunk,
   J. Stückrath, T. Rose, and J. Unsleber
   
 * started run on 2023/11/18 at 09:08:37.086     

           -------------------------------------------------
          |                Calculation Setup                |
           -------------------------------------------------

          program call               : /home/liuchw/anaconda3/envs/xtbenv/bin/xtb --gfn 2 --chrg 0 --uhf 0 1_7_Index_0-opt-2-3-046_preQMOPTprefit_xyzformat.xyz --opt --input xtb-opt-2-3-046_constr.txt
          hostname                   : node165.bme.utexas.edu
          coordinate file            : 1_7_Index_0-opt-2-3-046_preQMOPTprefit_xyzformat.xyz
          omp threads                :                    64

   ID    Z sym.   atoms
    1    1 H      1, 21, 23-34
    2    7 N      2, 8
    3    6 C      3-7, 9-20
    4    8 O      22
constraining angle 1 2 3 4 to   45.7925094°, actual value:   45.7925094°
constraining angle 5 2 3 4 to  183.2500282°, actual value: -176.7499718°
constraining angle 1 2 5 17 to  332.0312971°, actual value:  -27.9687029°
constraining angle 3 2 5 17 to  195.1095936°, actual value: -164.8904064°
constraining angle 2 3 4 12 to  262.1273640°, actual value:  -97.8726360°
constraining angle 2 3 6 7 to  183.2470195°, actual value: -176.7529805°

           -------------------------------------------------
          |                 G F N 2 - x T B                 |
           -------------------------------------------------

        Reference                      10.1021/acs.jctc.8b01176
      * Hamiltonian:
        H0-scaling (s, p, d)           1.850000    2.230000    2.230000
        zeta-weighting                 0.500000
      * Dispersion:
        s8                             2.700000
        a1                             0.520000
        a2                             5.000000
        s9                             5.000000
      * Repulsion:
        kExp                           1.500000    1.000000
        rExp                           1.000000
      * Coulomb:
        alpha                          2.000000
        third order                    shell-resolved
        anisotropic                    true
        a3                             3.000000
        a5                             4.000000
        cn-shift                       1.200000
        cn-exp                         4.000000
        max-rad                        5.000000

q/qsh data taken from xtbrestart
CAMM data taken from xtbrestart

          ...................................................
          :                      SETUP                      :
          :.................................................:
          :  # basis functions                  94          :
          :  # atomic orbitals                  94          :
          :  # shells                           54          :
          :  # electrons                        98          :
          :  max. iterations                   250          :
          :  Hamiltonian                  GFN2-xTB          :
          :  restarted?                       true          :
          :  GBSA solvation                  false          :
          :  PC potential                    false          :
          :  electronic temp.          300.0000000     K    :
          :  accuracy                    1.0000000          :
          :  -> integral cutoff          0.2500000E+02      :
          :  -> integral neglect         0.1000000E-07      :
          :  -> SCF convergence          0.1000000E-05 Eh   :
          :  -> wf. convergence          0.1000000E-03 e    :
          :  Broyden damping             0.4000000          :
          ...................................................

 iter      E             dE          RMSdq      gap      omega  full diag
   1    -54.2077908 -0.542078E+02  0.130E+00    1.75       0.0  T
   2    -54.2083868 -0.596020E-03  0.773E-01    1.80       1.0  T
   3    -54.2053658  0.302101E-02  0.282E-01    1.75       1.0  T
   4    -54.2086783 -0.331248E-02  0.712E-02    1.81       1.0  T
   5    -54.2088428 -0.164534E-03  0.253E-02    1.79       1.0  T
   6    -54.2088537 -0.108589E-04  0.117E-02    1.80       1.5  T
   7    -54.2088557 -0.200239E-05  0.439E-03    1.80       3.9  T
   8    -54.2088558 -0.999321E-07  0.156E-03    1.80      11.0  T
   9    -54.2088558 -0.171471E-07  0.741E-04    1.80      23.1  T
  10    -54.2088558 -0.858153E-08  0.325E-04    1.80      52.8  T

   *** convergence criteria satisfied after 10 iterations ***

         #    Occupation            Energy/Eh            Energy/eV
      -------------------------------------------------------------
         1        2.0000           -0.6837170             -18.6049
       ...           ...                  ...                  ...
        43        2.0000           -0.4128680             -11.2347
        44        2.0000           -0.4104262             -11.1683
        45        2.0000           -0.4072837             -11.0828
        46        2.0000           -0.3912831             -10.6474
        47        2.0000           -0.3854292             -10.4881
        48        2.0000           -0.3731087             -10.1528
        49        2.0000           -0.3496917              -9.5156 (HOMO)
        50                         -0.2836658              -7.7189 (LUMO)
        51                         -0.2404071              -6.5418
        52                         -0.2369540              -6.4478
        53                         -0.2170684              -5.9067
        54                         -0.2092743              -5.6946
       ...                                ...                  ...
        94                          0.6677750              18.1711
      -------------------------------------------------------------
                  HL-Gap            0.0660259 Eh            1.7967 eV
             Fermi-level           -0.3166787 Eh           -8.6173 eV

 SCC (total)                   0 d,  0 h,  0 min,  1.397 sec
 SCC setup                      ...        0 min,  0.010 sec (  0.686%)
 Dispersion                     ...        0 min,  0.026 sec (  1.882%)
 classical contributions        ...        0 min,  0.012 sec (  0.894%)
 integral evaluation            ...        0 min,  0.027 sec (  1.922%)
 iterations                     ...        0 min,  1.145 sec ( 81.964%)
 molecular gradient             ...        0 min,  0.162 sec ( 11.599%)
 printout                       ...        0 min,  0.014 sec (  1.035%)

         :::::::::::::::::::::::::::::::::::::::::::::::::::::
         ::                     SUMMARY                     ::
         :::::::::::::::::::::::::::::::::::::::::::::::::::::
         :: total energy             -53.396460481146 Eh    ::
         :: gradient norm              0.092645283573 Eh/a0 ::
         :: HOMO-LUMO gap              1.796656605060 eV    ::
         ::.................................................::
         :: SCC energy               -54.208855809764 Eh    ::
         :: -> isotropic ES            0.044400452815 Eh    ::
         :: -> anisotropic ES          0.005898230946 Eh    ::
         :: -> anisotropic XC          0.031285867559 Eh    ::
         :: -> dispersion             -0.038239369751 Eh    ::
         :: repulsion energy           0.812144181773 Eh    ::
         :: add. restraining           0.000000000000 Eh    ::
         :: total charge               0.000000000000 e     ::
         :::::::::::::::::::::::::::::::::::::::::::::::::::::

      ----------------------------------------------------------- 
     |                   =====================                   |
     |                        A N C O P T                        |
     |                   =====================                   |
     |               Approximate Normal Coordinate               |
     |                Rational Function Optimizer                |
      ----------------------------------------------------------- 

          ...................................................
          :                      SETUP                      :
          :.................................................:
          :   optimization level            normal          :
          :   max. optcycles                   200          :
          :   ANC micro-cycles                  20          :
          :   degrees of freedom                96          :
          :.................................................:
          :   RF solver                   davidson          :
          :   write xtbopt.log                true          :
          :   linear?                        false          :
          :   energy convergence         0.5000000E-05 Eh   :
          :   grad. convergence          0.1000000E-02 Eh/α :
          :   maximium RF displ.         1.0000000          :
          :   Hlow (freq-cutoff)         0.1000000E-01      :
          :   Hmax (freq-cutoff)         5.0000000          :
          :   S6 in model hess.         20.0000000          :
          ...................................................

generating ANC from model Hessian ...
Using Lindh-Hessian (1995)
 Shifting diagonal of input Hessian by    9.0187598748170707E-003
 Lowest  eigenvalues of input Hessian
    0.000000    0.000000    0.000000    0.000000    0.000000    0.000000
    0.010000    0.010247    0.010371    0.010921    0.012610    0.013406
    0.015524    0.016397    0.018343    0.021164    0.023077    0.023289
 Highest eigenvalues
    2.287012    2.696890    3.328226    4.498163    9.311807   16.203875


........................................................................
.............................. CYCLE    1 ..............................
........................................................................
   1    -54.2088558 -0.542089E+02  0.124E-04    1.80       0.0  T
   2    -54.2088558 -0.767457E-10  0.834E-05    1.80     205.7  T
   3    -54.2088558 -0.107434E-09  0.497E-05    1.80     344.9  T
     SCC iter.                  ...        0 min,  0.461 sec
     gradient                   ...        0 min,  0.166 sec
 * total energy  :   -53.3964605 Eh     change       -0.1023004E-08 Eh
   gradient norm :     0.0926442 Eh/α   predicted     0.0000000E+00 (-100.00%)
   displ. norm   :     0.4368684 α      lambda       -0.2364146E-01
   maximum displ.:     0.1500097 α      in ANC's #8, #9, #13, ...

........................................................................
.............................. CYCLE    2 ..............................
........................................................................
   1    -54.2945307 -0.542945E+02  0.252E-01    2.00       0.0  T
   2    -54.2945942 -0.635681E-04  0.166E-01    1.97       1.0  T
   3    -54.2944098  0.184474E-03  0.130E-01    2.01       1.0  T
   4    -54.2947917 -0.381927E-03  0.356E-02    1.98       1.0  T
   5    -54.2948334 -0.416893E-04  0.805E-03    1.99       2.1  T
   6    -54.2948350 -0.159602E-05  0.335E-03    1.99       5.1  T
   7    -54.2948350 -0.465848E-07  0.154E-03    1.99      11.1  T
   8    -54.2948351 -0.250431E-07  0.569E-04    1.99      30.1  T
   9    -54.2948351 -0.333382E-08  0.234E-04    1.99      73.2  T
     SCC iter.                  ...        0 min,  1.240 sec
     gradient                   ...        0 min,  0.158 sec
 * total energy  :   -53.4121615 Eh     change       -0.1570102E-01 Eh
   gradient norm :     0.0520286 Eh/α   predicted    -0.1407676E-01 ( -10.34%)
   displ. norm   :     0.4437331 α      lambda       -0.7703532E-02
   maximum displ.:     0.1746838 α      in ANC's #13, #8, #9, ...

........................................................................
.............................. CYCLE    3 ..............................
........................................................................
   1    -54.3384904 -0.543385E+02  0.181E-01    2.09       0.0  T
   2    -54.3385248 -0.344406E-04  0.152E-01    2.06       1.0  T
   3    -54.3388802 -0.355326E-03  0.796E-02    2.09       1.0  T
   4    -54.3389128 -0.326391E-04  0.309E-02    2.08       1.0  T
   5    -54.3389348 -0.220236E-04  0.792E-03    2.08       2.2  T
   6    -54.3389369 -0.212308E-05  0.228E-03    2.08       7.5  T
   7    -54.3389370 -0.902298E-08  0.113E-03    2.08      15.2  T
   8    -54.3389370 -0.139368E-07  0.427E-04    2.08      40.1  T
   9    -54.3389370 -0.265543E-08  0.152E-04    2.08     112.7  T
     SCC iter.                  ...        0 min,  1.187 sec
     gradient                   ...        0 min,  0.147 sec
 * total energy  :   -53.4166697 Eh     change       -0.4508241E-02 Eh
   gradient norm :     0.0598796 Eh/α   predicted    -0.4610202E-02 (   2.26%)
   displ. norm   :     0.3808270 α      lambda       -0.2841691E-02
   maximum displ.:     0.1479698 α      in ANC's #8, #2, #9, ...

........................................................................
.............................. CYCLE    4 ..............................
........................................................................
   1    -54.3450296 -0.543450E+02  0.153E-01    2.14       0.0  T
   2    -54.3450585 -0.289733E-04  0.121E-01    2.12       1.0  T
   3    -54.3452166 -0.158082E-03  0.670E-02    2.14       1.0  T
   4    -54.3452587 -0.421099E-04  0.228E-02    2.13       1.0  T
   5    -54.3452713 -0.125312E-04  0.519E-03    2.13       3.3  T
   6    -54.3452722 -0.934646E-06  0.163E-03    2.13      10.5  T
   7    -54.3452722 -0.114435E-07  0.862E-04    2.13      19.9  T
   8    -54.3452722 -0.505555E-08  0.303E-04    2.13      56.5  T
     SCC iter.                  ...        0 min,  1.021 sec
     gradient                   ...        0 min,  0.147 sec
 * total energy  :   -53.4179849 Eh     change       -0.1315150E-02 Eh
   gradient norm :     0.0724491 Eh/α   predicted    -0.1626914E-02 (  23.71%)
   displ. norm   :     0.2365940 α      lambda       -0.1224003E-02
   maximum displ.:     0.1298574 α      in ANC's #3, #2, #7, ...

........................................................................
.............................. CYCLE    5 ..............................
........................................................................
   1    -54.3397517 -0.543398E+02  0.917E-02    2.14       0.0  T
   2    -54.3397609 -0.917346E-05  0.547E-02    2.14       1.0  T
   3    -54.3397448  0.160966E-04  0.295E-02    2.15       1.0  T
   4    -54.3397655 -0.206858E-04  0.728E-03    2.14       2.4  T
   5    -54.3397673 -0.185808E-05  0.159E-03    2.14      10.8  T
   6    -54.3397674 -0.499952E-07  0.788E-04    2.14      21.8  T
   7    -54.3397674 -0.206441E-08  0.296E-04    2.14      58.0  T
     SCC iter.                  ...        0 min,  0.914 sec
     gradient                   ...        0 min,  0.167 sec
 * total energy  :   -53.4184464 Eh     change       -0.4615391E-03 Eh
   gradient norm :     0.0810494 Eh/α   predicted    -0.6462815E-03 (  40.03%)
   displ. norm   :     0.2016349 α      lambda       -0.1070476E-02
   maximum displ.:     0.1223022 α      in ANC's #3, #1, #2, ...

........................................................................
.............................. CYCLE    6 ..............................
........................................................................
   1    -54.3364187 -0.543364E+02  0.784E-02    2.13       0.0  T
   2    -54.3364216 -0.290047E-05  0.502E-02    2.13       1.0  T
   3    -54.3363973  0.242910E-04  0.392E-02    2.12       1.0  T
   4    -54.3364381 -0.407972E-04  0.781E-03    2.13       2.2  T
   5    -54.3364402 -0.207732E-05  0.127E-03    2.13      13.5  T
   6    -54.3364402 -0.223009E-07  0.673E-04    2.13      25.5  T
   7    -54.3364402 -0.241607E-08  0.314E-04    2.13      54.7  T
     SCC iter.                  ...        0 min,  0.805 sec
     gradient                   ...        0 min,  0.148 sec
 * total energy  :   -53.4187978 Eh     change       -0.3513195E-03 Eh
   gradient norm :     0.0569239 Eh/α   predicted    -0.5570076E-03 (  58.55%)
   displ. norm   :     0.1523070 α      lambda       -0.5774527E-03
   maximum displ.:     0.1012597 α      in ANC's #3, #1, #8, ...

........................................................................
.............................. CYCLE    7 ..............................
........................................................................
   1    -54.3392802 -0.543393E+02  0.538E-02    2.14       0.0  T
   2    -54.3392828 -0.252641E-05  0.328E-02    2.14       1.0  T
   3    -54.3392728  0.994473E-05  0.182E-02    2.14       1.0  T
   4    -54.3392842 -0.113632E-04  0.512E-03    2.14       3.3  T
   5    -54.3392851 -0.870635E-06  0.814E-04    2.14      21.1  T
   6    -54.3392851 -0.976981E-08  0.415E-04    2.14      41.3  T
     SCC iter.                  ...        0 min,  0.681 sec
     gradient                   ...        0 min,  0.148 sec
 * total energy  :   -53.4192099 Eh     change       -0.4121820E-03 Eh
   gradient norm :     0.0152167 Eh/α   predicted    -0.2954254E-03 ( -28.33%)
   displ. norm   :     0.2982335 α      lambda       -0.5257573E-03
   maximum displ.:     0.2009297 α      in ANC's #3, #1, #2, ...

........................................................................
.............................. CYCLE    8 ..............................
........................................................................
   1    -54.3404279 -0.543404E+02  0.103E-01    2.16       0.0  T
   2    -54.3404372 -0.922544E-05  0.609E-02    2.17       1.0  T
   3    -54.3404082  0.289541E-04  0.358E-02    2.16       1.0  T
   4    -54.3404428 -0.345761E-04  0.904E-03    2.17       1.9  T
   5    -54.3404458 -0.303096E-05  0.167E-03    2.17      10.3  T
   6    -54.3404459 -0.449687E-07  0.817E-04    2.17      21.0  T
   7    -54.3404459 -0.720078E-09  0.326E-04    2.17      52.6  T
     SCC iter.                  ...        0 min,  0.795 sec
     gradient                   ...        0 min,  0.156 sec
 * total energy  :   -53.4196046 Eh     change       -0.3946511E-03 Eh
   gradient norm :     0.0193674 Eh/α   predicted    -0.2862633E-03 ( -27.46%)
   displ. norm   :     0.3825141 α      lambda       -0.4653201E-03
   maximum displ.:     0.2544292 α      in ANC's #3, #1, #2, ...

........................................................................
.............................. CYCLE    9 ..............................
........................................................................
   1    -54.3410441 -0.543410E+02  0.124E-01    2.18       0.0  T
   2    -54.3410535 -0.937428E-05  0.737E-02    2.19       1.0  T
   3    -54.3409922  0.613090E-04  0.487E-02    2.18       1.0  T
   4    -54.3410644 -0.722374E-04  0.103E-02    2.19       1.7  T
   5    -54.3410682 -0.375432E-05  0.166E-03    2.18      10.4  T
   6    -54.3410682 -0.459102E-07  0.815E-04    2.18      21.0  T
   7    -54.3410682 -0.610342E-09  0.349E-04    2.18      49.1  T
     SCC iter.                  ...        0 min,  0.879 sec
     gradient                   ...        0 min,  0.150 sec
 * total energy  :   -53.4199840 Eh     change       -0.3793795E-03 Eh
   gradient norm :     0.0222157 Eh/α   predicted    -0.2667030E-03 ( -29.70%)
   displ. norm   :     0.4391304 α      lambda       -0.4418217E-03
   maximum displ.:     0.2980350 α      in ANC's #3, #1, #2, ...

........................................................................
.............................. CYCLE   10 ..............................
........................................................................
   1    -54.3404168 -0.543404E+02  0.140E-01    2.20       0.0  T
   2    -54.3404270 -0.101375E-04  0.817E-02    2.20       1.0  T
   3    -54.3403859  0.410692E-04  0.397E-02    2.20       1.0  T
   4    -54.3404339 -0.480113E-04  0.793E-03    2.20       2.2  T
   5    -54.3404362 -0.227991E-05  0.159E-03    2.20      10.8  T
   6    -54.3404362 -0.150502E-07  0.874E-04    2.20      19.6  T
   7    -54.3404362 -0.357586E-08  0.302E-04    2.20      56.8  T
     SCC iter.                  ...        0 min,  0.994 sec
     gradient                   ...        0 min,  0.152 sec
 * total energy  :   -53.4203210 Eh     change       -0.3370144E-03 Eh
   gradient norm :     0.0100921 Eh/α   predicted    -0.2635148E-03 ( -21.81%)
   displ. norm   :     0.4024271 α      lambda       -0.3262184E-03
   maximum displ.:     0.2805948 α      in ANC's #3, #1, #4, ...

........................................................................
.............................. CYCLE   11 ..............................
........................................................................
   1    -54.3416573 -0.543417E+02  0.125E-01    2.22       0.0  T
   2    -54.3416675 -0.101929E-04  0.735E-02    2.22       1.0  T
   3    -54.3416301  0.373307E-04  0.363E-02    2.21       1.0  T
   4    -54.3416716 -0.414344E-04  0.897E-03    2.22       1.9  T
   5    -54.3416743 -0.270254E-05  0.172E-03    2.22      10.0  T
   6    -54.3416743 -0.641553E-07  0.825E-04    2.22      20.8  T
   7    -54.3416743 -0.243138E-08  0.337E-04    2.22      50.9  T
     SCC iter.                  ...        0 min,  0.834 sec
     gradient                   ...        0 min,  0.147 sec
 * total energy  :   -53.4205332 Eh     change       -0.2121817E-03 Eh
   gradient norm :     0.0077869 Eh/α   predicted    -0.1895249E-03 ( -10.68%)
   displ. norm   :     0.3343576 α      lambda       -0.1969719E-03
   maximum displ.:     0.2355157 α      in ANC's #3, #1, #4, ...

........................................................................
.............................. CYCLE   12 ..............................
........................................................................
   1    -54.3406581 -0.543407E+02  0.999E-02    2.22       0.0  T
   2    -54.3406685 -0.103647E-04  0.599E-02    2.22       1.0  T
   3    -54.3406364  0.320566E-04  0.363E-02    2.23       1.0  T
   4    -54.3406732 -0.368234E-04  0.957E-03    2.22       1.8  T
   5    -54.3406763 -0.308183E-05  0.169E-03    2.22      10.1  T
   6    -54.3406764 -0.705271E-07  0.776E-04    2.22      22.1  T
   7    -54.3406764 -0.348848E-08  0.339E-04    2.22      50.6  T
     SCC iter.                  ...        0 min,  0.858 sec
     gradient                   ...        0 min,  0.155 sec
 * total energy  :   -53.4206305 Eh     change       -0.9738576E-04 Eh
   gradient norm :     0.0089872 Eh/α   predicted    -0.1094987E-03 (  12.44%)
   displ. norm   :     0.1253895 α      lambda       -0.1015648E-03
   maximum displ.:     0.0775236 α      in ANC's #3, #1, #7, ...

........................................................................
.............................. CYCLE   13 ..............................
........................................................................
   1    -54.3434593 -0.543435E+02  0.365E-02    2.23       0.0  T
   2    -54.3434610 -0.160542E-05  0.220E-02    2.23       1.0  T
   3    -54.3434572  0.377768E-05  0.134E-02    2.23       1.3  T
   4    -54.3434617 -0.455820E-05  0.340E-03    2.23       5.0  T
   5    -54.3434621 -0.367888E-06  0.653E-04    2.23      26.3  T
   6    -54.3434621 -0.909576E-08  0.357E-04    2.23      48.0  T
     SCC iter.                  ...        0 min,  0.723 sec
     gradient                   ...        0 min,  0.162 sec
 * total energy  :   -53.4206927 Eh     change       -0.6214615E-04 Eh
   gradient norm :     0.0051371 Eh/α   predicted    -0.5158180E-04 ( -17.00%)
   displ. norm   :     0.1430831 α      lambda       -0.4450506E-04
   maximum displ.:     0.1022566 α      in ANC's #3, #1, #4, ...

........................................................................
.............................. CYCLE   14 ..............................
........................................................................
   1    -54.3426334 -0.543426E+02  0.391E-02    2.24       0.0  T
   2    -54.3426339 -0.417596E-06  0.230E-02    2.24       1.0  T
   3    -54.3426319  0.193302E-05  0.725E-03    2.23       2.4  T
   4    -54.3426340 -0.208750E-05  0.182E-03    2.24       9.4  T
   5    -54.3426341 -0.106730E-06  0.427E-04    2.24      40.2  T
   6    -54.3426341 -0.144374E-08  0.235E-04    2.24      73.0  T
     SCC iter.                  ...        0 min,  0.592 sec
     gradient                   ...        0 min,  0.152 sec
 * total energy  :   -53.4207151 Eh     change       -0.2237367E-04 Eh
   gradient norm :     0.0041063 Eh/α   predicted    -0.2270974E-04 (   1.50%)
   displ. norm   :     0.0500283 α      lambda       -0.2190716E-04
   maximum displ.:     0.0334532 α      in ANC's #2, #7, #5, ...

........................................................................
.............................. CYCLE   15 ..............................
........................................................................
   1    -54.3435217 -0.543435E+02  0.180E-02    2.24       0.0  T
   2    -54.3435220 -0.360752E-06  0.107E-02    2.24       1.6  T
   3    -54.3435216  0.463782E-06  0.494E-03    2.24       3.5  T
   4    -54.3435221 -0.560511E-06  0.114E-03    2.24      15.0  T
   5    -54.3435222 -0.400104E-07  0.409E-04    2.24      41.9  T
   6    -54.3435222 -0.546524E-08  0.137E-04    2.24     125.4  T
     SCC iter.                  ...        0 min,  0.716 sec
     gradient                   ...        0 min,  0.156 sec
 * total energy  :   -53.4207273 Eh     change       -0.1226786E-04 Eh
   gradient norm :     0.0015705 Eh/α   predicted    -0.1098294E-04 ( -10.47%)
   displ. norm   :     0.0448363 α      lambda       -0.7573218E-05
   maximum displ.:     0.0322528 α      in ANC's #2, #8, #6, ...

........................................................................
.............................. CYCLE   16 ..............................
........................................................................
   1    -54.3434239 -0.543434E+02  0.190E-02    2.24       0.0  T
   2    -54.3434244 -0.500459E-06  0.115E-02    2.23       1.5  T
   3    -54.3434230  0.136991E-05  0.741E-03    2.24       2.3  T
   4    -54.3434246 -0.161380E-05  0.203E-03    2.24       8.5  T
   5    -54.3434248 -0.130889E-06  0.299E-04    2.24      57.3  T
   6    -54.3434248 -0.223194E-08  0.133E-04    2.24     128.8  T
     SCC iter.                  ...        0 min,  0.750 sec
     gradient                   ...        0 min,  0.154 sec
 * total energy  :   -53.4207333 Eh     change       -0.5914198E-05 Eh
   gradient norm :     0.0020360 Eh/α   predicted    -0.3791245E-05 ( -35.90%)
   displ. norm   :     0.0212728 α      lambda       -0.5098324E-05
   maximum displ.:     0.0157323 α      in ANC's #2, #6, #8, ...

........................................................................
.............................. CYCLE   17 ..............................
........................................................................
   1    -54.3429510 -0.543430E+02  0.876E-03    2.24       0.0  T
   2    -54.3429511 -0.665545E-07  0.513E-03    2.24       3.3  T
   3    -54.3429509  0.141611E-06  0.277E-03    2.24       6.2  T
   4    -54.3429511 -0.172535E-06  0.579E-04    2.24      29.6  T
   5    -54.3429511 -0.949204E-08  0.189E-04    2.24      90.8  T
     SCC iter.                  ...        0 min,  0.577 sec
     gradient                   ...        0 min,  0.157 sec
 * total energy  :   -53.4207364 Eh     change       -0.3141082E-05 Eh
   gradient norm :     0.0010287 Eh/α   predicted    -0.2551425E-05 ( -18.77%)
   displ. norm   :     0.0234941 α      lambda       -0.2155074E-05
   maximum displ.:     0.0177190 α      in ANC's #2, #6, #4, ...

........................................................................
.............................. CYCLE   18 ..............................
........................................................................
   1    -54.3427850 -0.543428E+02  0.780E-03    2.24       0.0  T
   2    -54.3427850 -0.450129E-07  0.476E-03    2.23       3.6  T
   3    -54.3427847  0.280757E-06  0.340E-03    2.24       5.0  T
   4    -54.3427851 -0.340775E-06  0.564E-04    2.23      30.4  T
   5    -54.3427851 -0.988621E-08  0.156E-04    2.24     110.1  T
     SCC iter.                  ...        0 min,  0.523 sec
     gradient                   ...        0 min,  0.149 sec
 * total energy  :   -53.4207381 Eh     change       -0.1703120E-05 Eh
   gradient norm :     0.0006454 Eh/α   predicted    -0.1082649E-05 ( -36.43%)
   displ. norm   :     0.0166304 α      lambda       -0.7570275E-06
   maximum displ.:     0.0110266 α      in ANC's #3, #1, #2, ...

   *** GEOMETRY OPTIMIZATION CONVERGED AFTER 18 ITERATIONS ***

------------------------------------------------------------------------
 total energy gain   :        -0.0242776 Eh      -15.2344 kcal/mol
 total RMSD          :         0.5299858 a0        0.2805 Å
 total power (kW/mol):        -3.5411593 (step)   -3.1547 (real)
------------------------------------------------------------------------

 ANCopt (total)                0 d,  0 h,  0 min, 20.205 sec
 optimizer setup                ...        0 min,  0.000 sec (  0.001%)
 model hessian                  ...        0 min,  0.014 sec (  0.069%)
 ANC generation                 ...        0 min,  0.004 sec (  0.021%)
 coordinate transformation      ...        0 min,  0.066 sec (  0.325%)
 single point calculation       ...        0 min, 19.543 sec ( 96.725%)
 optimization log               ...        0 min,  0.004 sec (  0.020%)
 hessian update                 ...        0 min,  0.487 sec (  2.411%)
 rational function              ...        0 min,  0.077 sec (  0.380%)

================
 final structure:
================
34
 xtb: 6.5.0 (97a52f5)
H            0.77860207309649       -1.12322453036801       -1.28627036787616
N            0.77801798454902       -0.84822770529111       -0.30821648971841
C           -0.46135735309360       -0.33695339705598        0.01010390195169
C           -1.55513199626477       -1.19988830666419       -0.51884406743710
C            2.02991553916389       -0.35475375982858        0.07108054205344
C           -0.81132088783781        0.87170581383104        0.54255737166974
C           -2.16724390291856        1.24112756729735        0.88765208412309
N           -0.90962539225827        3.07184577407140        1.06511925971039
C           -0.02217206014413        2.11488487217281        0.62848100330059
C           -2.17674159717131        2.54537667869809        1.21452681199585
C           -1.92587661726821       -2.36684599580405        0.13800687394457
C           -2.17299262769011       -0.86327294093703       -1.71755182899564
C           -2.92173119372382       -3.17310264714880       -0.38466329161006
C           -3.16324216126963       -1.67496563126714       -2.24099909458097
C           -3.54081223940652       -2.82890562713784       -1.57448708583067
C            2.23281728049857        0.27368971766879        1.30052557230156
C            3.14458979579619       -0.83000764177527       -0.62006105885931
C            3.51322076694623        0.57404056137305        1.72365726747346
C            4.42164665742789       -0.51728215197460       -0.19914843196791
C            4.61176090276483        0.20473069183395        0.96719670778853
H           -0.65648109747354        4.03570031903708        1.20219605816712
O            1.12376665109479        2.35515150399488        0.28857411637234
H           -1.43755807288521       -2.63176262831274        1.06418872379326
H           -1.88051602698832        0.04257746668358       -2.22927164484053
H           -3.21303648845510       -4.07333070809698        0.13610910677267
H           -3.64079484433642       -1.40671963961843       -3.17185083590895
H           -4.31629163410180       -3.45950953662150       -1.98335045429866
H            1.39266942281177        0.49564456632654        1.93730168362330
H            3.00133281404139       -1.40075050477243       -1.52869344325389
H            3.65267014725051        1.08807479503323        2.66307922375321
H            5.27151453864984       -0.85986063126607       -0.77131101199288
H           -2.99606899389132        0.56203335820688        0.91804381567197
H           -2.98978556038938        3.16636977992346        1.53967201321877
H            5.60965018347618        0.44940851778905        1.29870496948742

 Bond Distances (Angstroems)
 ---------------------------
H1-N2=1.0160         N2-H1=1.0160         N2-C3=1.3780         N2-C5=1.3981         C3-N2=1.3780         C3-C4=1.4902         
C3-C6=1.3663         C4-C3=1.4902         C4-C11=1.3895        C4-C12=1.3900        C5-N2=1.3981         C5-C16=1.3956        
C5-C17=1.3950        C6-C3=1.3663         C6-C7=1.4471         C6-C9=1.4750         C7-C6=1.4471         C7-C10=1.3446        
C7-H32=1.0719        N8-C9=1.3762         N8-C10=1.3802        N8-H21=1.0059        C9-C6=1.4750         C9-N8=1.3762         
C9-O22=1.2192        C10-C7=1.3446        C10-N8=1.3802        C10-H33=1.0735       C11-C4=1.3895        C11-C13=1.3838       
C11-H23=1.0800       C12-C4=1.3900        C12-C14=1.3833       C12-H24=1.0807       C13-C11=1.3838       C13-C15=1.3847       
C13-H25=1.0800       C14-C12=1.3833       C14-C15=1.3851       C14-H26=1.0800       C15-C13=1.3847       C15-C14=1.3851       
C15-H27=1.0799       C16-C5=1.3956        C16-C18=1.3816       C16-H28=1.0773       C17-C5=1.3950        C17-C19=1.3805       
C17-H29=1.0825       C18-C16=1.3816       C18-C20=1.3840       C18-H30=1.0799       C19-C17=1.3805       C19-C20=1.3848       
C19-H31=1.0803       C20-C18=1.3840       C20-C19=1.3848       C20-H34=1.0796       H21-N8=1.0059        O22-C9=1.2192        
H23-C11=1.0800       H24-C12=1.0807       H25-C13=1.0800       H26-C14=1.0800       H27-C15=1.0799       H28-C16=1.0773       
H29-C17=1.0825       H30-C18=1.0799       H31-C19=1.0803       H32-C7=1.0719        H33-C10=1.0735       H34-C20=1.0796       
 C  H  Rav=1.0788 sigma=0.0030  Rmin=1.0719  Rmax=1.0825    12
 C  C  Rav=1.3977 sigma=0.0364  Rmin=1.3446  Rmax=1.4902    17
 N  H  Rav=1.0110 sigma=0.0050  Rmin=1.0059  Rmax=1.0160     2
 N  C  Rav=1.3831 sigma=0.0087  Rmin=1.3762  Rmax=1.3981     4
 O  C  Rav=1.2192 sigma=0.0000  Rmin=1.2192  Rmax=1.2192     1

 selected bond angles (degree)
 --------------------
C3-N2-H1=108.86                C5-N2-H1=110.87                C5-N2-C3=127.72                C4-C3-N2=111.30                
C6-C3-N2=130.44                C6-C3-C4=117.55                C11-C4-C3=120.96               C12-C4-C3=119.48               
C12-C4-C11=119.50              C16-C5-N2=121.88               C17-C5-N2=117.44               C17-C5-C16=118.27              
C7-C6-C3=123.97                C9-C6-C3=129.14                C9-C6-C7=105.80                C10-C7-C6=108.19               
H32-C7-C6=124.72               H32-C7-C10=127.02              C10-N8-C9=111.17               H21-N8-C9=123.18               
H21-N8-C10=125.57              N8-C9-C6=105.04                O22-C9-C6=130.75               O22-C9-N8=123.88               
N8-C10-C7=109.71               H33-C10-C7=129.80              H33-C10-N8=120.49              

 selected dihedral angles (degree)
 ---------------------------------
C4-C3-N2-H1= 45.72            C4-C3-N2-C5=183.46            C6-C3-N2-H1=235.78            C6-C3-N2-C5= 13.52            
C11-C4-C3-N2= 79.23           C11-C4-C3-C6=250.61           C12-C4-C3-N2=262.09           C12-C4-C3-C6= 73.46           
C16-C5-N2-H1=170.14           C16-C5-N2-C3= 33.07           C17-C5-N2-H1=332.23           C17-C5-N2-C3=195.16           
C7-C6-C3-N2=183.33            C7-C6-C3-C4= 13.91            C9-C6-C3-N2= 17.02            C9-C6-C3-C4=207.59            
C10-C7-C6-C3=188.03           C10-C7-C6-C9=357.04           H32-C7-C6-C3= 10.83           H32-C7-C6-C9=179.84           
N8-C9-C6-C3=171.15            N8-C9-C6-C7=  2.91            O22-C9-C6-C3=357.65           O22-C9-C6-C7=189.41           
C6-C9-N8-C10=358.08           C6-C9-N8-H21=181.19           O22-C9-N8-C10=172.15          O22-C9-N8-H21=355.26          
N8-C10-C7-C6=  1.86           N8-C10-C7-H32=178.98          H33-C10-C7-C6=181.24          H33-C10-C7-H32=358.36         
C7-C10-N8-C9=  0.08           C7-C10-N8-H21=176.88          H33-C10-N8-C9=180.64          H33-C10-N8-H21=357.44         
           -------------------------------------------------
          |                Final Singlepoint                |
           -------------------------------------------------

          ...................................................
          :                      SETUP                      :
          :.................................................:
          :  # basis functions                  94          :
          :  # atomic orbitals                  94          :
          :  # shells                           54          :
          :  # electrons                        98          :
          :  max. iterations                   250          :
          :  Hamiltonian                  GFN2-xTB          :
          :  restarted?                      false          :
          :  GBSA solvation                  false          :
          :  PC potential                    false          :
          :  electronic temp.          300.0000000     K    :
          :  accuracy                    1.0000000          :
          :  -> integral cutoff          0.2500000E+02      :
          :  -> integral neglect         0.1000000E-07      :
          :  -> SCF convergence          0.1000000E-05 Eh   :
          :  -> wf. convergence          0.1000000E-03 e    :
          :  Broyden damping             0.4000000          :
          ...................................................

 iter      E             dE          RMSdq      gap      omega  full diag
   1    -54.3427851 -0.543428E+02  0.699E-05    2.24       0.0  T
   2    -54.3427851 -0.115961E-10  0.432E-05    2.24     397.1  T
   3    -54.3427851  0.852651E-12  0.282E-05    2.24     607.9  T

   *** convergence criteria satisfied after 3 iterations ***

         #    Occupation            Energy/Eh            Energy/eV
      -------------------------------------------------------------
         1        2.0000           -0.6838443             -18.6084
       ...           ...                  ...                  ...
        43        2.0000           -0.4156076             -11.3093
        44        2.0000           -0.4146718             -11.2838
        45        2.0000           -0.4105135             -11.1706
        46        2.0000           -0.3936618             -10.7121
        47        2.0000           -0.3840757             -10.4512
        48        2.0000           -0.3697117             -10.0604
        49        2.0000           -0.3510798              -9.5534 (HOMO)
        50                         -0.2689432              -7.3183 (LUMO)
        51                         -0.2343657              -6.3774
        52                         -0.2338339              -6.3629
        53                         -0.2107128              -5.7338
        54                         -0.2028141              -5.5189
       ...                                ...                  ...
        94                          0.7488082              20.3761
      -------------------------------------------------------------
                  HL-Gap            0.0821366 Eh            2.2351 eV
             Fermi-level           -0.3100115 Eh           -8.4358 eV

 SCC (total)                   0 d,  0 h,  0 min,  0.634 sec
 SCC setup                      ...        0 min,  0.025 sec (  3.882%)
 Dispersion                     ...        0 min,  0.020 sec (  3.221%)
 classical contributions        ...        0 min,  0.014 sec (  2.181%)
 integral evaluation            ...        0 min,  0.026 sec (  4.145%)
 iterations                     ...        0 min,  0.386 sec ( 60.898%)
 molecular gradient             ...        0 min,  0.149 sec ( 23.466%)
 printout                       ...        0 min,  0.014 sec (  2.156%)

         :::::::::::::::::::::::::::::::::::::::::::::::::::::
         ::                     SUMMARY                     ::
         :::::::::::::::::::::::::::::::::::::::::::::::::::::
         :: total energy             -53.420738096040 Eh    ::
         :: gradient norm              0.000645861698 Eh/a0 ::
         :: HOMO-LUMO gap              2.235051463352 eV    ::
         ::.................................................::
         :: SCC energy               -54.342785097241 Eh    ::
         :: -> isotropic ES            0.045346657294 Eh    ::
         :: -> anisotropic ES          0.005721471745 Eh    ::
         :: -> anisotropic XC          0.027887494840 Eh    ::
         :: -> dispersion             -0.039148775936 Eh    ::
         :: repulsion energy           0.921779617668 Eh    ::
         :: add. restraining           0.000076639559 Eh    ::
         :: total charge              -0.000000000000 e     ::
         :::::::::::::::::::::::::::::::::::::::::::::::::::::

           -------------------------------------------------
          |                Property Printout                |
           -------------------------------------------------

    * Orbital Energies and Occupations

         #    Occupation            Energy/Eh            Energy/eV
      -------------------------------------------------------------
         1        2.0000           -0.6838443             -18.6084
       ...           ...                  ...                  ...
        37        2.0000           -0.4556964             -12.4001
        38        2.0000           -0.4494870             -12.2312
        39        2.0000           -0.4369680             -11.8905
        40        2.0000           -0.4336520             -11.8003
        41        2.0000           -0.4255616             -11.5801
        42        2.0000           -0.4166102             -11.3365
        43        2.0000           -0.4156076             -11.3093
        44        2.0000           -0.4146718             -11.2838
        45        2.0000           -0.4105135             -11.1706
        46        2.0000           -0.3936618             -10.7121
        47        2.0000           -0.3840757             -10.4512
        48        2.0000           -0.3697117             -10.0604
        49        2.0000           -0.3510798              -9.5534 (HOMO)
        50                         -0.2689432              -7.3183 (LUMO)
        51                         -0.2343657              -6.3774
        52                         -0.2338339              -6.3629
        53                         -0.2107128              -5.7338
        54                         -0.2028141              -5.5189
        55                         -0.1687962              -4.5932
        56                         -0.1249113              -3.3990
        57                         -0.1040518              -2.8314
        58                         -0.0793831              -2.1601
        59                          0.0309290               0.8416
        60                          0.0417474               1.1360
       ...                                ...                  ...
        94                          0.7488082              20.3761
      -------------------------------------------------------------
                  HL-Gap            0.0821366 Eh            2.2351 eV
             Fermi-level           -0.3100115 Eh           -8.4358 eV

     #   Z          covCN         q      C6AA      α(0)
     1   1 H        0.860     0.179     1.220     1.731
     2   7 N        2.700    -0.139    24.006     7.277
     3   6 C        2.887     0.076    26.301     8.408
     4   6 C        2.989     0.004    27.919     8.667
     5   6 C        2.903     0.076    26.304     8.409
     6   6 C        3.068    -0.057    29.332     8.881
     7   6 C        2.987    -0.075    29.854     8.963
     8   7 N        2.776    -0.152    24.275     7.318
     9   6 C        2.855     0.265    22.540     7.781
    10   6 C        2.969     0.008    27.831     8.653
    11   6 C        2.923    -0.030    28.740     8.791
    12   6 C        2.924    -0.032    28.797     8.800
    13   6 C        2.919    -0.028    28.694     8.784
    14   6 C        2.919    -0.028    28.692     8.784
    15   6 C        2.920    -0.029    28.725     8.789
    16   6 C        2.923    -0.024    28.606     8.771
    17   6 C        2.929    -0.052    29.302     8.877
    18   6 C        2.920    -0.024    28.609     8.771
    19   6 C        2.919    -0.029    28.724     8.789
    20   6 C        2.920    -0.035    28.870     8.811
    21   1 H        0.860     0.170     1.271     1.766
    22   8 O        0.857    -0.449    22.680     6.385
    23   1 H        0.926     0.038     2.469     2.457
    24   1 H        0.926     0.033     2.542     2.493
    25   1 H        0.926     0.036     2.497     2.471
    26   1 H        0.926     0.036     2.502     2.474
    27   1 H        0.926     0.035     2.514     2.479
    28   1 H        0.926     0.039     2.460     2.453
    29   1 H        0.925     0.022     2.699     2.569
    30   1 H        0.926     0.034     2.526     2.485
    31   1 H        0.926     0.031     2.578     2.511
    32   1 H        0.926     0.030     2.581     2.512
    33   1 H        0.926     0.036     2.509     2.477
    34   1 H        0.926     0.031     2.573     2.509

 Mol. C6AA /au·bohr⁶  :      15848.454013
 Mol. C8AA /au·bohr⁸  :     391456.045745
 Mol. α(0) /au        :        202.097676


Wiberg/Mayer (AO) data.
largest (>0.10) Wiberg bond orders for each atom

 ---------------------------------------------------------------------------
     #   Z sym  total        # sym  WBO       # sym  WBO       # sym  WBO
 ---------------------------------------------------------------------------
     1   1 H    0.965 --     2 N    0.920
     2   7 N    3.448 --     3 C    1.174     5 C    1.086     1 H    0.920
     3   6 C    3.969 --     6 C    1.526     2 N    1.174     4 C    0.994
     4   6 C    3.988 --    11 C    1.407    12 C    1.402     3 C    0.994
                            15 C    0.110
     5   6 C    3.962 --    17 C    1.362    16 C    1.356     2 N    1.086
     6   6 C    3.966 --     3 C    1.526     7 C    1.144     9 C    1.041
     7   6 C    3.976 --    10 C    1.697     6 C    1.144    32 H    0.971
     8   7 N    3.504 --     9 C    1.152    10 C    1.136    21 H    0.942
                            22 O    0.143
     9   6 C    3.949 --    22 O    1.630     8 N    1.152     6 C    1.041
    10   6 C    3.946 --     7 C    1.697     8 N    1.136    33 H    0.969
    11   6 C    3.988 --    13 C    1.443     4 C    1.407    23 H    0.970
                            14 C    0.112
    12   6 C    3.990 --    14 C    1.445     4 C    1.402    24 H    0.970
                            13 C    0.112
    13   6 C    3.991 --    11 C    1.443    15 C    1.440    25 H    0.970
                            12 C    0.112
    14   6 C    3.991 --    12 C    1.445    15 C    1.438    26 H    0.970
                            11 C    0.112
    15   6 C    3.990 --    13 C    1.440    14 C    1.438    27 H    0.971
                             4 C    0.110
    16   6 C    3.991 --    18 C    1.450     5 C    1.356    28 H    0.967
                            19 C    0.104
    17   6 C    3.983 --    19 C    1.458     5 C    1.362    29 H    0.967
                            18 C    0.104
    18   6 C    3.992 --    16 C    1.450    20 C    1.434    30 H    0.971
                            17 C    0.104
    19   6 C    3.991 --    17 C    1.458    20 C    1.426    31 H    0.971
                            16 C    0.104
    20   6 C    3.980 --    18 C    1.434    19 C    1.426    34 H    0.972
    21   1 H    0.970 --     8 N    0.942
    22   8 O    2.004 --     9 C    1.630     8 N    0.143
    23   1 H    0.998 --    11 C    0.970
    24   1 H    0.999 --    12 C    0.970
    25   1 H    0.998 --    13 C    0.970
    26   1 H    0.998 --    14 C    0.970
    27   1 H    0.998 --    15 C    0.971
    28   1 H    0.998 --    16 C    0.967
    29   1 H    0.999 --    17 C    0.967
    30   1 H    0.998 --    18 C    0.971
    31   1 H    0.999 --    19 C    0.971
    32   1 H    0.999 --     7 C    0.971
    33   1 H    0.998 --    10 C    0.969
    34   1 H    0.999 --    20 C    0.972
 ---------------------------------------------------------------------------

Topologies differ in total number of bonds
Writing topology from bond orders to xtbtopo.mol

molecular dipole:
                 x           y           z       tot (Debye)
 q only:       -0.906      -0.888      -0.131
   full:       -1.140      -0.608      -0.225       3.333
molecular quadrupole (traceless):
                xx          xy          yy          xz          yz          zz
 q only:       -1.052      -5.161       0.212       0.566       4.421       0.840
  q+dip:       -3.374      -4.748       2.139       0.967       7.741       1.236
   full:       -3.953      -6.211       2.038       0.245       6.404       1.916

           -------------------------------------------------
          |                Geometry Summary                 |
           -------------------------------------------------

      molecular mass/u    :      262.3064921
   center of mass at/Å    :        0.0118731      -0.0466718       0.0676478
  moments of inertia/u·Å² :        0.9460986E+03   0.1992061E+04   0.2677453E+04
rotational constants/cm⁻¹ :        0.1781805E-01   0.8462409E-02   0.6296145E-02

 * 33 selected distances

     #   Z          #   Z                                           value/Å
     1   1 H        2   7 N                                       1.0159789
     2   7 N        3   6 C                                       1.3779626
     2   7 N        5   6 C                                       1.3980811 (max)
     3   6 C        6   6 C                                       1.3663230
     8   7 N        9   6 C                                       1.3762271
     7   6 C       10   6 C                                       1.3446202
     8   7 N       10   6 C                                       1.3802450
     4   6 C       11   6 C                                       1.3894946
     4   6 C       12   6 C                                       1.3899505
    11   6 C       13   6 C                                       1.3838210
    12   6 C       14   6 C                                       1.3832702
    13   6 C       15   6 C                                       1.3847072
    14   6 C       15   6 C                                       1.3850543
     5   6 C       16   6 C                                       1.3955808
     5   6 C       17   6 C                                       1.3950061
    16   6 C       18   6 C                                       1.3815515
    17   6 C       19   6 C                                       1.3805214
    18   6 C       20   6 C                                       1.3839845
    19   6 C       20   6 C                                       1.3848492
     8   7 N       21   1 H                                       1.0059264 (min)
     9   6 C       22   8 O                                       1.2191967
    11   6 C       23   1 H                                       1.0800226
    12   6 C       24   1 H                                       1.0807243
    13   6 C       25   1 H                                       1.0800340
    14   6 C       26   1 H                                       1.0800452
    15   6 C       27   1 H                                       1.0799070
    16   6 C       28   1 H                                       1.0773098
    17   6 C       29   1 H                                       1.0825355
    18   6 C       30   1 H                                       1.0799033
    19   6 C       31   1 H                                       1.0802804
     7   6 C       32   1 H                                       1.0719346
    10   6 C       33   1 H                                       1.0734955
    20   6 C       34   1 H                                       1.0796056

 * 5 distinct bonds (by element types)

   Z      Z             #   av. dist./Å        max./Å        min./Å
   1 H    6 C          12     1.0788165     1.0825355     1.0719346
   6 C    6 C          14     1.3820525     1.3955808     1.3446202
   1 H    7 N           2     1.0109526     1.0159789     1.0059264
   6 C    7 N           4     1.3831289     1.3980811     1.3762271
   6 C    8 O           1     1.2191967     1.2191967     1.2191967


optimized geometry written to: xtbopt.xyz


           -------------------------------------------------
          | TOTAL ENERGY              -53.420738096040 Eh   |
          | GRADIENT NORM               0.000645861698 Eh/α |
          | HOMO-LUMO GAP               2.235051463352 eV   |
           -------------------------------------------------
########################################################################
[WARNING] Runtime exception occurred
-1- restart_readRestart: Number of electron missmatch in restart file.
########################################################################

------------------------------------------------------------------------
 * finished run on 2023/11/18 at 09:08:59.526     
------------------------------------------------------------------------
 total:
 * wall-time:     0 d,  0 h,  0 min, 22.440 sec
 *  cpu-time:     0 d,  0 h, 19 min, 25.219 sec
 * ratio c/w:    51.926 speedup
 SCF:
 * wall-time:     0 d,  0 h,  0 min,  1.397 sec
 *  cpu-time:     0 d,  0 h,  1 min, 12.389 sec
 * ratio c/w:    51.808 speedup
 ANC optimizer:
 * wall-time:     0 d,  0 h,  0 min, 20.867 sec
 *  cpu-time:     0 d,  0 h, 18 min,  4.153 sec
 * ratio c/w:    51.955 speedup

