      -----------------------------------------------------------      
     |                   =====================                   |     
     |                           x T B                           |     
     |                   =====================                   |     
     |                         S. Grimme                         |     
     |          Mulliken Center for Theoretical Chemistry        |     
     |                    University of Bonn                     |     
      -----------------------------------------------------------      

   * xtb version 6.5.0 (97a52f5) compiled by 'conda@d2599ee0d4f4' on 2022-05-15

   xtb is free software: you can redistribute it and/or modify it under
   the terms of the GNU Lesser General Public License as published by
   the Free Software Foundation, either version 3 of the License, or
   (at your option) any later version.
   
   xtb is distributed in the hope that it will be useful,
   but WITHOUT ANY WARRANTY; without even the implied warranty of
   MERCHANTABILITY or FITNESS FOR A PARTICULAR PURPOSE.  See the
   GNU Lesser General Public License for more details.
   
   Cite this work as:
   * C. Bannwarth, E. Caldeweyher, S. Ehlert, A. Hansen, P. Pracht,
     J. Seibert, S. Spicher, S. Grimme, WIREs Comput. Mol. Sci., 2020, 11,
     e01493. DOI: 10.1002/wcms.1493
   
   for GFN2-xTB:
   * C. Bannwarth, S. Ehlert and S. Grimme., J. Chem. Theory Comput., 2019,
     15, 1652-1671. DOI: 10.1021/acs.jctc.8b01176
   for GFN1-xTB:
   * S. Grimme, C. Bannwarth, P. Shushkov, J. Chem. Theory Comput., 2017,
     13, 1989-2009. DOI: 10.1021/acs.jctc.7b00118
   for GFN0-xTB:
   * P. Pracht, E. Caldeweyher, S. Ehlert, S. Grimme, ChemRxiv, 2019, preprint.
     DOI: 10.26434/chemrxiv.8326202.v1
   for GFN-FF:
   * S. Spicher and S. Grimme, Angew. Chem. Int. Ed., 2020, 59, 15665-15673.
     DOI: 10.1002/anie.202004239
   
   for ALPB and GBSA implicit solvation:
   * S. Ehlert, M. Stahn, S. Spicher, S. Grimme, J. Chem. Theory Comput.,
     2021, 17, 4250-4261. DOI: 10.1021/acs.jctc.1c00471
   
   for DFT-D4:
   * E. Caldeweyher, C. Bannwarth and S. Grimme, J. Chem. Phys., 2017,
     147, 034112. DOI: 10.1063/1.4993215
   * E. Caldeweyher, S. Ehlert, A. Hansen, H. Neugebauer, S. Spicher,
     C. Bannwarth and S. Grimme, J. Chem. Phys., 2019, 150, 154122.
     DOI: 10.1063/1.5090222
   * E. Caldeweyher, J.-M. Mewes, S. Ehlert and S. Grimme, Phys. Chem. Chem. Phys.
     2020, 22, 8499-8512. DOI: 10.1039/D0CP00502A
   
   for sTDA-xTB:
   * S. Grimme and C. Bannwarth, J. Chem. Phys., 2016, 145, 054103.
     DOI: 10.1063/1.4959605
   
   in the mass-spec context:
   * V. Asgeirsson, C. Bauer and S. Grimme, Chem. Sci., 2017, 8, 4879.
     DOI: 10.1039/c7sc00601b
   * J. Koopman and S. Grimme, ACS Omega 2019, 4, 12, 15120-15133.
     DOI: 10.1021/acsomega.9b02011
   
   for metadynamics refer to:
   * S. Grimme, J. Chem. Theory Comput., 2019, 155, 2847-2862
     DOI: 10.1021/acs.jctc.9b00143
   
   for SPH calculations refer to:
   * S. Spicher and S. Grimme, J. Chem. Theory Comput., 2021, 17, 1701-1714
     DOI: 10.1021/acs.jctc.0c01306
   
   with help from (in alphabetical order)
   P. Atkinson, C. Bannwarth, F. Bohle, G. Brandenburg, E. Caldeweyher
   M. Checinski, S. Dohm, S. Ehlert, S. Ehrlich, I. Gerasimov, C. Hölzer
   A. Katbashev, J. Koopman, C. Lavigne, S. Lehtola, F. März, M. Müller,
   F. Musil, H. Neugebauer, J. Pisarek, C. Plett, P. Pracht, F. Pultar,
   J. Seibert, P. Shushkov, S. Spicher, M. Stahn, M. Steiner, T. Strunk,
   J. Stückrath, T. Rose, and J. Unsleber
   
 * started run on 2023/11/18 at 09:07:35.430     

           -------------------------------------------------
          |                Calculation Setup                |
           -------------------------------------------------

          program call               : /home/liuchw/anaconda3/envs/xtbenv/bin/xtb --gfn 2 --chrg 0 --uhf 0 1_7_Index_0-opt-2-3-286_preQMOPTprefit_xyzformat.xyz --opt --input xtb-opt-2-3-286_constr.txt
          hostname                   : node165.bme.utexas.edu
          coordinate file            : 1_7_Index_0-opt-2-3-286_preQMOPTprefit_xyzformat.xyz
          omp threads                :                    64

   ID    Z sym.   atoms
    1    1 H      1, 21, 23-34
    2    7 N      2, 8
    3    6 C      3-7, 9-20
    4    8 O      22
constraining angle 1 2 3 4 to  286.0657930°, actual value:  -73.9342070°
constraining angle 5 2 3 4 to   63.2144365°, actual value:   63.2144365°
constraining angle 1 2 5 17 to  331.9499318°, actual value:  -28.0500682°
constraining angle 3 2 5 17 to  195.1750629°, actual value: -164.8249371°
constraining angle 2 3 4 12 to  262.0746754°, actual value:  -97.9253246°
constraining angle 2 3 6 7 to  183.0327671°, actual value: -176.9672329°

           -------------------------------------------------
          |                 G F N 2 - x T B                 |
           -------------------------------------------------

        Reference                      10.1021/acs.jctc.8b01176
      * Hamiltonian:
        H0-scaling (s, p, d)           1.850000    2.230000    2.230000
        zeta-weighting                 0.500000
      * Dispersion:
        s8                             2.700000
        a1                             0.520000
        a2                             5.000000
        s9                             5.000000
      * Repulsion:
        kExp                           1.500000    1.000000
        rExp                           1.000000
      * Coulomb:
        alpha                          2.000000
        third order                    shell-resolved
        anisotropic                    true
        a3                             3.000000
        a5                             4.000000
        cn-shift                       1.200000
        cn-exp                         4.000000
        max-rad                        5.000000

q/qsh data taken from xtbrestart
CAMM data taken from xtbrestart

          ...................................................
          :                      SETUP                      :
          :.................................................:
          :  # basis functions                  94          :
          :  # atomic orbitals                  94          :
          :  # shells                           54          :
          :  # electrons                        98          :
          :  max. iterations                   250          :
          :  Hamiltonian                  GFN2-xTB          :
          :  restarted?                       true          :
          :  GBSA solvation                  false          :
          :  PC potential                    false          :
          :  electronic temp.          300.0000000     K    :
          :  accuracy                    1.0000000          :
          :  -> integral cutoff          0.2500000E+02      :
          :  -> integral neglect         0.1000000E-07      :
          :  -> SCF convergence          0.1000000E-05 Eh   :
          :  -> wf. convergence          0.1000000E-03 e    :
          :  Broyden damping             0.4000000          :
          ...................................................

 iter      E             dE          RMSdq      gap      omega  full diag
   1    -54.1996860 -0.541997E+02  0.304E+00    2.07       0.0  T
   2    -54.1938953  0.579067E-02  0.187E+00    1.78       1.0  T
   3    -54.1077009  0.861944E-01  0.181E+00    1.67       1.0  T
   4    -54.2120256 -0.104325E+00  0.191E-01    1.54       1.0  T
   5    -54.2130333 -0.100774E-02  0.675E-02    1.56       1.0  T
   6    -54.2131378 -0.104447E-03  0.323E-02    1.57       1.0  T
   7    -54.2131424 -0.458154E-05  0.144E-02    1.58       1.2  T
   8    -54.2131456 -0.321120E-05  0.519E-03    1.58       3.3  T
   9    -54.2131460 -0.402457E-06  0.189E-03    1.58       9.1  T
  10    -54.2131460 -0.346613E-07  0.810E-04    1.58      21.2  T
  11    -54.2131460 -0.857519E-08  0.301E-04    1.58      57.1  T

   *** convergence criteria satisfied after 11 iterations ***

         #    Occupation            Energy/Eh            Energy/eV
      -------------------------------------------------------------
         1        2.0000           -0.6921419             -18.8341
       ...           ...                  ...                  ...
        43        2.0000           -0.4125940             -11.2273
        44        2.0000           -0.4115958             -11.2001
        45        2.0000           -0.4066549             -11.0656
        46        2.0000           -0.3932636             -10.7012
        47        2.0000           -0.3868393             -10.5264
        48        2.0000           -0.3728194             -10.1449
        49        2.0000           -0.3505630              -9.5393 (HOMO)
        50                         -0.2924658              -7.9584 (LUMO)
        51                         -0.2411506              -6.5620
        52                         -0.2374225              -6.4606
        53                         -0.2127002              -5.7879
        54                         -0.2056241              -5.5953
       ...                                ...                  ...
        94                          0.6710658              18.2606
      -------------------------------------------------------------
                  HL-Gap            0.0580972 Eh            1.5809 eV
             Fermi-level           -0.3215144 Eh           -8.7489 eV

 SCC (total)                   0 d,  0 h,  0 min,  1.695 sec
 SCC setup                      ...        0 min,  0.005 sec (  0.303%)
 Dispersion                     ...        0 min,  0.016 sec (  0.920%)
 classical contributions        ...        0 min,  0.016 sec (  0.949%)
 integral evaluation            ...        0 min,  0.032 sec (  1.911%)
 iterations                     ...        0 min,  1.467 sec ( 86.539%)
 molecular gradient             ...        0 min,  0.146 sec (  8.634%)
 printout                       ...        0 min,  0.012 sec (  0.729%)

         :::::::::::::::::::::::::::::::::::::::::::::::::::::
         ::                     SUMMARY                     ::
         :::::::::::::::::::::::::::::::::::::::::::::::::::::
         :: total energy             -53.395262792219 Eh    ::
         :: gradient norm              0.088409864736 Eh/a0 ::
         :: HOMO-LUMO gap              1.580904358488 eV    ::
         ::.................................................::
         :: SCC energy               -54.213146024072 Eh    ::
         :: -> isotropic ES            0.042108956976 Eh    ::
         :: -> anisotropic ES          0.009769902936 Eh    ::
         :: -> anisotropic XC          0.031707551962 Eh    ::
         :: -> dispersion             -0.038050798544 Eh    ::
         :: repulsion energy           0.817351964239 Eh    ::
         :: add. restraining           0.000000000000 Eh    ::
         :: total charge              -0.000000000000 e     ::
         :::::::::::::::::::::::::::::::::::::::::::::::::::::

      ----------------------------------------------------------- 
     |                   =====================                   |
     |                        A N C O P T                        |
     |                   =====================                   |
     |               Approximate Normal Coordinate               |
     |                Rational Function Optimizer                |
      ----------------------------------------------------------- 

          ...................................................
          :                      SETUP                      :
          :.................................................:
          :   optimization level            normal          :
          :   max. optcycles                   200          :
          :   ANC micro-cycles                  20          :
          :   degrees of freedom                96          :
          :.................................................:
          :   RF solver                   davidson          :
          :   write xtbopt.log                true          :
          :   linear?                        false          :
          :   energy convergence         0.5000000E-05 Eh   :
          :   grad. convergence          0.1000000E-02 Eh/α :
          :   maximium RF displ.         1.0000000          :
          :   Hlow (freq-cutoff)         0.1000000E-01      :
          :   Hmax (freq-cutoff)         5.0000000          :
          :   S6 in model hess.         20.0000000          :
          ...................................................

generating ANC from model Hessian ...
Using Lindh-Hessian (1995)
 Shifting diagonal of input Hessian by    9.2023333544533278E-003
 Lowest  eigenvalues of input Hessian
    0.000000    0.000000    0.000000    0.000000    0.000000    0.000000
    0.010000    0.010303    0.010919    0.011271    0.011738    0.013248
    0.015201    0.016447    0.018530    0.022396    0.023366    0.024216
 Highest eigenvalues
    2.299708    3.027774    3.225879    5.616756   13.487907   14.580043


........................................................................
.............................. CYCLE    1 ..............................
........................................................................
   1    -54.2131460 -0.542131E+02  0.137E-04    1.58       0.0  T
   2    -54.2131460 -0.692566E-10  0.928E-05    1.58     184.9  T
   3    -54.2131460 -0.242295E-10  0.677E-05    1.58     253.2  T
     SCC iter.                  ...        0 min,  0.303 sec
     gradient                   ...        0 min,  0.162 sec
 * total energy  :   -53.3952628 Eh     change       -0.6872440E-09 Eh
   gradient norm :     0.0884106 Eh/α   predicted     0.0000000E+00 (-100.00%)
   displ. norm   :     0.3675116 α      lambda       -0.2023835E-01
   maximum displ.:     0.1299093 α      in ANC's #50, #25, #15, ...

........................................................................
.............................. CYCLE    2 ..............................
........................................................................
   1    -54.3007385 -0.543007E+02  0.255E-01    1.72       0.0  T
   2    -54.3008733 -0.134802E-03  0.154E-01    1.71       1.0  T
   3    -54.3007561  0.117165E-03  0.904E-02    1.71       1.0  T
   4    -54.3009119 -0.155742E-03  0.265E-02    1.70       1.0  T
   5    -54.3009346 -0.226861E-04  0.107E-02    1.71       1.6  T
   6    -54.3009377 -0.315441E-05  0.377E-03    1.71       4.5  T
   7    -54.3009378 -0.103315E-06  0.176E-03    1.71       9.7  T
   8    -54.3009379 -0.369497E-07  0.656E-04    1.71      26.1  T
   9    -54.3009379 -0.304469E-08  0.275E-04    1.71      62.4  T
     SCC iter.                  ...        0 min,  1.056 sec
     gradient                   ...        0 min,  0.151 sec
 * total energy  :   -53.4081635 Eh     change       -0.1290072E-01 Eh
   gradient norm :     0.0763613 Eh/α   predicted    -0.1151752E-01 ( -10.72%)
   displ. norm   :     0.3167393 α      lambda       -0.5682598E-02
   maximum displ.:     0.1187090 α      in ANC's #13, #15, #14, ...

........................................................................
.............................. CYCLE    3 ..............................
........................................................................
   1    -54.3427938 -0.543428E+02  0.145E-01    1.75       0.0  T
   2    -54.3428664 -0.725567E-04  0.967E-02    1.75       1.0  T
   3    -54.3428495  0.168886E-04  0.652E-02    1.75       1.0  T
   4    -54.3429140 -0.645370E-04  0.281E-02    1.75       1.0  T
   5    -54.3429367 -0.226726E-04  0.646E-03    1.75       2.7  T
   6    -54.3429377 -0.103831E-05  0.205E-03    1.75       8.4  T
   7    -54.3429378 -0.161796E-07  0.110E-03    1.75      15.6  T
   8    -54.3429378 -0.163561E-07  0.367E-04    1.75      46.7  T
   9    -54.3429378 -0.138654E-08  0.145E-04    1.75     118.7  T
     SCC iter.                  ...        0 min,  1.050 sec
     gradient                   ...        0 min,  0.160 sec
 * total energy  :   -53.4094298 Eh     change       -0.1266261E-02 Eh
   gradient norm :     0.1940940 Eh/α   predicted    -0.3129556E-02 ( 147.15%)
   displ. norm   :     0.2111267 α      lambda       -0.3940952E-02
   maximum displ.:     0.0716928 α      in ANC's #6, #1, #13, ...

........................................................................
.............................. CYCLE    4 ..............................
........................................................................
   1    -54.3472588 -0.543473E+02  0.872E-02    1.76       0.0  T
   2    -54.3472543  0.452609E-05  0.616E-02    1.76       1.0  T
   3    -54.3472393  0.150467E-04  0.445E-02    1.76       1.0  T
   4    -54.3472873 -0.480888E-04  0.732E-03    1.76       2.3  T
   5    -54.3472889 -0.157686E-05  0.193E-03    1.76       8.9  T
   6    -54.3472890 -0.541136E-07  0.100E-03    1.76      17.1  T
   7    -54.3472890 -0.588533E-08  0.370E-04    1.76      46.4  T
   8    -54.3472890 -0.207292E-08  0.139E-04    1.76     123.7  T
     SCC iter.                  ...        0 min,  0.896 sec
     gradient                   ...        0 min,  0.139 sec
 * total energy  :   -53.4109996 Eh     change       -0.1569786E-02 Eh
   gradient norm :     0.0654346 Eh/α   predicted    -0.2058311E-02 (  31.12%)
   displ. norm   :     0.1707325 α      lambda       -0.9293901E-03
   maximum displ.:     0.0818869 α      in ANC's #1, #3, #2, ...

........................................................................
.............................. CYCLE    5 ..............................
........................................................................
   1    -54.3358593 -0.543359E+02  0.697E-02    1.75       0.0  T
   2    -54.3358620 -0.274526E-05  0.413E-02    1.75       1.0  T
   3    -54.3358548  0.717319E-05  0.169E-02    1.75       1.0  T
   4    -54.3358630 -0.821656E-05  0.369E-03    1.75       4.6  T
   5    -54.3358634 -0.361627E-06  0.134E-03    1.75      12.8  T
   6    -54.3358634 -0.267831E-07  0.807E-04    1.75      21.3  T
   7    -54.3358634 -0.903501E-08  0.293E-04    1.75      58.5  T
     SCC iter.                  ...        0 min,  0.762 sec
     gradient                   ...        0 min,  0.150 sec
 * total energy  :   -53.4115883 Eh     change       -0.5887200E-03 Eh
   gradient norm :     0.0209100 Eh/α   predicted    -0.4782861E-03 ( -18.76%)
   displ. norm   :     0.2746160 α      lambda       -0.5721848E-03
   maximum displ.:     0.1449013 α      in ANC's #1, #3, #2, ...

........................................................................
.............................. CYCLE    6 ..............................
........................................................................
   1    -54.3321646 -0.543322E+02  0.902E-02    1.75       0.0  T
   2    -54.3321658 -0.121728E-05  0.535E-02    1.75       1.0  T
   3    -54.3321293  0.365079E-04  0.350E-02    1.75       1.0  T
   4    -54.3321691 -0.398259E-04  0.506E-03    1.75       3.4  T
   5    -54.3321701 -0.925668E-06  0.133E-03    1.75      12.9  T
   6    -54.3321701 -0.288022E-07  0.684E-04    1.75      25.1  T
   7    -54.3321701 -0.221387E-08  0.227E-04    1.75      75.6  T
     SCC iter.                  ...        0 min,  0.694 sec
     gradient                   ...        0 min,  0.143 sec
 * total energy  :   -53.4119838 Eh     change       -0.3954818E-03 Eh
   gradient norm :     0.0304183 Eh/α   predicted    -0.3077005E-03 ( -22.20%)
   displ. norm   :     0.3860493 α      lambda       -0.6307844E-03
   maximum displ.:     0.2074861 α      in ANC's #1, #3, #2, ...

........................................................................
.............................. CYCLE    7 ..............................
........................................................................
   1    -54.3319715 -0.543320E+02  0.124E-01    1.76       0.0  T
   2    -54.3319730 -0.148656E-05  0.734E-02    1.76       1.0  T
   3    -54.3319022  0.707430E-04  0.481E-02    1.76       1.0  T
   4    -54.3319794 -0.771502E-04  0.627E-03    1.76       2.7  T
   5    -54.3319807 -0.134566E-05  0.172E-03    1.76      10.0  T
   6    -54.3319807 -0.395281E-07  0.915E-04    1.76      18.7  T
   7    -54.3319807 -0.346279E-08  0.310E-04    1.76      55.4  T
     SCC iter.                  ...        0 min,  0.813 sec
     gradient                   ...        0 min,  0.160 sec
 * total energy  :   -53.4123518 Eh     change       -0.3680109E-03 Eh
   gradient norm :     0.0469294 Eh/α   predicted    -0.3623975E-03 (  -1.53%)
   displ. norm   :     0.3010338 α      lambda       -0.4784366E-03
   maximum displ.:     0.1751826 α      in ANC's #1, #2, #3, ...

........................................................................
.............................. CYCLE    8 ..............................
........................................................................
   1    -54.3345389 -0.543345E+02  0.963E-02    1.78       0.0  T
   2    -54.3345410 -0.213428E-05  0.568E-02    1.78       1.0  T
   3    -54.3345344  0.668676E-05  0.136E-02    1.78       1.3  T
   4    -54.3345419 -0.758525E-05  0.291E-03    1.78       5.9  T
   5    -54.3345422 -0.213019E-06  0.137E-03    1.78      12.5  T
   6    -54.3345422 -0.238615E-07  0.717E-04    1.78      23.9  T
   7    -54.3345422 -0.514847E-08  0.234E-04    1.78      73.1  T
     SCC iter.                  ...        0 min,  0.828 sec
     gradient                   ...        0 min,  0.150 sec
 * total energy  :   -53.4127288 Eh     change       -0.3770550E-03 Eh
   gradient norm :     0.0196180 Eh/α   predicted    -0.2608972E-03 ( -30.81%)
   displ. norm   :     0.3926818 α      lambda       -0.5092669E-03
   maximum displ.:     0.2364592 α      in ANC's #1, #2, #3, ...

........................................................................
.............................. CYCLE    9 ..............................
........................................................................
   1    -54.3383103 -0.543383E+02  0.125E-01    1.80       0.0  T
   2    -54.3383124 -0.214412E-05  0.740E-02    1.80       1.0  T
   3    -54.3382882  0.242375E-04  0.266E-02    1.80       1.0  T
   4    -54.3383142 -0.259859E-04  0.471E-03    1.80       3.6  T
   5    -54.3383148 -0.662155E-06  0.150E-03    1.80      11.5  T
   6    -54.3383148 -0.214561E-07  0.805E-04    1.80      21.3  T
   7    -54.3383148 -0.455837E-08  0.295E-04    1.80      58.1  T
     SCC iter.                  ...        0 min,  0.728 sec
     gradient                   ...        0 min,  0.149 sec
 * total energy  :   -53.4131244 Eh     change       -0.3955288E-03 Eh
   gradient norm :     0.0093095 Eh/α   predicted    -0.2938995E-03 ( -25.69%)
   displ. norm   :     0.4772502 α      lambda       -0.4189007E-03
   maximum displ.:     0.2870893 α      in ANC's #1, #2, #3, ...

........................................................................
.............................. CYCLE   10 ..............................
........................................................................
   1    -54.3378416 -0.543378E+02  0.150E-01    1.81       0.0  T
   2    -54.3378438 -0.217760E-05  0.886E-02    1.81       1.0  T
   3    -54.3378357  0.807544E-05  0.151E-02    1.81       1.1  T
   4    -54.3378452 -0.950060E-05  0.272E-03    1.81       6.3  T
   5    -54.3378453 -0.678474E-07  0.178E-03    1.81       9.6  T
   6    -54.3378453 -0.477274E-07  0.712E-04    1.81      24.1  T
   7    -54.3378453 -0.833009E-08  0.277E-04    1.81      61.8  T
     SCC iter.                  ...        0 min,  0.849 sec
     gradient                   ...        0 min,  0.150 sec
 * total energy  :   -53.4134544 Eh     change       -0.3300082E-03 Eh
   gradient norm :     0.0102854 Eh/α   predicted    -0.2571580E-03 ( -22.08%)
   displ. norm   :     0.4590449 α      lambda       -0.3484307E-03
   maximum displ.:     0.2821639 α      in ANC's #1, #2, #3, ...

........................................................................
.............................. CYCLE   11 ..............................
........................................................................
   1    -54.3391242 -0.543391E+02  0.142E-01    1.81       0.0  T
   2    -54.3391279 -0.360618E-05  0.835E-02    1.81       1.0  T
   3    -54.3391204  0.748487E-05  0.154E-02    1.81       1.1  T
   4    -54.3391291 -0.876598E-05  0.279E-03    1.81       6.1  T
   5    -54.3391293 -0.146050E-06  0.133E-03    1.81      12.9  T
   6    -54.3391293 -0.296469E-08  0.927E-04    1.81      18.5  T
   7    -54.3391293 -0.161462E-07  0.311E-04    1.81      55.2  T
     SCC iter.                  ...        0 min,  0.724 sec
     gradient                   ...        0 min,  0.157 sec
 * total energy  :   -53.4137041 Eh     change       -0.2497782E-03 Eh
   gradient norm :     0.0073790 Eh/α   predicted    -0.2109429E-03 ( -15.55%)
   displ. norm   :     0.4256549 α      lambda       -0.2074361E-03
   maximum displ.:     0.2615322 α      in ANC's #1, #2, #3, ...

........................................................................
.............................. CYCLE   12 ..............................
........................................................................
   1    -54.3360366 -0.543360E+02  0.132E-01    1.80       0.0  T
   2    -54.3360404 -0.375659E-05  0.786E-02    1.81       1.0  T
   3    -54.3359631  0.772202E-04  0.483E-02    1.81       1.0  T
   4    -54.3360467 -0.835188E-04  0.633E-03    1.81       2.7  T
   5    -54.3360479 -0.120251E-05  0.162E-03    1.81      10.6  T
   6    -54.3360479 -0.401296E-07  0.884E-04    1.81      19.4  T
   7    -54.3360479 -0.698788E-08  0.350E-04    1.81      49.0  T
     SCC iter.                  ...        0 min,  0.673 sec
     gradient                   ...        0 min,  0.140 sec
 * total energy  :   -53.4138216 Eh     change       -0.1174363E-03 Eh
   gradient norm :     0.0055195 Eh/α   predicted    -0.1225117E-03 (   4.32%)
   displ. norm   :     0.2450072 α      lambda       -0.1601132E-03
   maximum displ.:     0.1502517 α      in ANC's #1, #2, #5, ...

........................................................................
.............................. CYCLE   13 ..............................
........................................................................
   1    -54.3399462 -0.543399E+02  0.804E-02    1.81       0.0  T
   2    -54.3399489 -0.268483E-05  0.471E-02    1.81       1.0  T
   3    -54.3399402  0.870712E-05  0.178E-02    1.81       1.0  T
   4    -54.3399501 -0.983182E-05  0.287E-03    1.81       6.0  T
   5    -54.3399503 -0.235592E-06  0.143E-03    1.81      12.0  T
   6    -54.3399503 -0.527583E-07  0.546E-04    1.81      31.4  T
   7    -54.3399503 -0.178598E-08  0.184E-04    1.81      93.1  T
     SCC iter.                  ...        0 min,  0.891 sec
     gradient                   ...        0 min,  0.146 sec
 * total energy  :   -53.4138982 Eh     change       -0.7662801E-04 Eh
   gradient norm :     0.0057309 Eh/α   predicted    -0.8486390E-04 (  10.75%)
   displ. norm   :     0.1450303 α      lambda       -0.5447674E-04
   maximum displ.:     0.0903305 α      in ANC's #2, #1, #4, ...

........................................................................
.............................. CYCLE   14 ..............................
........................................................................
   1    -54.3395461 -0.543395E+02  0.449E-02    1.82       0.0  T
   2    -54.3395462 -0.401893E-07  0.269E-02    1.82       1.0  T
   3    -54.3395353  0.108806E-04  0.188E-02    1.82       1.0  T
   4    -54.3395473 -0.119537E-04  0.180E-03    1.82       9.5  T
   5    -54.3395474 -0.105378E-06  0.616E-04    1.82      27.8  T
   6    -54.3395474 -0.580727E-08  0.277E-04    1.82      61.8  T
     SCC iter.                  ...        0 min,  0.724 sec
     gradient                   ...        0 min,  0.155 sec
 * total energy  :   -53.4139303 Eh     change       -0.3207369E-04 Eh
   gradient norm :     0.0053341 Eh/α   predicted    -0.2781235E-04 ( -13.29%)
   displ. norm   :     0.0833993 α      lambda       -0.3985163E-04
   maximum displ.:     0.0536062 α      in ANC's #2, #1, #5, ...

........................................................................
.............................. CYCLE   15 ..............................
........................................................................
   1    -54.3400365 -0.543400E+02  0.271E-02    1.82       0.0  T
   2    -54.3400376 -0.114326E-05  0.166E-02    1.82       1.0  T
   3    -54.3400349  0.274508E-05  0.121E-02    1.82       1.4  T
   4    -54.3400383 -0.338444E-05  0.350E-03    1.82       4.9  T
   5    -54.3400387 -0.411410E-06  0.516E-04    1.82      33.2  T
   6    -54.3400387 -0.808569E-08  0.190E-04    1.82      90.4  T
     SCC iter.                  ...        0 min,  0.669 sec
     gradient                   ...        0 min,  0.147 sec
 * total energy  :   -53.4139574 Eh     change       -0.2710017E-04 Eh
   gradient norm :     0.0022626 Eh/α   predicted    -0.2006591E-04 ( -25.96%)
   displ. norm   :     0.0887023 α      lambda       -0.3020922E-04
   maximum displ.:     0.0509075 α      in ANC's #2, #3, #1, ...

........................................................................
.............................. CYCLE   16 ..............................
........................................................................
   1    -54.3404302 -0.543404E+02  0.267E-02    1.82       0.0  T
   2    -54.3404308 -0.600003E-06  0.159E-02    1.82       1.1  T
   3    -54.3404294  0.137419E-05  0.731E-03    1.82       2.3  T
   4    -54.3404307 -0.132544E-05  0.266E-03    1.82       6.4  T
   5    -54.3404310 -0.256318E-06  0.457E-04    1.82      37.5  T
   6    -54.3404310 -0.550033E-08  0.187E-04    1.82      91.7  T
     SCC iter.                  ...        0 min,  0.802 sec
     gradient                   ...        0 min,  0.154 sec
 * total energy  :   -53.4139765 Eh     change       -0.1912603E-04 Eh
   gradient norm :     0.0044231 Eh/α   predicted    -0.1522620E-04 ( -20.39%)
   displ. norm   :     0.0668188 α      lambda       -0.1890564E-04
   maximum displ.:     0.0397889 α      in ANC's #3, #2, #5, ...

........................................................................
.............................. CYCLE   17 ..............................
........................................................................
   1    -54.3403773 -0.543404E+02  0.196E-02    1.83       0.0  T
   2    -54.3403774 -0.960536E-07  0.116E-02    1.83       1.5  T
   3    -54.3403771  0.369267E-06  0.358E-03    1.83       4.8  T
   4    -54.3403775 -0.394344E-06  0.882E-04    1.83      19.5  T
   5    -54.3403775 -0.222010E-07  0.333E-04    1.83      51.6  T
     SCC iter.                  ...        0 min,  0.533 sec
     gradient                   ...        0 min,  0.153 sec
 * total energy  :   -53.4139884 Eh     change       -0.1186235E-04 Eh
   gradient norm :     0.0035236 Eh/α   predicted    -0.9495789E-05 ( -19.95%)
   displ. norm   :     0.0512099 α      lambda       -0.1167107E-04
   maximum displ.:     0.0302045 α      in ANC's #2, #3, #5, ...

........................................................................
.............................. CYCLE   18 ..............................
........................................................................
   1    -54.3399720 -0.543400E+02  0.139E-02    1.83       0.0  T
   2    -54.3399721 -0.510092E-07  0.817E-03    1.82       2.1  T
   3    -54.3399720  0.965308E-07  0.191E-03    1.82       9.0  T
   4    -54.3399721 -0.113736E-06  0.343E-04    1.82      50.0  T
   5    -54.3399721 -0.244061E-08  0.148E-04    1.82     115.7  T
     SCC iter.                  ...        0 min,  0.600 sec
     gradient                   ...        0 min,  0.150 sec
 * total energy  :   -53.4139963 Eh     change       -0.7914914E-05 Eh
   gradient norm :     0.0019187 Eh/α   predicted    -0.5854925E-05 ( -26.03%)
   displ. norm   :     0.0563930 α      lambda       -0.6637715E-05
   maximum displ.:     0.0431913 α      in ANC's #3, #1, #6, ...

........................................................................
.............................. CYCLE   19 ..............................
........................................................................
   1    -54.3400197 -0.543400E+02  0.175E-02    1.82       0.0  T
   2    -54.3400199 -0.153094E-06  0.103E-02    1.82       1.7  T
   3    -54.3400196  0.281203E-06  0.336E-03    1.82       5.1  T
   4    -54.3400199 -0.280983E-06  0.107E-03    1.82      16.0  T
   5    -54.3400199 -0.406066E-07  0.298E-04    1.82      57.5  T
   6    -54.3400199 -0.255830E-08  0.120E-04    1.82     142.9  T
     SCC iter.                  ...        0 min,  0.645 sec
     gradient                   ...        0 min,  0.159 sec
 * total energy  :   -53.4140008 Eh     change       -0.4512713E-05 Eh
   gradient norm :     0.0013008 Eh/α   predicted    -0.3323945E-05 ( -26.34%)
   displ. norm   :     0.0148595 α      lambda       -0.2580095E-05
   maximum displ.:     0.0094402 α      in ANC's #6, #2, #16, ...

........................................................................
.............................. CYCLE   20 ..............................
........................................................................
   1    -54.3394908 -0.543395E+02  0.708E-03    1.82       0.0  T
   2    -54.3394908 -0.452125E-07  0.419E-03    1.82       4.1  T
   3    -54.3394908  0.579043E-07  0.177E-03    1.82       9.7  T
   4    -54.3394908 -0.685543E-07  0.387E-04    1.82      44.3  T
   5    -54.3394908 -0.397145E-08  0.158E-04    1.82     108.4  T
     SCC iter.                  ...        0 min,  0.597 sec
     gradient                   ...        0 min,  0.150 sec
 * total energy  :   -53.4140024 Eh     change       -0.1634511E-05 Eh
   gradient norm :     0.0011281 Eh/α   predicted    -0.1290969E-05 ( -21.02%)
   displ. norm   :     0.0183676 α      lambda       -0.2613375E-05
   maximum displ.:     0.0097576 α      in ANC's #3, #6, #8, ...
 * RMSD in coord.:     0.6180681 α      energy gain  -0.1873964E-01 Eh

generating ANC from model Hessian ...
Using Lindh-Hessian (1995)
 Shifting diagonal of input Hessian by    9.0928571680990340E-003
 Lowest  eigenvalues of input Hessian
    0.000000    0.000000    0.000000    0.000000    0.000000    0.000000
    0.010000    0.010356    0.011198    0.011482    0.012353    0.013911
    0.016260    0.017651    0.020071    0.024747    0.025818    0.026475
 Highest eigenvalues
    2.428719    3.022704    3.558785    5.762771   13.886744   15.290116


........................................................................
.............................. CYCLE   21 ..............................
........................................................................
   1    -54.3398685 -0.543399E+02  0.871E-03    1.82       0.0  T
   2    -54.3398686 -0.112947E-06  0.519E-03    1.82       3.3  T
   3    -54.3398684  0.261473E-06  0.346E-03    1.82       5.0  T
   4    -54.3398687 -0.287083E-06  0.113E-03    1.82      15.2  T
   5    -54.3398687 -0.420924E-07  0.175E-04    1.82      98.3  T
   6    -54.3398687 -0.775692E-09  0.838E-05    1.82     204.6  T
     SCC iter.                  ...        0 min,  0.715 sec
     gradient                   ...        0 min,  0.144 sec
 * total energy  :   -53.4140040 Eh     change       -0.1603139E-05 Eh
   gradient norm :     0.0012070 Eh/α   predicted     0.0000000E+00 (-100.00%)
   displ. norm   :     0.0057797 α      lambda        0.1428556E-06
   maximum displ.:     0.0037239 α      in ANC's #2, #3, #1, ...

........................................................................
.............................. CYCLE   22 ..............................
........................................................................
   1    -54.3399430 -0.543399E+02  0.338E-03    1.82       0.0  T
   2    -54.3399431 -0.307461E-07  0.241E-03    1.82       7.1  T
   3    -54.3399431 -0.916808E-08  0.161E-03    1.82      10.7  T
   4    -54.3399431 -0.345721E-07  0.570E-04    1.82      30.1  T
   5    -54.3399431 -0.935152E-08  0.109E-04    1.82     157.3  T
     SCC iter.                  ...        0 min,  0.566 sec
     gradient                   ...        0 min,  0.158 sec
 * total energy  :   -53.4140047 Eh     change       -0.6509058E-06 Eh
   gradient norm :     0.0018571 Eh/α   predicted    -0.5709852E-06 ( -12.28%)
   displ. norm   :     0.0064841 α      lambda       -0.4559547E-06
   maximum displ.:     0.0046010 α      in ANC's #2, #3, #1, ...

........................................................................
.............................. CYCLE   23 ..............................
........................................................................
   1    -54.3399463 -0.543399E+02  0.250E-03    1.82       0.0  T
   2    -54.3399463 -0.257000E-08  0.157E-03    1.82      10.9  T
   3    -54.3399462  0.362841E-07  0.123E-03    1.82      13.9  T
   4    -54.3399463 -0.445756E-07  0.187E-04    1.82      91.6  T
   5    -54.3399463 -0.112347E-08  0.457E-05    1.82     375.6  T
     SCC iter.                  ...        0 min,  0.642 sec
     gradient                   ...        0 min,  0.156 sec
 * total energy  :   -53.4140047 Eh     change        0.1972487E-07 Eh
   gradient norm :     0.0030551 Eh/α   predicted    -0.3040615E-06 (*******%)
   displ. norm   :     0.0026364 α      lambda       -0.6092425E-06
   maximum displ.:     0.0016868 α      in ANC's #2, #3, #8, ...

........................................................................
.............................. CYCLE   24 ..............................
........................................................................
   1    -54.3399137 -0.543399E+02  0.111E-03    1.82       0.0  T
   2    -54.3399137 -0.150654E-08  0.742E-04    1.82      23.1  T
   3    -54.3399137  0.292893E-08  0.562E-04    1.82      30.5  T
     SCC iter.                  ...        0 min,  0.417 sec
     gradient                   ...        0 min,  0.162 sec
 * total energy  :   -53.4140051 Eh     change       -0.4253924E-06 Eh
   gradient norm :     0.0011898 Eh/α   predicted    -0.3139846E-06 ( -26.19%)
   displ. norm   :     0.0065445 α      lambda       -0.2756317E-06
   maximum displ.:     0.0049635 α      in ANC's #2, #3, #1, ...

........................................................................
.............................. CYCLE   25 ..............................
........................................................................
   1    -54.3398890 -0.543399E+02  0.231E-03    1.82       0.0  T
   2    -54.3398890 -0.410819E-08  0.144E-03    1.82      11.9  T
   3    -54.3398890  0.255589E-07  0.113E-03    1.82      15.1  T
   4    -54.3398890 -0.338094E-07  0.225E-04    1.82      76.2  T
   5    -54.3398890 -0.156600E-08  0.528E-05    1.82     324.8  T
     SCC iter.                  ...        0 min,  0.626 sec
     gradient                   ...        0 min,  0.155 sec
 * total energy  :   -53.4140053 Eh     change       -0.2031489E-06 Eh
   gradient norm :     0.0008504 Eh/α   predicted    -0.1407807E-06 ( -30.70%)
   displ. norm   :     0.0050118 α      lambda       -0.9601996E-07
   maximum displ.:     0.0037247 α      in ANC's #2, #3, #1, ...

   *** GEOMETRY OPTIMIZATION CONVERGED AFTER 25 ITERATIONS ***

------------------------------------------------------------------------
 total energy gain   :        -0.0187425 Eh      -11.7611 kcal/mol
 total RMSD          :         0.6187719 a0        0.3274 Å
 total power (kW/mol):        -1.9683378 (step)   -1.9090 (real)
------------------------------------------------------------------------

 ANCopt (total)                0 d,  0 h,  0 min, 25.777 sec
 optimizer setup                ...        0 min,  0.000 sec (  0.001%)
 model hessian                  ...        0 min,  0.023 sec (  0.090%)
 ANC generation                 ...        0 min,  0.039 sec (  0.150%)
 coordinate transformation      ...        0 min,  0.104 sec (  0.404%)
 single point calculation       ...        0 min, 24.788 sec ( 96.160%)
 optimization log               ...        0 min,  0.004 sec (  0.016%)
 hessian update                 ...        0 min,  0.726 sec (  2.815%)
 rational function              ...        0 min,  0.084 sec (  0.325%)

================
 final structure:
================
34
 xtb: 6.5.0 (97a52f5)
H            0.82795353227334        0.55289480567580        1.88589781928849
N            0.83017942252348        0.54939186983821        0.87242099767603
C           -0.48299159529829        0.52911308626356        0.34806603056158
C           -1.24130589148065       -0.74842014516059        0.43445525284359
C            1.83924013379115       -0.23891392062342        0.34187792062760
C           -1.05139404906460        1.65491969115893       -0.12546102677384
C           -2.39354174252303        1.82756354899083       -0.63758342108219
N           -1.36134314136856        3.81184977660943       -0.75350288122190
C           -0.40069998431356        2.99351350134024       -0.20137360604030
C           -2.52861831393108        3.11388457084845       -1.00066288493560
C           -1.79508073398429       -1.07881214993288        1.66991644024499
C           -1.34824974448970       -1.65469782915447       -0.61264818472366
C           -2.45877794190410       -2.27846936554022        1.84668659246904
C           -2.00834727576669       -2.85778775959094       -0.43137456917361
C           -2.56171876249229       -3.17501936744823        0.79648030775342
C            1.80673224424945       -0.66656723794505       -0.98469122973939
C            3.01249408967576       -0.42860924368422        1.07436991551012
C            2.87832120440381       -1.34926185226470       -1.52626504972535
C            4.07995829513994       -1.10874941170686        0.52520968645856
C            4.01521779925219       -1.58726229300703       -0.77349421503737
H           -1.22263677828561        4.79198006800609       -0.93424182371136
O            0.70420053665466        3.35023768617234        0.13608020111062
H           -1.71546565178812       -0.37992219849652        2.49115852745030
H           -0.94102237265423       -1.41327057080293       -1.58178642293960
H           -2.89128554173271       -2.51559856148399        2.80757722803571
H           -2.08589777327242       -3.55188063455590       -1.25513501018244
H           -3.07298210342662       -4.11594706580776        0.93494641377949
H            0.94930422390370       -0.43178908593126       -1.59529518377921
H            3.06982321337540       -0.05316793439378        2.08661839923539
H            2.82958415648176       -1.68544459504637       -2.55211102147063
H            4.97494855837144       -1.25752134989098        1.11188191910489
H           -3.12603487146704        1.04912604192647       -0.71110548967128
H           -3.37800195330407        3.61650766778209       -1.42451824941629
H            4.85083279246579       -2.12087073215794       -1.20033336251344

 Bond Distances (Angstroems)
 ---------------------------
H1-N2=1.0135         N2-H1=1.0135         N2-C3=1.4141         N2-C5=1.3860         C3-N2=1.4141         C3-C4=1.4882         
C3-C6=1.3471         C4-C3=1.4882         C4-C11=1.3936        C4-C12=1.3890        C5-N2=1.3860         C5-C16=1.3942        
C5-C17=1.3961        C6-C3=1.3471         C6-C7=1.4469         C6-C9=1.4903         C7-C6=1.4469         C7-C10=1.3434        
C7-H32=1.0714        N8-C9=1.3774         N8-C10=1.3823        N8-H21=1.0063        C9-C6=1.4903         C9-N8=1.3774         
C9-O22=1.2091        C10-C7=1.3434        C10-N8=1.3823        C10-H33=1.0741       C11-C4=1.3936        C11-C13=1.3824       
C11-H23=1.0813       C12-C4=1.3890        C12-C14=1.3842       C12-H24=1.0786       C13-C11=1.3824       C13-C15=1.3847       
C13-H25=1.0801       C14-C12=1.3842       C14-C15=1.3836       C14-H26=1.0800       C15-C13=1.3847       C15-C14=1.3836       
C15-H27=1.0798       C16-C5=1.3942        C16-C18=1.3812       C16-H28=1.0785       C17-C5=1.3961        C17-C19=1.3797       
C17-H29=1.0812       C18-C16=1.3812       C18-C20=1.3841       C18-H30=1.0806       C19-C17=1.3797       C19-C20=1.3856       
C19-H31=1.0804       C20-C18=1.3841       C20-C19=1.3856       C20-H34=1.0794       H21-N8=1.0063        O22-C9=1.2091        
H23-C11=1.0813       H24-C12=1.0786       H25-C13=1.0801       H26-C14=1.0800       H27-C15=1.0798       H28-C16=1.0785       
H29-C17=1.0812       H30-C18=1.0806       H31-C19=1.0804       H32-C7=1.0714        H33-C10=1.0741       H34-C20=1.0794       
 C  H  Rav=1.0788 sigma=0.0029  Rmin=1.0714  Rmax=1.0813    12
 C  C  Rav=1.3973 sigma=0.0395  Rmin=1.3434  Rmax=1.4903    17
 N  H  Rav=1.0099 sigma=0.0036  Rmin=1.0063  Rmax=1.0135     2
 N  C  Rav=1.3900 sigma=0.0143  Rmin=1.3774  Rmax=1.4141     4
 O  C  Rav=1.2091 sigma=0.0000  Rmin=1.2091  Rmax=1.2091     1

 selected bond angles (degree)
 --------------------
C3-N2-H1=111.64                C5-N2-H1=112.73                C5-N2-C3=121.73                C4-C3-N2=117.64                
C6-C3-N2=120.67                C6-C3-C4=121.52                C11-C4-C3=117.22               C12-C4-C3=123.75               
C12-C4-C11=118.88              C16-C5-N2=121.45               C17-C5-N2=119.23               C17-C5-C16=118.50              
C7-C6-C3=127.99                C9-C6-C3=125.75                C9-C6-C7=106.25                C10-C7-C6=107.65               
H32-C7-C6=124.87               H32-C7-C10=127.47              C10-N8-C9=111.14               H21-N8-C9=123.68               
H21-N8-C10=125.18              N8-C9-C6=104.45                O22-C9-C6=130.52               O22-C9-N8=125.02               
N8-C10-C7=110.50               H33-C10-C7=129.36              H33-C10-N8=120.14              

 selected dihedral angles (degree)
 ---------------------------------
C4-C3-N2-H1=286.03            C4-C3-N2-C5= 63.25            C6-C3-N2-H1=101.51            C6-C3-N2-C5=238.74            
C11-C4-C3-N2= 77.64           C11-C4-C3-C6=262.20           C12-C4-C3-N2=261.99           C12-C4-C3-C6= 86.55           
C16-C5-N2-H1=162.62           C16-C5-N2-C3= 25.80           C17-C5-N2-H1=332.04           C17-C5-N2-C3=195.23           
C7-C6-C3-N2=183.01            C7-C6-C3-C4=358.32            C9-C6-C3-N2=  2.03            C9-C6-C3-C4=177.33            
C10-C7-C6-C3=180.09           C10-C7-C6-C9=  0.92           H32-C7-C6-C3=359.59           H32-C7-C6-C9=180.42           
N8-C9-C6-C3=179.73            N8-C9-C6-C7=358.92            O22-C9-C6-C3=359.11           O22-C9-C6-C7=178.30           
C6-C9-N8-C10=  0.87           C6-C9-N8-H21=179.96           O22-C9-N8-C10=181.45          O22-C9-N8-H21=  0.54          
N8-C10-C7-C6=359.59           N8-C10-C7-H32=180.11          H33-C10-C7-C6=179.80          H33-C10-C7-H32=  0.31         
C7-C10-N8-C9=359.67           C7-C10-N8-H21=180.60          H33-C10-N8-C9=179.49          H33-C10-N8-H21=  0.42         
           -------------------------------------------------
          |                Final Singlepoint                |
           -------------------------------------------------

          ...................................................
          :                      SETUP                      :
          :.................................................:
          :  # basis functions                  94          :
          :  # atomic orbitals                  94          :
          :  # shells                           54          :
          :  # electrons                        98          :
          :  max. iterations                   250          :
          :  Hamiltonian                  GFN2-xTB          :
          :  restarted?                      false          :
          :  GBSA solvation                  false          :
          :  PC potential                    false          :
          :  electronic temp.          300.0000000     K    :
          :  accuracy                    1.0000000          :
          :  -> integral cutoff          0.2500000E+02      :
          :  -> integral neglect         0.1000000E-07      :
          :  -> SCF convergence          0.1000000E-05 Eh   :
          :  -> wf. convergence          0.1000000E-03 e    :
          :  Broyden damping             0.4000000          :
          ...................................................

 iter      E             dE          RMSdq      gap      omega  full diag
   1    -54.3398890 -0.543399E+02  0.237E-05    1.82       0.0  T
   2    -54.3398890  0.646594E-12  0.174E-05    1.82     986.7  T
   3    -54.3398890 -0.895994E-11  0.101E-05    1.82    1701.8  T

   *** convergence criteria satisfied after 3 iterations ***

         #    Occupation            Energy/Eh            Energy/eV
      -------------------------------------------------------------
         1        2.0000           -0.6979999             -18.9935
       ...           ...                  ...                  ...
        43        2.0000           -0.4158904             -11.3170
        44        2.0000           -0.4140642             -11.2673
        45        2.0000           -0.4092395             -11.1360
        46        2.0000           -0.3937015             -10.7132
        47        2.0000           -0.3914211             -10.6511
        48        2.0000           -0.3746917             -10.1959
        49        2.0000           -0.3515814              -9.5670 (HOMO)
        50                         -0.2845216              -7.7422 (LUMO)
        51                         -0.2357625              -6.4154
        52                         -0.2338697              -6.3639
        53                         -0.2092767              -5.6947
        54                         -0.1995148              -5.4291
       ...                                ...                  ...
        94                          0.7542355              20.5238
      -------------------------------------------------------------
                  HL-Gap            0.0670599 Eh            1.8248 eV
             Fermi-level           -0.3180515 Eh           -8.6546 eV

 SCC (total)                   0 d,  0 h,  0 min,  0.525 sec
 SCC setup                      ...        0 min,  0.011 sec (  2.118%)
 Dispersion                     ...        0 min,  0.028 sec (  5.395%)
 classical contributions        ...        0 min,  0.024 sec (  4.619%)
 integral evaluation            ...        0 min,  0.035 sec (  6.683%)
 iterations                     ...        0 min,  0.268 sec ( 50.945%)
 molecular gradient             ...        0 min,  0.158 sec ( 30.034%)
 printout                       ...        0 min,  0.001 sec (  0.179%)

         :::::::::::::::::::::::::::::::::::::::::::::::::::::
         ::                     SUMMARY                     ::
         :::::::::::::::::::::::::::::::::::::::::::::::::::::
         :: total energy             -53.414005298859 Eh    ::
         :: gradient norm              0.000850533838 Eh/a0 ::
         :: HOMO-LUMO gap              1.824792341483 eV    ::
         ::.................................................::
         :: SCC energy               -54.339888991173 Eh    ::
         :: -> isotropic ES            0.041569917486 Eh    ::
         :: -> anisotropic ES          0.009172480927 Eh    ::
         :: -> anisotropic XC          0.028648207277 Eh    ::
         :: -> dispersion             -0.038491877543 Eh    ::
         :: repulsion energy           0.925352584121 Eh    ::
         :: add. restraining           0.000016307659 Eh    ::
         :: total charge               0.000000000000 e     ::
         :::::::::::::::::::::::::::::::::::::::::::::::::::::

           -------------------------------------------------
          |                Property Printout                |
           -------------------------------------------------

    * Orbital Energies and Occupations

         #    Occupation            Energy/Eh            Energy/eV
      -------------------------------------------------------------
         1        2.0000           -0.6979999             -18.9935
       ...           ...                  ...                  ...
        37        2.0000           -0.4643624             -12.6359
        38        2.0000           -0.4433621             -12.0645
        39        2.0000           -0.4417526             -12.0207
        40        2.0000           -0.4291511             -11.6778
        41        2.0000           -0.4266417             -11.6095
        42        2.0000           -0.4189040             -11.3990
        43        2.0000           -0.4158904             -11.3170
        44        2.0000           -0.4140642             -11.2673
        45        2.0000           -0.4092395             -11.1360
        46        2.0000           -0.3937015             -10.7132
        47        2.0000           -0.3914211             -10.6511
        48        2.0000           -0.3746917             -10.1959
        49        2.0000           -0.3515814              -9.5670 (HOMO)
        50                         -0.2845216              -7.7422 (LUMO)
        51                         -0.2357625              -6.4154
        52                         -0.2338697              -6.3639
        53                         -0.2092767              -5.6947
        54                         -0.1995148              -5.4291
        55                         -0.1815078              -4.9391
        56                         -0.1322378              -3.5984
        57                         -0.1057886              -2.8787
        58                         -0.0766854              -2.0867
        59                          0.0183653               0.4997
        60                          0.0295039               0.8028
       ...                                ...                  ...
        94                          0.7542355              20.5238
      -------------------------------------------------------------
                  HL-Gap            0.0670599 Eh            1.8248 eV
             Fermi-level           -0.3180515 Eh           -8.6546 eV

     #   Z          covCN         q      C6AA      α(0)
     1   1 H        0.860     0.170     1.275     1.769
     2   7 N        2.696    -0.174    24.759     7.390
     3   6 C        2.891     0.085    26.095     8.375
     4   6 C        2.975     0.005    27.913     8.666
     5   6 C        2.908     0.075    26.316     8.412
     6   6 C        3.074    -0.035    28.788     8.797
     7   6 C        2.971    -0.072    29.800     8.954
     8   7 N        2.767    -0.148    24.201     7.306
     9   6 C        2.847     0.274    22.373     7.752
    10   6 C        2.974     0.019    27.569     8.613
    11   6 C        2.928    -0.031    28.774     8.797
    12   6 C        2.922    -0.027    28.688     8.783
    13   6 C        2.919    -0.028    28.694     8.784
    14   6 C        2.920    -0.027    28.684     8.783
    15   6 C        2.920    -0.029    28.717     8.788
    16   6 C        2.924    -0.054    29.336     8.882
    17   6 C        2.926    -0.057    29.413     8.894
    18   6 C        2.920    -0.030    28.754     8.793
    19   6 C        2.920    -0.029    28.727     8.789
    20   6 C        2.919    -0.044    29.101     8.846
    21   1 H        0.860     0.175     1.241     1.745
    22   8 O        0.857    -0.404    21.756     6.254
    23   1 H        0.925     0.028     2.616     2.529
    24   1 H        0.926     0.039     2.468     2.457
    25   1 H        0.926     0.035     2.512     2.478
    26   1 H        0.926     0.037     2.494     2.470
    27   1 H        0.926     0.035     2.517     2.481
    28   1 H        0.926     0.024     2.673     2.557
    29   1 H        0.926     0.024     2.678     2.559
    30   1 H        0.926     0.026     2.649     2.545
    31   1 H        0.926     0.028     2.622     2.532
    32   1 H        0.926     0.041     2.433     2.439
    33   1 H        0.926     0.045     2.383     2.414
    34   1 H        0.926     0.025     2.664     2.552

 Mol. C6AA /au·bohr⁶  :      15860.714160
 Mol. C8AA /au·bohr⁸  :     391619.817686
 Mol. α(0) /au        :        202.186571


Wiberg/Mayer (AO) data.
largest (>0.10) Wiberg bond orders for each atom

 ---------------------------------------------------------------------------
     #   Z sym  total        # sym  WBO       # sym  WBO       # sym  WBO
 ---------------------------------------------------------------------------
     1   1 H    0.971 --     2 N    0.916
     2   7 N    3.314 --     5 C    1.116     3 C    1.028     1 H    0.916
     3   6 C    3.973 --     6 C    1.659     2 N    1.028     4 C    0.996
     4   6 C    3.986 --    12 C    1.406    11 C    1.393     3 C    0.996
                            15 C    0.110
     5   6 C    3.964 --    16 C    1.352    17 C    1.346     2 N    1.116
     6   6 C    3.982 --     3 C    1.659     7 C    1.127     9 C    0.995
     7   6 C    3.977 --    10 C    1.716     6 C    1.127    32 H    0.971
     8   7 N    3.506 --     9 C    1.152    10 C    1.134    21 H    0.940
                            22 O    0.151
     9   6 C    3.947 --    22 O    1.701     8 N    1.152     6 C    0.995
    10   6 C    3.955 --     7 C    1.716     8 N    1.134    33 H    0.968
    11   6 C    3.988 --    13 C    1.448     4 C    1.393    23 H    0.971
                            14 C    0.112
    12   6 C    3.988 --    14 C    1.440     4 C    1.406    24 H    0.965
                            13 C    0.111
    13   6 C    3.991 --    11 C    1.448    15 C    1.435    25 H    0.970
                            12 C    0.111
    14   6 C    3.991 --    15 C    1.442    12 C    1.440    26 H    0.970
                            11 C    0.112
    15   6 C    3.991 --    14 C    1.442    13 C    1.435    27 H    0.971
                             4 C    0.110
    16   6 C    3.987 --    18 C    1.456     5 C    1.352    28 H    0.963
                            19 C    0.103
    17   6 C    3.987 --    19 C    1.466     5 C    1.346    29 H    0.968
                            18 C    0.105
    18   6 C    3.993 --    16 C    1.456    20 C    1.432    30 H    0.971
                            17 C    0.105
    19   6 C    3.992 --    17 C    1.466    20 C    1.423    31 H    0.971
                            16 C    0.103
    20   6 C    3.986 --    18 C    1.432    19 C    1.423    34 H    0.972
    21   1 H    0.968 --     8 N    0.940
    22   8 O    2.040 --     9 C    1.701     8 N    0.151
    23   1 H    0.999 --    11 C    0.971
    24   1 H    0.998 --    12 C    0.965
    25   1 H    0.997 --    13 C    0.970
    26   1 H    0.997 --    14 C    0.970
    27   1 H    0.998 --    15 C    0.971
    28   1 H    0.999 --    16 C    0.963
    29   1 H    0.999 --    17 C    0.968
    30   1 H    0.999 --    18 C    0.971
    31   1 H    0.999 --    19 C    0.971
    32   1 H    0.998 --     7 C    0.971
    33   1 H    0.997 --    10 C    0.968
    34   1 H    0.999 --    20 C    0.972
 ---------------------------------------------------------------------------

Topologies differ in total number of bonds
Writing topology from bond orders to xtbtopo.mol

molecular dipole:
                 x           y           z       tot (Debye)
 q only:       -1.413      -0.401       0.004
   full:       -1.673      -0.371       0.057       4.358
molecular quadrupole (traceless):
                xx          xy          yy          xz          yz          zz
 q only:       -1.894      -8.423      -0.025       2.035      -4.159       1.919
  q+dip:       -5.871     -11.048       1.481       2.465      -4.565       4.390
   full:       -4.910     -11.358       0.936       2.050      -5.174       3.974

           -------------------------------------------------
          |                Geometry Summary                 |
           -------------------------------------------------

      molecular mass/u    :      262.3064921
   center of mass at/Å    :       -0.0182357       0.0853780       0.0489389
  moments of inertia/u·Å² :        0.1314930E+04   0.1595735E+04   0.2494066E+04
rotational constants/cm⁻¹ :        0.1282017E-01   0.1056418E-01   0.6759097E-02

 * 33 selected distances

     #   Z          #   Z                                           value/Å
     1   1 H        2   7 N                                       1.0134854
     2   7 N        3   6 C                                       1.4141350 (max)
     2   7 N        5   6 C                                       1.3860396
     3   6 C        6   6 C                                       1.3471266
     8   7 N        9   6 C                                       1.3774457
     7   6 C       10   6 C                                       1.3433892
     8   7 N       10   6 C                                       1.3823079
     4   6 C       11   6 C                                       1.3936248
     4   6 C       12   6 C                                       1.3889572
    11   6 C       13   6 C                                       1.3823601
    12   6 C       14   6 C                                       1.3842018
    13   6 C       15   6 C                                       1.3846777
    14   6 C       15   6 C                                       1.3836487
     5   6 C       16   6 C                                       1.3941772
     5   6 C       17   6 C                                       1.3960853
    16   6 C       18   6 C                                       1.3811870
    17   6 C       19   6 C                                       1.3797274
    18   6 C       20   6 C                                       1.3841396
    19   6 C       20   6 C                                       1.3855678
     8   7 N       21   1 H                                       1.0062612 (min)
     9   6 C       22   8 O                                       1.2091041
    11   6 C       23   1 H                                       1.0813069
    12   6 C       24   1 H                                       1.0785872
    13   6 C       25   1 H                                       1.0800945
    14   6 C       26   1 H                                       1.0799817
    15   6 C       27   1 H                                       1.0797723
    16   6 C       28   1 H                                       1.0784901
    17   6 C       29   1 H                                       1.0811522
    18   6 C       30   1 H                                       1.0806268
    19   6 C       31   1 H                                       1.0804282
     7   6 C       32   1 H                                       1.0714088
    10   6 C       33   1 H                                       1.0741211
    20   6 C       34   1 H                                       1.0794361

 * 5 distinct bonds (by element types)

   Z      Z             #   av. dist./Å        max./Å        min./Å
   1 H    6 C          12     1.0787838     1.0813069     1.0714088
   6 C    6 C          14     1.3806336     1.3960853     1.3433892
   1 H    7 N           2     1.0098733     1.0134854     1.0062612
   6 C    7 N           4     1.3899821     1.4141350     1.3774457
   6 C    8 O           1     1.2091041     1.2091041     1.2091041


optimized geometry written to: xtbopt.xyz


           -------------------------------------------------
          | TOTAL ENERGY              -53.414005298859 Eh   |
          | GRADIENT NORM               0.000850533838 Eh/α |
          | HOMO-LUMO GAP               1.824792341483 eV   |
           -------------------------------------------------
########################################################################
[WARNING] Runtime exception occurred
-1- restart_readRestart: Number of electron missmatch in restart file.
########################################################################

------------------------------------------------------------------------
 * finished run on 2023/11/18 at 09:08:03.593     
------------------------------------------------------------------------
 total:
 * wall-time:     0 d,  0 h,  0 min, 28.163 sec
 *  cpu-time:     0 d,  0 h, 24 min, 19.514 sec
 * ratio c/w:    51.824 speedup
 SCF:
 * wall-time:     0 d,  0 h,  0 min,  1.696 sec
 *  cpu-time:     0 d,  0 h,  1 min, 28.671 sec
 * ratio c/w:    52.289 speedup
 ANC optimizer:
 * wall-time:     0 d,  0 h,  0 min, 26.316 sec
 *  cpu-time:     0 d,  0 h, 22 min, 43.179 sec
 * ratio c/w:    51.801 speedup

