
    -----------------------------------------------------------------------
          Psi4: An Open-Source Ab Initio Electronic Structure Package
                               Psi4 1.3.2 release

                         Git: Rev {HEAD} ecbda83 


    R. M. Parrish, L. A. Burns, D. G. A. Smith, A. C. Simmonett,
    A. E. DePrince III, E. G. Hohenstein, U. Bozkaya, A. Yu. Sokolov,
    R. Di Remigio, R. M. Richard, J. F. Gonthier, A. M. James,
    H. R. McAlexander, A. Kumar, M. Saitow, X. Wang, B. P. Pritchard,
    P. Verma, H. F. Schaefer III, K. Patkowski, R. A. King, E. F. Valeev,
    F. A. Evangelista, J. M. Turney, T. D. Crawford, and C. D. Sherrill,
    J. Chem. Theory Comput. 13(7) pp 3185--3197 (2017).
    (doi: 10.1021/acs.jctc.7b00174)


                         Additional Contributions by
    P. Kraus, H. Kruse, M. H. Lechner, M. C. Schieber, R. A. Shaw,
    A. Alenaizan, R. Galvelis, Z. L. Glick, S. Lehtola, and J. P. Misiewicz

    -----------------------------------------------------------------------


    Psi4 started on: Friday, 22 October 2021 03:58AM

    Process ID: 97224
    Host:       node144.bme.utexas.edu
    PSIDATADIR: /home/eew947/anaconda3/envs/amoebamdpoltype/share/psi4
    Memory:     500.0 MiB
    Threads:    1
    
  ==> Input File <==

--------------------------------------------------------------------------
molecule { 
1 1
N 1.222140858082 1.192158561459 1.178331490527
N 4.167388667351 -1.248676273140 2.956171436156
N -3.911617145246 -1.003587244425 0.213998925645
N -7.538697781257 -0.085105392812 0.050314743846
C 3.274053977909 -0.069879698420 1.211261009112
C 4.596191145348 -0.551363183765 0.823639514286
C 2.356176129779 0.682968997227 0.532301325602
C 3.074425284938 -0.469714162406 2.634311837729
C 5.100019072943 -1.284444658101 1.921106256583
C 5.383264283969 -0.421474489764 -0.318746010349
C 2.463060217810 1.017272894084 -0.897955778013
C 6.348174096874 -1.893569038940 1.902215222481
C 6.644094580945 -1.025839694263 -0.344444866466
C 2.642095044454 0.021450152718 -1.869090853296
C 2.301500847397 2.351594849989 -1.294682247029
C -0.044317054886 0.619801844586 0.894439316089
C 2.712921778899 0.364995532601 -3.216714636906
C 2.379724956752 2.690172748816 -2.643832371227
C -0.217532651927 -0.491702017125 0.067108170501
C -1.173849291718 1.207806112187 1.476342588192
C 2.583284579501 1.699810617408 -3.606306818380
C -1.492326713235 -1.003847894493 -0.163510795361
C -2.443166545814 0.686559921076 1.270933835686
C -2.621850827254 -0.400458439100 0.400616177061
C -5.050947053381 -0.252815831313 0.209786387033
C -3.926268527202 -2.428330880278 -0.119526289566
C -6.394763932795 -0.982359724321 0.008137419575
C -7.816837139114 0.517683619787 1.350260326215
C -7.576237216589 0.920417306769 -1.012234012445
C -9.323115878629 0.829640331032 1.385567233583
C -8.870088314614 1.729823217905 -0.834457105705
C -11.262978042429 1.304852055595 -0.124819274011
C 7.120413152058 -1.763018624366 0.750179799737
C 7.440067156501 -0.863856789222 -1.588283417881
C 9.495253036016 -1.302072493427 -2.653638447358
O 2.148733947397 -0.187914731051 3.404700654260
O -5.076874895405 0.971777000349 0.399290552842
O 8.668399107622 -1.423047941353 -1.479199458388
O 7.041943462866 -0.289030887454 -2.590515058057
N -9.826811229121 0.888455047988 -0.033835833128
H -11.418212269759 1.865095603234 -1.045144173373
H 5.061321053400 0.145493175936 -1.185130407718
H 1.364994854950 1.167390411538 2.194692885112
H 4.314510418508 -1.597090639368 3.896793987548
H 6.715707363168 -2.454517759926 2.757990653988
H 2.755385854966 -1.015942232170 -1.559934460599
H 2.131277622270 3.111831645313 -0.537031586057
H 2.862067555173 -0.408961825555 -3.965087955892
H 2.276966247855 3.729145542518 -2.946408705779
H 0.641546091907 -0.993384899578 -0.363762448719
H -1.043297575094 2.069141924407 2.127205750565
H 2.646123957098 1.967294674016 -4.657843734047
H -1.581865191130 -1.861837029376 -0.820377111734
H -3.293246305138 1.152304291126 1.748900502603
H -3.343518404624 -2.974509437430 0.624839632211
H -6.543562474663 -1.745161015904 0.780425275861
H -7.216104728965 1.417063382442 1.530193163014
H -7.592672572044 0.391923932082 -1.972085762526
H -9.543558444062 1.795510341325 1.845349326269
H -9.335737746599 1.975293837694 -1.790363567137
H -11.896537688142 0.419577007817 -0.092741502257
H -3.521404018996 -2.612989543136 -1.117012142284
H -6.418057221749 -1.496261926059 -0.960614726010
H -7.576075897314 -0.198973013811 2.139214010562
H -6.715923274407 1.596964056265 -0.997376986498
H -9.904080952390 0.053385740436 1.889879396770
H -8.720205773500 2.653478379874 -0.270533018410
H -11.492726201491 1.954615003911 0.718708441800
H -4.940517488533 -2.816806237172 -0.089850378994
H 8.100637887578 -2.224806544625 0.698048271158
H 9.969718858139 -0.319411418428 -2.670915410531
H 10.250315374010 -2.079258011629 -2.553194733831
H 8.901871553865 -1.443103263077 -3.555712712677
H -9.697945205178 -0.070630415493 -0.390744570169
}
memory 200GB
set_num_threads(12)
psi4_io.set_default_path("/scratch/eew947/Psi4-farH_in17")
set maxiter 500
set freeze_core True
set PROPERTIES_ORIGIN ["COM"]
set cubeprop_tasks ['esp']
E, wfn = properties('mp2/aug-cc-pVTZ',properties=['dipole'],return_wfn=True)
cubeprop(wfn)
fchk(wfn, "farH_in17-esp.fchk")
oeprop(wfn,"GRID_ESP","WIBERG_LOWDIN_INDICES","MULLIKEN_CHARGES")
clean()
--------------------------------------------------------------------------

  Memory set to 186.265 GiB by Python driver.
  Threads set to 12 by Python driver.
    SCF Algorithm Type (re)set to DF.

*** tstart() called on node144.bme.utexas.edu
*** at Fri Oct 22 03:58:22 2021

   => Loading Basis Set <=

    Name: AUG-CC-PVTZ
    Role: ORBITAL
    Keyword: BASIS
    atoms 1-4, 40 entry N          line   281 file /home/eew947/anaconda3/envs/amoebamdpoltype/share/psi4/basis/aug-cc-pvtz.gbs 
    atoms 5-35    entry C          line   235 file /home/eew947/anaconda3/envs/amoebamdpoltype/share/psi4/basis/aug-cc-pvtz.gbs 
    atoms 36-39   entry O          line   327 file /home/eew947/anaconda3/envs/amoebamdpoltype/share/psi4/basis/aug-cc-pvtz.gbs 
    atoms 41-74   entry H          line    36 file /home/eew947/anaconda3/envs/amoebamdpoltype/share/psi4/basis/aug-cc-pvtz.gbs 


         ---------------------------------------------------------
                                   SCF
               by Justin Turney, Rob Parrish, Andy Simmonett
                          and Daniel G. A. Smith
                              RHF Reference
                       12 Threads, 190734 MiB Core
         ---------------------------------------------------------

  ==> Geometry <==

    Molecular point group: c1
    Full point group: C1

    Geometry (in Angstrom), charge = 1, multiplicity = 1:

       Center              X                  Y                   Z               Mass       
    ------------   -----------------  -----------------  -----------------  -----------------
         N            1.222140858082     1.192158561459     1.178331490527    14.003074004430
         N            4.167388667351    -1.248676273140     2.956171436156    14.003074004430
         N           -3.911617145246    -1.003587244425     0.213998925645    14.003074004430
         N           -7.538697781257    -0.085105392812     0.050314743846    14.003074004430
         C            3.274053977909    -0.069879698420     1.211261009112    12.000000000000
         C            4.596191145348    -0.551363183765     0.823639514286    12.000000000000
         C            2.356176129779     0.682968997227     0.532301325602    12.000000000000
         C            3.074425284938    -0.469714162406     2.634311837729    12.000000000000
         C            5.100019072943    -1.284444658101     1.921106256583    12.000000000000
         C            5.383264283969    -0.421474489764    -0.318746010349    12.000000000000
         C            2.463060217810     1.017272894084    -0.897955778013    12.000000000000
         C            6.348174096874    -1.893569038940     1.902215222481    12.000000000000
         C            6.644094580945    -1.025839694263    -0.344444866466    12.000000000000
         C            2.642095044454     0.021450152718    -1.869090853296    12.000000000000
         C            2.301500847397     2.351594849989    -1.294682247029    12.000000000000
         C           -0.044317054886     0.619801844586     0.894439316089    12.000000000000
         C            2.712921778899     0.364995532601    -3.216714636906    12.000000000000
         C            2.379724956752     2.690172748816    -2.643832371227    12.000000000000
         C           -0.217532651927    -0.491702017125     0.067108170501    12.000000000000
         C           -1.173849291718     1.207806112187     1.476342588192    12.000000000000
         C            2.583284579501     1.699810617408    -3.606306818380    12.000000000000
         C           -1.492326713235    -1.003847894493    -0.163510795361    12.000000000000
         C           -2.443166545814     0.686559921076     1.270933835686    12.000000000000
         C           -2.621850827254    -0.400458439100     0.400616177061    12.000000000000
         C           -5.050947053381    -0.252815831313     0.209786387033    12.000000000000
         C           -3.926268527202    -2.428330880278    -0.119526289566    12.000000000000
         C           -6.394763932795    -0.982359724321     0.008137419575    12.000000000000
         C           -7.816837139114     0.517683619787     1.350260326215    12.000000000000
         C           -7.576237216589     0.920417306769    -1.012234012445    12.000000000000
         C           -9.323115878629     0.829640331032     1.385567233583    12.000000000000
         C           -8.870088314614     1.729823217905    -0.834457105705    12.000000000000
         C          -11.262978042429     1.304852055595    -0.124819274011    12.000000000000
         C            7.120413152058    -1.763018624366     0.750179799737    12.000000000000
         C            7.440067156501    -0.863856789222    -1.588283417881    12.000000000000
         C            9.495253036016    -1.302072493427    -2.653638447358    12.000000000000
         O            2.148733947397    -0.187914731051     3.404700654260    15.994914619570
         O           -5.076874895405     0.971777000349     0.399290552842    15.994914619570
         O            8.668399107622    -1.423047941353    -1.479199458388    15.994914619570
         O            7.041943462866    -0.289030887454    -2.590515058057    15.994914619570
         N           -9.826811229121     0.888455047988    -0.033835833128    14.003074004430
         H          -11.418212269759     1.865095603234    -1.045144173373     1.007825032230
         H            5.061321053400     0.145493175936    -1.185130407718     1.007825032230
         H            1.364994854950     1.167390411538     2.194692885112     1.007825032230
         H            4.314510418508    -1.597090639368     3.896793987548     1.007825032230
         H            6.715707363168    -2.454517759926     2.757990653988     1.007825032230
         H            2.755385854966    -1.015942232170    -1.559934460599     1.007825032230
         H            2.131277622270     3.111831645313    -0.537031586057     1.007825032230
         H            2.862067555173    -0.408961825555    -3.965087955892     1.007825032230
         H            2.276966247855     3.729145542518    -2.946408705779     1.007825032230
         H            0.641546091907    -0.993384899578    -0.363762448719     1.007825032230
         H           -1.043297575094     2.069141924407     2.127205750565     1.007825032230
         H            2.646123957098     1.967294674016    -4.657843734047     1.007825032230
         H           -1.581865191130    -1.861837029376    -0.820377111734     1.007825032230
         H           -3.293246305138     1.152304291126     1.748900502603     1.007825032230
         H           -3.343518404624    -2.974509437430     0.624839632211     1.007825032230
         H           -6.543562474663    -1.745161015904     0.780425275861     1.007825032230
         H           -7.216104728965     1.417063382442     1.530193163014     1.007825032230
         H           -7.592672572044     0.391923932082    -1.972085762526     1.007825032230
         H           -9.543558444062     1.795510341325     1.845349326269     1.007825032230
         H           -9.335737746599     1.975293837694    -1.790363567137     1.007825032230
         H          -11.896537688142     0.419577007817    -0.092741502257     1.007825032230
         H           -3.521404018996    -2.612989543136    -1.117012142284     1.007825032230
         H           -6.418057221749    -1.496261926059    -0.960614726010     1.007825032230
         H           -7.576075897314    -0.198973013811     2.139214010562     1.007825032230
         H           -6.715923274407     1.596964056265    -0.997376986498     1.007825032230
         H           -9.904080952390     0.053385740436     1.889879396770     1.007825032230
         H           -8.720205773500     2.653478379874    -0.270533018410     1.007825032230
         H          -11.492726201491     1.954615003911     0.718708441800     1.007825032230
         H           -4.940517488533    -2.816806237172    -0.089850378994     1.007825032230
         H            8.100637887578    -2.224806544625     0.698048271158     1.007825032230
         H            9.969718858139    -0.319411418428    -2.670915410531     1.007825032230
         H           10.250315374010    -2.079258011629    -2.553194733831     1.007825032230
         H            8.901871553865    -1.443103263077    -3.555712712677     1.007825032230
         H           -9.697945205178    -0.070630415493    -0.390744570169     1.007825032230

  Running in c1 symmetry.

  Rotational constants: A =      0.00792  B =      0.00090  C =      0.00086 [cm^-1]
  Rotational constants: A =    237.35367  B =     27.03451  C =     25.66963 [MHz]
  Nuclear repulsion = 4233.755731312070566

  Charge       = 1
  Multiplicity = 1
  Electrons    = 286
  Nalpha       = 143
  Nbeta        = 143

  ==> Algorithm <==

  SCF Algorithm Type is DF.
  DIIS enabled.
  MOM disabled.
  Fractional occupation disabled.
  Guess Type is SAD.
  Energy threshold   = 1.00e-10
  Density threshold  = 1.00e-10
  Integral threshold = 0.00e+00

  ==> Primary Basis <==

  Basis Set: AUG-CC-PVTZ
    Blend: AUG-CC-PVTZ
    Number of shells: 866
    Number of basis function: 2622
    Number of Cartesian functions: 3050
    Spherical Harmonics?: true
    Max angular momentum: 3

   => Loading Basis Set <=

    Name: (AUG-CC-PVTZ AUX)
    Role: JKFIT
    Keyword: DF_BASIS_SCF
    atoms 1-4, 40 entry N          line   224 file /home/eew947/anaconda3/envs/amoebamdpoltype/share/psi4/basis/aug-cc-pvtz-jkfit.gbs 
    atoms 5-35    entry C          line   162 file /home/eew947/anaconda3/envs/amoebamdpoltype/share/psi4/basis/aug-cc-pvtz-jkfit.gbs 
    atoms 36-39   entry O          line   286 file /home/eew947/anaconda3/envs/amoebamdpoltype/share/psi4/basis/aug-cc-pvtz-jkfit.gbs 
    atoms 41-74   entry H          line    70 file /home/eew947/anaconda3/envs/amoebamdpoltype/share/psi4/basis/aug-cc-pvtz-jkfit.gbs 

  ==> Pre-Iterations <==

   -------------------------------------------------------
    Irrep   Nso     Nmo     Nalpha   Nbeta   Ndocc  Nsocc
   -------------------------------------------------------
     A       2622    2622       0       0       0       0
   -------------------------------------------------------
    Total    2622    2622     143     143     143       0
   -------------------------------------------------------

  ==> Integral Setup <==

  ==> DiskDFJK: Density-Fitted J/K Matrices <==

    J tasked:                  Yes
    K tasked:                  Yes
    wK tasked:                  No
    OpenMP threads:             12
    Integrals threads:          12
    Memory [MiB]:           143051
    Algorithm:                Core
    Integral Cache:           NONE
    Schwarz Cutoff:          1E-12
    Fitting Condition:       1E-10

   => Auxiliary Basis Set <=

  Basis Set: (AUG-CC-PVTZ AUX)
    Blend: AUG-CC-PVTZ-JKFIT
    Number of shells: 1676
    Number of basis function: 5724
    Number of Cartesian functions: 7110
    Spherical Harmonics?: true
    Max angular momentum: 4

  Minimum eigenvalue in the overlap matrix is 7.8816913843E-08.
  Using Canonical Orthogonalization with cutoff of 1.0000000000E-07.
  Overall, 2 of 2622 possible MOs eliminated.

  SCF Guess: Superposition of Atomic Densities via on-the-fly atomic UHF.

  ==> Iterations <==

                           Total Energy        Delta E     RMS |[F,P]|

   @DF-RHF iter SAD: -1766.58804965771469   -1.76659e+03   0.00000e+00 
   @DF-RHF iter   1: -1764.79472180199014    1.79333e+00   5.09196e-04 DIIS
   @DF-RHF iter   2: -1765.60346554826810   -8.08744e-01   2.66909e-04 DIIS
   @DF-RHF iter   3: -1765.79530326563304   -1.91838e-01   7.21654e-05 DIIS
   @DF-RHF iter   4: -1765.81406369723754   -1.87604e-02   2.66066e-05 DIIS
   @DF-RHF iter   5: -1765.81671863774409   -2.65494e-03   5.86904e-06 DIIS
   @DF-RHF iter   6: -1765.81695120108043   -2.32563e-04   2.77319e-06 DIIS
   @DF-RHF iter   7: -1765.81701535686670   -6.41558e-05   1.20081e-06 DIIS
   @DF-RHF iter   8: -1765.81703099129618   -1.56344e-05   5.64945e-07 DIIS
   @DF-RHF iter   9: -1765.81703528832963   -4.29703e-06   2.78261e-07 DIIS
   @DF-RHF iter  10: -1765.81703639397119   -1.10564e-06   1.08547e-07 DIIS
   @DF-RHF iter  11: -1765.81703660348535   -2.09514e-07   5.29536e-08 DIIS
   @DF-RHF iter  12: -1765.81703664527799   -4.17926e-08   2.43357e-08 DIIS
   @DF-RHF iter  13: -1765.81703665401233   -8.73433e-09   1.03380e-08 DIIS
   @DF-RHF iter  14: -1765.81703665548184   -1.46952e-09   4.68673e-09 DIIS
   @DF-RHF iter  15: -1765.81703665579994   -3.18096e-10   2.07014e-09 DIIS
   @DF-RHF iter  16: -1765.81703665586610   -6.61657e-11   1.00704e-09 DIIS
   @DF-RHF iter  17: -1765.81703665587293   -6.82121e-12   3.75534e-10 DIIS
   @DF-RHF iter  18: -1765.81703665584359    2.93312e-11   1.70668e-10 DIIS
   @DF-RHF iter  19: -1765.81703665585746   -1.38698e-11   8.59790e-11 DIIS
  Energy and wave function converged.


  ==> Post-Iterations <==

    Orbital Energies [Eh]
    ---------------------

    Doubly Occupied:                                                      

       1A    -20.640353     2A    -20.617643     3A    -20.582515  
       4A    -20.576847     5A    -15.835829     6A    -15.696909  
       7A    -15.695907     8A    -15.659592     9A    -15.631890  
      10A    -11.456145    11A    -11.434734    12A    -11.434235  
      13A    -11.433803    14A    -11.420395    15A    -11.416349  
      16A    -11.396110    17A    -11.393760    18A    -11.392558  
      19A    -11.366253    20A    -11.360037    21A    -11.348054  
      22A    -11.346712    23A    -11.340413    24A    -11.318561  
      25A    -11.307897    26A    -11.302254    27A    -11.301284  
      28A    -11.300302    29A    -11.299071    30A    -11.297911  
      31A    -11.296855    32A    -11.296729    33A    -11.296109  
      34A    -11.295296    35A    -11.294185    36A    -11.293708  
      37A    -11.290705    38A    -11.290226    39A    -11.290080  
      40A    -11.287976    41A     -1.490062    42A     -1.485102  
      43A     -1.477291    44A     -1.437402    45A     -1.387924  
      46A     -1.369392    47A     -1.351875    48A     -1.335662  
      49A     -1.323414    50A     -1.218324    51A     -1.202455  
      52A     -1.201230    53A     -1.194769    54A     -1.174275  
      55A     -1.143016    56A     -1.106101    57A     -1.092929  
      58A     -1.087383    59A     -1.082505    60A     -1.073876  
      61A     -1.071042    62A     -1.058507    63A     -1.046010  
      64A     -1.037613    65A     -1.031111    66A     -1.003626  
      67A     -0.965910    68A     -0.947570    69A     -0.913022  
      70A     -0.907287    71A     -0.903942    72A     -0.893532  
      73A     -0.881505    74A     -0.875383    75A     -0.861534  
      76A     -0.851576    77A     -0.832425    78A     -0.830048  
      79A     -0.822123    80A     -0.814770    81A     -0.799692  
      82A     -0.787437    83A     -0.780221    84A     -0.777593  
      85A     -0.765092    86A     -0.757941    87A     -0.754598  
      88A     -0.748912    89A     -0.747560    90A     -0.734194  
      91A     -0.729283    92A     -0.726465    93A     -0.722198  
      94A     -0.721115    95A     -0.715248    96A     -0.704302  
      97A     -0.702654    98A     -0.699769    99A     -0.694400  
     100A     -0.692150   101A     -0.684037   102A     -0.679492  
     103A     -0.672245   104A     -0.670466   105A     -0.667445  
     106A     -0.665340   107A     -0.659352   108A     -0.659082  
     109A     -0.654429   110A     -0.653149   111A     -0.644006  
     112A     -0.642675   113A     -0.637665   114A     -0.631339  
     115A     -0.626146   116A     -0.625068   117A     -0.619349  
     118A     -0.606315   119A     -0.597753   120A     -0.595716  
     121A     -0.590136   122A     -0.569570   123A     -0.567241  
     124A     -0.562568   125A     -0.560629   126A     -0.558118  
     127A     -0.553632   128A     -0.547200   129A     -0.544516  
     130A     -0.531336   131A     -0.502243   132A     -0.495667  
     133A     -0.493779   134A     -0.489440   135A     -0.486632  
     136A     -0.479050   137A     -0.457843   138A     -0.407427  
     139A     -0.400644   140A     -0.392250   141A     -0.373657  
     142A     -0.363299   143A     -0.337043  

    Virtual:                                                              

     144A     -0.075608   145A     -0.061556   146A     -0.057686  
     147A     -0.050475   148A     -0.038270   149A     -0.037708  
     150A     -0.036111   151A     -0.031087   152A     -0.028089  
     153A     -0.019746   154A     -0.016460   155A     -0.015898  
     156A     -0.011901   157A     -0.010882   158A     -0.008217  
     159A     -0.003501   160A     -0.002229   161A     -0.001556  
     162A      0.000433   163A      0.000686   164A      0.002345  
     165A      0.003445   166A      0.005385   167A      0.007180  
     168A      0.008905   169A      0.012658   170A      0.014997  
     171A      0.016064   172A      0.017103   173A      0.019112  
     174A      0.020359   175A      0.021550   176A      0.023971  
     177A      0.025548   178A      0.027171   179A      0.029296  
     180A      0.031397   181A      0.031633   182A      0.033433  
     183A      0.035836   184A      0.036955   185A      0.040044  
     186A      0.041451   187A      0.041859   188A      0.042845  
     189A      0.043102   190A      0.045942   191A      0.046233  
     192A      0.047989   193A      0.048583   194A      0.051644  
     195A      0.052469   196A      0.054795   197A      0.056231  
     198A      0.057532   199A      0.059533   200A      0.061142  
     201A      0.062803   202A      0.063921   203A      0.065100  
     204A      0.066233   205A      0.067502   206A      0.069251  
     207A      0.070926   208A      0.073230   209A      0.073506  
     210A      0.075543   211A      0.075767   212A      0.076612  
     213A      0.078790   214A      0.080205   215A      0.081895  
     216A      0.082959   217A      0.083352   218A      0.085216  
     219A      0.086924   220A      0.087824   221A      0.089545  
     222A      0.090023   223A      0.091326   224A      0.092657  
     225A      0.094312   226A      0.096023   227A      0.097361  
     228A      0.098578   229A      0.099237   230A      0.099793  
     231A      0.102833   232A      0.103100   233A      0.106727  
     234A      0.108612   235A      0.108867   236A      0.110959  
     237A      0.113183   238A      0.114502   239A      0.116086  
     240A      0.116363   241A      0.117515   242A      0.119710  
     243A      0.121688   244A      0.123247   245A      0.124286  
     246A      0.125521   247A      0.126772   248A      0.127952  
     249A      0.130098   250A      0.130612   251A      0.132069  
     252A      0.135064   253A      0.136973   254A      0.138255  
     255A      0.138726   256A      0.140332   257A      0.143178  
     258A      0.145999   259A      0.149862   260A      0.150935  
     261A      0.152650   262A      0.153886   263A      0.155084  
     264A      0.155563   265A      0.159557   266A      0.160423  
     267A      0.161425   268A      0.162444   269A      0.164554  
     270A      0.165588   271A      0.167100   272A      0.168670  
     273A      0.170451   274A      0.172718   275A      0.172944  
     276A      0.173642   277A      0.174685   278A      0.177121  
     279A      0.179408   280A      0.181555   281A      0.183988  
     282A      0.186017   283A      0.186872   284A      0.188782  
     285A      0.190283   286A      0.190796   287A      0.191418  
     288A      0.192814   289A      0.193776   290A      0.196356  
     291A      0.197029   292A      0.198322   293A      0.199397  
     294A      0.200350   295A      0.203972   296A      0.205069  
     297A      0.206876   298A      0.207338   299A      0.207753  
     300A      0.208399   301A      0.211282   302A      0.212005  
     303A      0.214240   304A      0.215372   305A      0.217532  
     306A      0.219254   307A      0.219650   308A      0.220518  
     309A      0.222074   310A      0.223188   311A      0.223623  
     312A      0.224154   313A      0.224802   314A      0.228601  
     315A      0.230221   316A      0.230517   317A      0.232720  
     318A      0.233802   319A      0.236336   320A      0.237258  
     321A      0.238273   322A      0.239627   323A      0.240641  
     324A      0.242699   325A      0.244369   326A      0.246087  
     327A      0.246152   328A      0.249354   329A      0.250359  
     330A      0.250674   331A      0.251818   332A      0.253929  
     333A      0.255744   334A      0.255979   335A      0.258196  
     336A      0.259365   337A      0.260598   338A      0.262065  
     339A      0.263148   340A      0.263277   341A      0.265571  
     342A      0.267050   343A      0.268222   344A      0.268547  
     345A      0.270263   346A      0.271486   347A      0.272892  
     348A      0.274331   349A      0.275358   350A      0.277394  
     351A      0.278607   352A      0.278735   353A      0.281239  
     354A      0.282937   355A      0.285649   356A      0.286043  
     357A      0.287809   358A      0.289728   359A      0.292084  
     360A      0.292408   361A      0.292688   362A      0.294674  
     363A      0.296520   364A      0.297589   365A      0.298986  
     366A      0.300244   367A      0.301772   368A      0.302665  
     369A      0.303954   370A      0.306303   371A      0.306827  
     372A      0.308922   373A      0.309492   374A      0.311888  
     375A      0.313406   376A      0.314739   377A      0.315509  
     378A      0.316152   379A      0.317723   380A      0.319674  
     381A      0.321763   382A      0.322539   383A      0.324667  
     384A      0.326074   385A      0.327133   386A      0.329098  
     387A      0.329868   388A      0.332551   389A      0.332693  
     390A      0.334522   391A      0.335337   392A      0.337126  
     393A      0.338015   394A      0.338717   395A      0.340787  
     396A      0.342104   397A      0.344546   398A      0.344980  
     399A      0.345766   400A      0.347869   401A      0.348478  
     402A      0.350450   403A      0.351018   404A      0.352726  
     405A      0.354638   406A      0.355156   407A      0.356126  
     408A      0.357586   409A      0.359275   410A      0.360116  
     411A      0.361137   412A      0.364819   413A      0.365808  
     414A      0.367510   415A      0.368923   416A      0.370707  
     417A      0.370790   418A      0.372082   419A      0.373432  
     420A      0.375538   421A      0.376938   422A      0.378738  
     423A      0.379654   424A      0.380807   425A      0.382471  
     426A      0.384499   427A      0.386592   428A      0.387060  
     429A      0.388540   430A      0.388793   431A      0.391898  
     432A      0.392525   433A      0.394549   434A      0.395300  
     435A      0.396978   436A      0.398092   437A      0.398758  
     438A      0.400523   439A      0.402521   440A      0.404154  
     441A      0.404480   442A      0.406643   443A      0.407760  
     444A      0.408942   445A      0.412222   446A      0.413235  
     447A      0.413404   448A      0.415083   449A      0.417396  
     450A      0.418149   451A      0.419873   452A      0.420163  
     453A      0.421447   454A      0.422032   455A      0.424997  
     456A      0.425378   457A      0.427841   458A      0.428160  
     459A      0.429564   460A      0.430090   461A      0.430953  
     462A      0.433300   463A      0.434869   464A      0.436374  
     465A      0.437467   466A      0.439663   467A      0.441248  
     468A      0.442219   469A      0.442437   470A      0.443741  
     471A      0.444676   472A      0.447563   473A      0.448219  
     474A      0.449263   475A      0.452152   476A      0.454045  
     477A      0.454625   478A      0.455792   479A      0.456792  
     480A      0.458072   481A      0.459292   482A      0.459705  
     483A      0.461603   484A      0.462598   485A      0.464152  
     486A      0.465286   487A      0.465747   488A      0.467390  
     489A      0.468964   490A      0.470671   491A      0.472155  
     492A      0.473236   493A      0.474856   494A      0.475008  
     495A      0.477152   496A      0.478416   497A      0.479932  
     498A      0.480559   499A      0.482429   500A      0.483408  
     501A      0.484663   502A      0.485323   503A      0.486442  
     504A      0.486974   505A      0.489851   506A      0.490780  
     507A      0.491017   508A      0.493510   509A      0.493639  
     510A      0.496042   511A      0.496091   512A      0.496905  
     513A      0.499685   514A      0.500987   515A      0.501898  
     516A      0.502589   517A      0.503241   518A      0.505659  
     519A      0.506782   520A      0.508547   521A      0.510486  
     522A      0.510913   523A      0.513245   524A      0.514378  
     525A      0.515173   526A      0.516144   527A      0.517321  
     528A      0.518533   529A      0.520432   530A      0.521106  
     531A      0.521355   532A      0.523065   533A      0.524512  
     534A      0.525448   535A      0.526136   536A      0.529458  
     537A      0.530579   538A      0.531546   539A      0.533542  
     540A      0.534031   541A      0.535639   542A      0.537374  
     543A      0.539789   544A      0.540221   545A      0.541018  
     546A      0.542919   547A      0.544578   548A      0.545907  
     549A      0.548375   550A      0.549888   551A      0.551036  
     552A      0.553213   553A      0.555103   554A      0.555385  
     555A      0.557982   556A      0.560283   557A      0.561918  
     558A      0.563774   559A      0.564309   560A      0.566035  
     561A      0.567718   562A      0.568029   563A      0.569934  
     564A      0.572488   565A      0.572727   566A      0.574617  
     567A      0.578994   568A      0.581027   569A      0.581822  
     570A      0.582489   571A      0.586116   572A      0.586595  
     573A      0.588714   574A      0.590801   575A      0.592205  
     576A      0.595184   577A      0.597016   578A      0.597090  
     579A      0.599728   580A      0.600725   581A      0.603433  
     582A      0.604053   583A      0.607426   584A      0.608943  
     585A      0.610442   586A      0.612090   587A      0.615297  
     588A      0.615944   589A      0.616949   590A      0.619612  
     591A      0.621831   592A      0.623442   593A      0.625081  
     594A      0.626480   595A      0.626761   596A      0.629674  
     597A      0.630127   598A      0.633314   599A      0.635255  
     600A      0.637009   601A      0.638590   602A      0.640962  
     603A      0.642363   604A      0.645661   605A      0.648465  
     606A      0.649030   607A      0.651712   608A      0.654050  
     609A      0.655009   610A      0.657246   611A      0.657954  
     612A      0.660437   613A      0.661572   614A      0.664315  
     615A      0.665324   616A      0.667909   617A      0.668334  
     618A      0.671670   619A      0.672106   620A      0.674733  
     621A      0.675527   622A      0.676897   623A      0.678752  
     624A      0.682647   625A      0.684634   626A      0.686149  
     627A      0.690290   628A      0.691006   629A      0.692084  
     630A      0.692602   631A      0.695262   632A      0.698870  
     633A      0.701355   634A      0.702346   635A      0.703686  
     636A      0.704266   637A      0.705791   638A      0.706800  
     639A      0.709731   640A      0.711379   641A      0.713436  
     642A      0.714730   643A      0.716893   644A      0.718200  
     645A      0.720474   646A      0.724194   647A      0.725416  
     648A      0.728135   649A      0.729304   650A      0.730901  
     651A      0.733067   652A      0.734941   653A      0.738593  
     654A      0.740263   655A      0.742442   656A      0.744224  
     657A      0.744736   658A      0.747974   659A      0.749323  
     660A      0.751934   661A      0.752708   662A      0.754189  
     663A      0.757416   664A      0.758310   665A      0.758381  
     666A      0.759323   667A      0.764342   668A      0.764532  
     669A      0.765215   670A      0.770386   671A      0.773489  
     672A      0.775555   673A      0.776186   674A      0.777127  
     675A      0.778573   676A      0.781706   677A      0.783022  
     678A      0.783465   679A      0.787332   680A      0.788411  
     681A      0.790103   682A      0.790924   683A      0.794184  
     684A      0.794724   685A      0.796177   686A      0.798391  
     687A      0.799904   688A      0.802499   689A      0.802910  
     690A      0.805076   691A      0.807892   692A      0.808884  
     693A      0.811684   694A      0.812544   695A      0.814053  
     696A      0.814773   697A      0.816214   698A      0.818921  
     699A      0.820851   700A      0.821968   701A      0.823319  
     702A      0.825794   703A      0.826358   704A      0.827078  
     705A      0.829882   706A      0.830213   707A      0.832844  
     708A      0.834465   709A      0.835533   710A      0.836957  
     711A      0.839123   712A      0.840465   713A      0.841458  
     714A      0.842379   715A      0.845004   716A      0.846091  
     717A      0.847885   718A      0.849509   719A      0.850129  
     720A      0.854101   721A      0.855657   722A      0.856699  
     723A      0.858310   724A      0.860661   725A      0.861940  
     726A      0.864560   727A      0.864651   728A      0.865720  
     729A      0.869021   730A      0.870656   731A      0.872678  
     732A      0.873622   733A      0.875701   734A      0.876009  
     735A      0.877345   736A      0.878817   737A      0.879929  
     738A      0.882418   739A      0.883824   740A      0.886108  
     741A      0.888162   742A      0.889434   743A      0.891413  
     744A      0.892677   745A      0.894130   746A      0.894936  
     747A      0.896929   748A      0.898955   749A      0.901235  
     750A      0.901458   751A      0.903457   752A      0.905199  
     753A      0.907131   754A      0.908469   755A      0.909991  
     756A      0.912475   757A      0.914475   758A      0.914950  
     759A      0.916258   760A      0.917989   761A      0.919095  
     762A      0.922246   763A      0.922876   764A      0.924334  
     765A      0.925185   766A      0.927031   767A      0.927676  
     768A      0.930244   769A      0.934298   770A      0.935233  
     771A      0.935899   772A      0.937339   773A      0.940331  
     774A      0.942049   775A      0.943773   776A      0.945583  
     777A      0.948349   778A      0.949597   779A      0.951439  
     780A      0.953897   781A      0.955817   782A      0.956634  
     783A      0.957060   784A      0.959009   785A      0.960859  
     786A      0.962168   787A      0.963714   788A      0.965069  
     789A      0.965807   790A      0.968642   791A      0.969955  
     792A      0.971234   793A      0.972676   794A      0.974713  
     795A      0.975414   796A      0.977364   797A      0.979462  
     798A      0.980903   799A      0.982032   800A      0.983898  
     801A      0.985591   802A      0.986392   803A      0.988378  
     804A      0.990515   805A      0.991212   806A      0.992303  
     807A      0.993693   808A      0.995208   809A      0.997756  
     810A      0.999650   811A      1.001432   812A      1.003410  
     813A      1.004728   814A      1.006081   815A      1.007665  
     816A      1.009326   817A      1.011518   818A      1.012919  
     819A      1.013769   820A      1.015075   821A      1.015842  
     822A      1.016819   823A      1.019125   824A      1.020805  
     825A      1.023549   826A      1.024701   827A      1.026911  
     828A      1.029006   829A      1.029836   830A      1.031204  
     831A      1.032987   832A      1.035068   833A      1.035590  
     834A      1.037394   835A      1.039138   836A      1.040506  
     837A      1.041738   838A      1.042882   839A      1.043884  
     840A      1.045517   841A      1.046926   842A      1.047487  
     843A      1.049731   844A      1.051573   845A      1.054933  
     846A      1.056214   847A      1.058754   848A      1.059448  
     849A      1.061027   850A      1.063186   851A      1.063702  
     852A      1.065350   853A      1.068108   854A      1.069161  
     855A      1.071815   856A      1.073891   857A      1.076660  
     858A      1.078357   859A      1.078981   860A      1.081055  
     861A      1.082612   862A      1.083984   863A      1.085437  
     864A      1.088052   865A      1.090965   866A      1.091529  
     867A      1.094112   868A      1.094612   869A      1.098347  
     870A      1.099432   871A      1.101717   872A      1.101818  
     873A      1.104671   874A      1.105916   875A      1.107892  
     876A      1.108644   877A      1.109897   878A      1.114020  
     879A      1.114390   880A      1.116027   881A      1.116570  
     882A      1.119439   883A      1.123144   884A      1.123538  
     885A      1.125316   886A      1.128379   887A      1.130876  
     888A      1.132227   889A      1.133484   890A      1.133786  
     891A      1.136691   892A      1.137594   893A      1.140287  
     894A      1.141772   895A      1.143898   896A      1.145112  
     897A      1.147459   898A      1.150448   899A      1.152053  
     900A      1.154695   901A      1.155616   902A      1.157235  
     903A      1.157872   904A      1.158176   905A      1.161097  
     906A      1.161471   907A      1.163658   908A      1.165665  
     909A      1.166325   910A      1.169045   911A      1.171881  
     912A      1.173249   913A      1.174157   914A      1.176930  
     915A      1.177852   916A      1.179915   917A      1.183205  
     918A      1.183531   919A      1.184733   920A      1.187573  
     921A      1.189172   922A      1.190913   923A      1.192926  
     924A      1.193764   925A      1.195104   926A      1.197975  
     927A      1.199179   928A      1.199724   929A      1.202655  
     930A      1.205571   931A      1.206001   932A      1.208395  
     933A      1.211273   934A      1.213210   935A      1.215025  
     936A      1.216872   937A      1.218204   938A      1.219723  
     939A      1.222304   940A      1.225275   941A      1.226750  
     942A      1.227396   943A      1.231828   944A      1.232909  
     945A      1.234536   946A      1.236830   947A      1.238301  
     948A      1.239688   949A      1.240552   950A      1.243565  
     951A      1.244796   952A      1.247038   953A      1.247820  
     954A      1.249705   955A      1.250318   956A      1.251594  
     957A      1.254696   958A      1.257279   959A      1.258190  
     960A      1.260391   961A      1.263572   962A      1.264790  
     963A      1.265808   964A      1.266921   965A      1.269081  
     966A      1.270990   967A      1.273683   968A      1.275221  
     969A      1.277664   970A      1.278891   971A      1.280044  
     972A      1.283266   973A      1.287671   974A      1.287867  
     975A      1.290264   976A      1.290700   977A      1.291847  
     978A      1.296681   979A      1.298937   980A      1.300101  
     981A      1.302178   982A      1.304292   983A      1.305710  
     984A      1.306338   985A      1.309676   986A      1.312437  
     987A      1.313578   988A      1.314912   989A      1.316387  
     990A      1.318735   991A      1.320589   992A      1.323225  
     993A      1.326475   994A      1.327207   995A      1.329685  
     996A      1.331159   997A      1.333178   998A      1.335455  
     999A      1.337555  1000A      1.340448  1001A      1.343239  
    1002A      1.344580  1003A      1.345845  1004A      1.347222  
    1005A      1.350047  1006A      1.353191  1007A      1.354784  
    1008A      1.356010  1009A      1.357738  1010A      1.359007  
    1011A      1.360881  1012A      1.362434  1013A      1.365169  
    1014A      1.366907  1015A      1.368225  1016A      1.370049  
    1017A      1.372695  1018A      1.373464  1019A      1.377533  
    1020A      1.379730  1021A      1.381870  1022A      1.384475  
    1023A      1.386452  1024A      1.387112  1025A      1.392302  
    1026A      1.393932  1027A      1.396604  1028A      1.399739  
    1029A      1.401289  1030A      1.405721  1031A      1.407213  
    1032A      1.408770  1033A      1.409676  1034A      1.411521  
    1035A      1.415140  1036A      1.416703  1037A      1.417849  
    1038A      1.419336  1039A      1.421495  1040A      1.424975  
    1041A      1.425293  1042A      1.427173  1043A      1.428596  
    1044A      1.429437  1045A      1.435570  1046A      1.436793  
    1047A      1.438511  1048A      1.440471  1049A      1.441758  
    1050A      1.446307  1051A      1.447541  1052A      1.449468  
    1053A      1.450576  1054A      1.454354  1055A      1.455558  
    1056A      1.457346  1057A      1.459005  1058A      1.459835  
    1059A      1.463114  1060A      1.464475  1061A      1.469004  
    1062A      1.470277  1063A      1.472052  1064A      1.474886  
    1065A      1.475102  1066A      1.476186  1067A      1.481375  
    1068A      1.482490  1069A      1.484766  1070A      1.486459  
    1071A      1.487361  1072A      1.489212  1073A      1.490046  
    1074A      1.494864  1075A      1.496160  1076A      1.498696  
    1077A      1.502686  1078A      1.505238  1079A      1.507624  
    1080A      1.508872  1081A      1.510412  1082A      1.512981  
    1083A      1.514384  1084A      1.516224  1085A      1.518349  
    1086A      1.519948  1087A      1.523771  1088A      1.525034  
    1089A      1.528835  1090A      1.530658  1091A      1.532780  
    1092A      1.534988  1093A      1.536648  1094A      1.539679  
    1095A      1.540512  1096A      1.541246  1097A      1.544477  
    1098A      1.545762  1099A      1.548943  1100A      1.551227  
    1101A      1.552446  1102A      1.553619  1103A      1.556216  
    1104A      1.558226  1105A      1.560104  1106A      1.562622  
    1107A      1.563331  1108A      1.565440  1109A      1.567156  
    1110A      1.570221  1111A      1.571762  1112A      1.573838  
    1113A      1.575310  1114A      1.577704  1115A      1.579254  
    1116A      1.581823  1117A      1.582410  1118A      1.586146  
    1119A      1.588848  1120A      1.590440  1121A      1.591187  
    1122A      1.592526  1123A      1.593839  1124A      1.598670  
    1125A      1.599069  1126A      1.601917  1127A      1.603473  
    1128A      1.603820  1129A      1.605397  1130A      1.610014  
    1131A      1.610303  1132A      1.611119  1133A      1.613459  
    1134A      1.616098  1135A      1.618228  1136A      1.619007  
    1137A      1.621257  1138A      1.624451  1139A      1.626618  
    1140A      1.630929  1141A      1.632044  1142A      1.635232  
    1143A      1.637079  1144A      1.638480  1145A      1.640575  
    1146A      1.641752  1147A      1.646574  1148A      1.647350  
    1149A      1.649242  1150A      1.651812  1151A      1.654529  
    1152A      1.656338  1153A      1.659719  1154A      1.663060  
    1155A      1.663952  1156A      1.665927  1157A      1.667290  
    1158A      1.670028  1159A      1.672454  1160A      1.674388  
    1161A      1.675141  1162A      1.677665  1163A      1.679420  
    1164A      1.682565  1165A      1.684083  1166A      1.687377  
    1167A      1.689150  1168A      1.690612  1169A      1.691424  
    1170A      1.692640  1171A      1.695782  1172A      1.699749  
    1173A      1.700664  1174A      1.702090  1175A      1.703806  
    1176A      1.706130  1177A      1.709491  1178A      1.710470  
    1179A      1.712189  1180A      1.713563  1181A      1.717286  
    1182A      1.717527  1183A      1.720225  1184A      1.721896  
    1185A      1.723901  1186A      1.725636  1187A      1.727869  
    1188A      1.731884  1189A      1.735269  1190A      1.736816  
    1191A      1.738700  1192A      1.740932  1193A      1.743528  
    1194A      1.746432  1195A      1.748298  1196A      1.751716  
    1197A      1.752810  1198A      1.753266  1199A      1.755013  
    1200A      1.759014  1201A      1.759982  1202A      1.763577  
    1203A      1.766374  1204A      1.767487  1205A      1.769486  
    1206A      1.772659  1207A      1.773712  1208A      1.774797  
    1209A      1.778689  1210A      1.781166  1211A      1.783195  
    1212A      1.785951  1213A      1.786908  1214A      1.787530  
    1215A      1.789636  1216A      1.793608  1217A      1.795579  
    1218A      1.797588  1219A      1.799757  1220A      1.801342  
    1221A      1.803611  1222A      1.805881  1223A      1.809494  
    1224A      1.809785  1225A      1.813352  1226A      1.814789  
    1227A      1.815799  1228A      1.816935  1229A      1.819702  
    1230A      1.822468  1231A      1.825272  1232A      1.826184  
    1233A      1.828324  1234A      1.829277  1235A      1.833581  
    1236A      1.835376  1237A      1.838037  1238A      1.839947  
    1239A      1.841944  1240A      1.844679  1241A      1.846628  
    1242A      1.849509  1243A      1.851790  1244A      1.854356  
    1245A      1.856988  1246A      1.857883  1247A      1.860828  
    1248A      1.864279  1249A      1.865522  1250A      1.870094  
    1251A      1.871401  1252A      1.873243  1253A      1.875081  
    1254A      1.877077  1255A      1.880195  1256A      1.882747  
    1257A      1.886328  1258A      1.887438  1259A      1.888536  
    1260A      1.891478  1261A      1.892558  1262A      1.895785  
    1263A      1.898634  1264A      1.900828  1265A      1.905267  
    1266A      1.908568  1267A      1.911048  1268A      1.912415  
    1269A      1.915017  1270A      1.915174  1271A      1.918030  
    1272A      1.921237  1273A      1.923243  1274A      1.925203  
    1275A      1.928006  1276A      1.928830  1277A      1.929649  
    1278A      1.933415  1279A      1.934300  1280A      1.937874  
    1281A      1.939822  1282A      1.941511  1283A      1.943128  
    1284A      1.946082  1285A      1.946637  1286A      1.949012  
    1287A      1.952416  1288A      1.956312  1289A      1.958170  
    1290A      1.960362  1291A      1.962457  1292A      1.966561  
    1293A      1.969953  1294A      1.972641  1295A      1.975249  
    1296A      1.977723  1297A      1.979646  1298A      1.980031  
    1299A      1.981830  1300A      1.984766  1301A      1.986302  
    1302A      1.988631  1303A      1.990091  1304A      1.993050  
    1305A      1.996258  1306A      1.998350  1307A      2.003799  
    1308A      2.005426  1309A      2.007713  1310A      2.010033  
    1311A      2.013193  1312A      2.014487  1313A      2.015634  
    1314A      2.019863  1315A      2.021308  1316A      2.023556  
    1317A      2.026935  1318A      2.030322  1319A      2.031984  
    1320A      2.034132  1321A      2.035215  1322A      2.040263  
    1323A      2.041460  1324A      2.043298  1325A      2.046442  
    1326A      2.049532  1327A      2.050838  1328A      2.052385  
    1329A      2.057712  1330A      2.057992  1331A      2.060394  
    1332A      2.065200  1333A      2.065520  1334A      2.069191  
    1335A      2.069929  1336A      2.071745  1337A      2.075891  
    1338A      2.076545  1339A      2.081166  1340A      2.082302  
    1341A      2.083415  1342A      2.086299  1343A      2.088364  
    1344A      2.091144  1345A      2.095860  1346A      2.097353  
    1347A      2.098634  1348A      2.099761  1349A      2.104075  
    1350A      2.106785  1351A      2.108443  1352A      2.110719  
    1353A      2.114793  1354A      2.116243  1355A      2.117560  
    1356A      2.121515  1357A      2.124127  1358A      2.129073  
    1359A      2.131078  1360A      2.135699  1361A      2.136745  
    1362A      2.141089  1363A      2.142330  1364A      2.145597  
    1365A      2.148472  1366A      2.149471  1367A      2.151606  
    1368A      2.156894  1369A      2.159428  1370A      2.160023  
    1371A      2.162248  1372A      2.164008  1373A      2.168962  
    1374A      2.170484  1375A      2.172477  1376A      2.176738  
    1377A      2.180042  1378A      2.180325  1379A      2.183421  
    1380A      2.184083  1381A      2.185371  1382A      2.188375  
    1383A      2.191501  1384A      2.193330  1385A      2.196937  
    1386A      2.199848  1387A      2.200527  1388A      2.202322  
    1389A      2.205204  1390A      2.206080  1391A      2.209325  
    1392A      2.213115  1393A      2.218881  1394A      2.219837  
    1395A      2.222554  1396A      2.223199  1397A      2.225515  
    1398A      2.228865  1399A      2.231603  1400A      2.234335  
    1401A      2.238125  1402A      2.245799  1403A      2.246699  
    1404A      2.250453  1405A      2.253386  1406A      2.254328  
    1407A      2.255250  1408A      2.257565  1409A      2.258453  
    1410A      2.264998  1411A      2.268878  1412A      2.269814  
    1413A      2.272569  1414A      2.276538  1415A      2.279451  
    1416A      2.281240  1417A      2.283365  1418A      2.285623  
    1419A      2.286674  1420A      2.290433  1421A      2.293724  
    1422A      2.297819  1423A      2.301880  1424A      2.303994  
    1425A      2.306208  1426A      2.312058  1427A      2.314840  
    1428A      2.316742  1429A      2.318469  1430A      2.320169  
    1431A      2.324742  1432A      2.326878  1433A      2.328233  
    1434A      2.331496  1435A      2.336549  1436A      2.340552  
    1437A      2.343045  1438A      2.345977  1439A      2.350290  
    1440A      2.356619  1441A      2.357526  1442A      2.360639  
    1443A      2.362432  1444A      2.364355  1445A      2.365728  
    1446A      2.370407  1447A      2.372941  1448A      2.377425  
    1449A      2.380289  1450A      2.382405  1451A      2.385771  
    1452A      2.388616  1453A      2.391230  1454A      2.397329  
    1455A      2.399395  1456A      2.403091  1457A      2.405005  
    1458A      2.410527  1459A      2.413910  1460A      2.416757  
    1461A      2.421835  1462A      2.425217  1463A      2.427191  
    1464A      2.427455  1465A      2.430415  1466A      2.431638  
    1467A      2.436925  1468A      2.438732  1469A      2.442579  
    1470A      2.444783  1471A      2.450530  1472A      2.452082  
    1473A      2.456080  1474A      2.459435  1475A      2.462551  
    1476A      2.464467  1477A      2.469543  1478A      2.475382  
    1479A      2.478340  1480A      2.480901  1481A      2.484566  
    1482A      2.486673  1483A      2.488328  1484A      2.496321  
    1485A      2.502195  1486A      2.505381  1487A      2.506436  
    1488A      2.510994  1489A      2.512276  1490A      2.516303  
    1491A      2.520216  1492A      2.521158  1493A      2.521902  
    1494A      2.527525  1495A      2.528779  1496A      2.534682  
    1497A      2.538933  1498A      2.539583  1499A      2.543403  
    1500A      2.547965  1501A      2.551728  1502A      2.555951  
    1503A      2.559674  1504A      2.561953  1505A      2.563041  
    1506A      2.567596  1507A      2.575074  1508A      2.575996  
    1509A      2.578347  1510A      2.582761  1511A      2.584663  
    1512A      2.589997  1513A      2.592807  1514A      2.596608  
    1515A      2.601473  1516A      2.601784  1517A      2.609772  
    1518A      2.612201  1519A      2.613988  1520A      2.616558  
    1521A      2.619596  1522A      2.624618  1523A      2.625862  
    1524A      2.627668  1525A      2.632382  1526A      2.635231  
    1527A      2.639171  1528A      2.641636  1529A      2.643038  
    1530A      2.650549  1531A      2.652337  1532A      2.657126  
    1533A      2.660208  1534A      2.663629  1535A      2.670017  
    1536A      2.670668  1537A      2.675641  1538A      2.678711  
    1539A      2.684521  1540A      2.686502  1541A      2.690532  
    1542A      2.695148  1543A      2.700196  1544A      2.705198  
    1545A      2.709665  1546A      2.712369  1547A      2.714278  
    1548A      2.720787  1549A      2.723435  1550A      2.726770  
    1551A      2.731121  1552A      2.736107  1553A      2.737110  
    1554A      2.742564  1555A      2.747857  1556A      2.751744  
    1557A      2.755597  1558A      2.759459  1559A      2.762371  
    1560A      2.764808  1561A      2.771531  1562A      2.772864  
    1563A      2.776328  1564A      2.782316  1565A      2.785349  
    1566A      2.788079  1567A      2.792928  1568A      2.794006  
    1569A      2.795881  1570A      2.803890  1571A      2.807776  
    1572A      2.811094  1573A      2.814347  1574A      2.817640  
    1575A      2.818964  1576A      2.827562  1577A      2.833093  
    1578A      2.837698  1579A      2.843204  1580A      2.848401  
    1581A      2.851628  1582A      2.856501  1583A      2.859191  
    1584A      2.860360  1585A      2.871787  1586A      2.874600  
    1587A      2.883906  1588A      2.886660  1589A      2.889365  
    1590A      2.891020  1591A      2.900414  1592A      2.901240  
    1593A      2.904462  1594A      2.907740  1595A      2.908422  
    1596A      2.911838  1597A      2.922015  1598A      2.925982  
    1599A      2.928942  1600A      2.935929  1601A      2.941996  
    1602A      2.953829  1603A      2.959580  1604A      2.964822  
    1605A      2.969374  1606A      2.971922  1607A      2.973766  
    1608A      2.980935  1609A      2.987244  1610A      2.990398  
    1611A      2.993907  1612A      2.999781  1613A      3.015695  
    1614A      3.018746  1615A      3.021041  1616A      3.026561  
    1617A      3.037396  1618A      3.045332  1619A      3.052689  
    1620A      3.055688  1621A      3.065237  1622A      3.067507  
    1623A      3.068521  1624A      3.073527  1625A      3.074949  
    1626A      3.082483  1627A      3.091174  1628A      3.093098  
    1629A      3.097056  1630A      3.102074  1631A      3.108749  
    1632A      3.121816  1633A      3.122495  1634A      3.126793  
    1635A      3.135294  1636A      3.148451  1637A      3.152408  
    1638A      3.158157  1639A      3.163116  1640A      3.170768  
    1641A      3.181493  1642A      3.182546  1643A      3.199722  
    1644A      3.201810  1645A      3.204704  1646A      3.212156  
    1647A      3.215599  1648A      3.234749  1649A      3.235477  
    1650A      3.239859  1651A      3.247540  1652A      3.251478  
    1653A      3.257435  1654A      3.260581  1655A      3.269243  
    1656A      3.272745  1657A      3.275116  1658A      3.276971  
    1659A      3.282346  1660A      3.290082  1661A      3.291864  
    1662A      3.296475  1663A      3.302330  1664A      3.303988  
    1665A      3.308494  1666A      3.313535  1667A      3.316899  
    1668A      3.325192  1669A      3.333517  1670A      3.337052  
    1671A      3.342544  1672A      3.348215  1673A      3.351964  
    1674A      3.360129  1675A      3.365399  1676A      3.368309  
    1677A      3.369038  1678A      3.373967  1679A      3.375155  
    1680A      3.388057  1681A      3.389155  1682A      3.392342  
    1683A      3.397199  1684A      3.399451  1685A      3.406963  
    1686A      3.408112  1687A      3.410279  1688A      3.412906  
    1689A      3.416003  1690A      3.419120  1691A      3.424747  
    1692A      3.427281  1693A      3.431557  1694A      3.432453  
    1695A      3.438454  1696A      3.441653  1697A      3.443985  
    1698A      3.450510  1699A      3.452598  1700A      3.454153  
    1701A      3.458221  1702A      3.460403  1703A      3.463881  
    1704A      3.468355  1705A      3.472341  1706A      3.474937  
    1707A      3.482217  1708A      3.483665  1709A      3.486768  
    1710A      3.490146  1711A      3.493640  1712A      3.496981  
    1713A      3.501740  1714A      3.502323  1715A      3.505327  
    1716A      3.507904  1717A      3.509777  1718A      3.516381  
    1719A      3.518264  1720A      3.523771  1721A      3.527485  
    1722A      3.529001  1723A      3.529520  1724A      3.534084  
    1725A      3.536087  1726A      3.541229  1727A      3.543827  
    1728A      3.547044  1729A      3.549757  1730A      3.551328  
    1731A      3.556826  1732A      3.558179  1733A      3.562804  
    1734A      3.564153  1735A      3.567257  1736A      3.572733  
    1737A      3.573862  1738A      3.578392  1739A      3.578719  
    1740A      3.587010  1741A      3.590083  1742A      3.592856  
    1743A      3.596003  1744A      3.596116  1745A      3.598526  
    1746A      3.600422  1747A      3.602794  1748A      3.603960  
    1749A      3.608864  1750A      3.611744  1751A      3.614566  
    1752A      3.616256  1753A      3.622224  1754A      3.622844  
    1755A      3.625412  1756A      3.627705  1757A      3.629958  
    1758A      3.636598  1759A      3.637505  1760A      3.639375  
    1761A      3.640643  1762A      3.643376  1763A      3.646940  
    1764A      3.650790  1765A      3.654653  1766A      3.657781  
    1767A      3.659432  1768A      3.661651  1769A      3.662617  
    1770A      3.666288  1771A      3.668750  1772A      3.672302  
    1773A      3.676810  1774A      3.680426  1775A      3.681926  
    1776A      3.682155  1777A      3.686735  1778A      3.691806  
    1779A      3.694186  1780A      3.700616  1781A      3.701734  
    1782A      3.704824  1783A      3.707761  1784A      3.710771  
    1785A      3.715767  1786A      3.717310  1787A      3.722772  
    1788A      3.723007  1789A      3.724841  1790A      3.730252  
    1791A      3.731444  1792A      3.736055  1793A      3.736718  
    1794A      3.737823  1795A      3.740785  1796A      3.743912  
    1797A      3.746114  1798A      3.748414  1799A      3.749661  
    1800A      3.753130  1801A      3.757222  1802A      3.760945  
    1803A      3.762804  1804A      3.764859  1805A      3.770228  
    1806A      3.771672  1807A      3.773352  1808A      3.777476  
    1809A      3.780286  1810A      3.785375  1811A      3.787208  
    1812A      3.788884  1813A      3.794077  1814A      3.796231  
    1815A      3.797439  1816A      3.801341  1817A      3.802420  
    1818A      3.806971  1819A      3.810336  1820A      3.814600  
    1821A      3.819234  1822A      3.819847  1823A      3.820794  
    1824A      3.822961  1825A      3.825819  1826A      3.830749  
    1827A      3.834243  1828A      3.835563  1829A      3.839387  
    1830A      3.845341  1831A      3.848226  1832A      3.848858  
    1833A      3.849468  1834A      3.852098  1835A      3.853346  
    1836A      3.857522  1837A      3.860258  1838A      3.861665  
    1839A      3.863518  1840A      3.867896  1841A      3.873134  
    1842A      3.876089  1843A      3.876639  1844A      3.881311  
    1845A      3.886530  1846A      3.888929  1847A      3.891527  
    1848A      3.893816  1849A      3.897106  1850A      3.901351  
    1851A      3.902354  1852A      3.905527  1853A      3.909276  
    1854A      3.910736  1855A      3.912894  1856A      3.914448  
    1857A      3.914837  1858A      3.918037  1859A      3.922110  
    1860A      3.924176  1861A      3.925667  1862A      3.929906  
    1863A      3.933673  1864A      3.934271  1865A      3.936882  
    1866A      3.938369  1867A      3.942925  1868A      3.943596  
    1869A      3.948067  1870A      3.949518  1871A      3.951135  
    1872A      3.952565  1873A      3.956008  1874A      3.958348  
    1875A      3.962842  1876A      3.963937  1877A      3.968135  
    1878A      3.972602  1879A      3.973241  1880A      3.974651  
    1881A      3.979210  1882A      3.980456  1883A      3.981453  
    1884A      3.986680  1885A      3.989086  1886A      3.989862  
    1887A      3.992557  1888A      3.997941  1889A      4.000810  
    1890A      4.002770  1891A      4.003757  1892A      4.008252  
    1893A      4.011872  1894A      4.014266  1895A      4.016229  
    1896A      4.017663  1897A      4.020602  1898A      4.022694  
    1899A      4.026702  1900A      4.029284  1901A      4.031793  
    1902A      4.036843  1903A      4.038639  1904A      4.039937  
    1905A      4.040864  1906A      4.046790  1907A      4.049267  
    1908A      4.049702  1909A      4.053385  1910A      4.054433  
    1911A      4.057658  1912A      4.060080  1913A      4.064943  
    1914A      4.069841  1915A      4.074399  1916A      4.074719  
    1917A      4.077229  1918A      4.078680  1919A      4.080987  
    1920A      4.083038  1921A      4.085301  1922A      4.090577  
    1923A      4.093477  1924A      4.095472  1925A      4.098860  
    1926A      4.103663  1927A      4.104831  1928A      4.106917  
    1929A      4.109411  1930A      4.112067  1931A      4.114495  
    1932A      4.115769  1933A      4.117237  1934A      4.120832  
    1935A      4.122906  1936A      4.125959  1937A      4.130218  
    1938A      4.130903  1939A      4.137160  1940A      4.138660  
    1941A      4.141535  1942A      4.146668  1943A      4.148443  
    1944A      4.149937  1945A      4.155122  1946A      4.161780  
    1947A      4.163484  1948A      4.164710  1949A      4.167936  
    1950A      4.172018  1951A      4.175509  1952A      4.177708  
    1953A      4.183205  1954A      4.185064  1955A      4.187294  
    1956A      4.188406  1957A      4.192495  1958A      4.198927  
    1959A      4.199878  1960A      4.203173  1961A      4.205791  
    1962A      4.209142  1963A      4.213251  1964A      4.216535  
    1965A      4.220213  1966A      4.221249  1967A      4.223348  
    1968A      4.226495  1969A      4.230823  1970A      4.233314  
    1971A      4.238838  1972A      4.242393  1973A      4.243757  
    1974A      4.246685  1975A      4.250575  1976A      4.254633  
    1977A      4.259453  1978A      4.262601  1979A      4.264575  
    1980A      4.265858  1981A      4.269291  1982A      4.271334  
    1983A      4.273352  1984A      4.277715  1985A      4.278539  
    1986A      4.282204  1987A      4.282886  1988A      4.287303  
    1989A      4.291500  1990A      4.292825  1991A      4.294598  
    1992A      4.296756  1993A      4.301436  1994A      4.302682  
    1995A      4.309600  1996A      4.312149  1997A      4.315628  
    1998A      4.317210  1999A      4.321025  2000A      4.324860  
    2001A      4.328774  2002A      4.330122  2003A      4.332258  
    2004A      4.334186  2005A      4.336144  2006A      4.340084  
    2007A      4.341323  2008A      4.344056  2009A      4.347602  
    2010A      4.350333  2011A      4.352365  2012A      4.354481  
    2013A      4.362146  2014A      4.365246  2015A      4.368102  
    2016A      4.368806  2017A      4.371457  2018A      4.372973  
    2019A      4.375465  2020A      4.378610  2021A      4.382441  
    2022A      4.383239  2023A      4.385389  2024A      4.386977  
    2025A      4.388495  2026A      4.393470  2027A      4.396546  
    2028A      4.399598  2029A      4.404939  2030A      4.407257  
    2031A      4.410516  2032A      4.410785  2033A      4.417365  
    2034A      4.419558  2035A      4.419896  2036A      4.426268  
    2037A      4.430071  2038A      4.433030  2039A      4.436686  
    2040A      4.438508  2041A      4.443166  2042A      4.445587  
    2043A      4.450314  2044A      4.450458  2045A      4.453817  
    2046A      4.455502  2047A      4.462289  2048A      4.465090  
    2049A      4.466665  2050A      4.470823  2051A      4.473285  
    2052A      4.474597  2053A      4.476821  2054A      4.481020  
    2055A      4.482362  2056A      4.485356  2057A      4.491951  
    2058A      4.496688  2059A      4.500155  2060A      4.502724  
    2061A      4.508661  2062A      4.510333  2063A      4.511759  
    2064A      4.514557  2065A      4.516583  2066A      4.518425  
    2067A      4.525018  2068A      4.525656  2069A      4.528532  
    2070A      4.532790  2071A      4.534632  2072A      4.535702  
    2073A      4.537549  2074A      4.541472  2075A      4.545324  
    2076A      4.548269  2077A      4.550167  2078A      4.552057  
    2079A      4.554246  2080A      4.558642  2081A      4.567427  
    2082A      4.571296  2083A      4.574725  2084A      4.577648  
    2085A      4.579559  2086A      4.584811  2087A      4.590289  
    2088A      4.593267  2089A      4.595524  2090A      4.599313  
    2091A      4.602552  2092A      4.603141  2093A      4.607148  
    2094A      4.611298  2095A      4.615774  2096A      4.617614  
    2097A      4.620168  2098A      4.624870  2099A      4.628855  
    2100A      4.634105  2101A      4.638461  2102A      4.642496  
    2103A      4.644597  2104A      4.651921  2105A      4.655214  
    2106A      4.657253  2107A      4.661432  2108A      4.666277  
    2109A      4.667301  2110A      4.671142  2111A      4.674319  
    2112A      4.680806  2113A      4.682841  2114A      4.689331  
    2115A      4.691124  2116A      4.694343  2117A      4.698301  
    2118A      4.700282  2119A      4.705766  2120A      4.707859  
    2121A      4.709895  2122A      4.711035  2123A      4.720625  
    2124A      4.723537  2125A      4.726669  2126A      4.728946  
    2127A      4.730810  2128A      4.732656  2129A      4.740267  
    2130A      4.744376  2131A      4.745387  2132A      4.750528  
    2133A      4.754056  2134A      4.755510  2135A      4.758406  
    2136A      4.765046  2137A      4.771605  2138A      4.774014  
    2139A      4.777567  2140A      4.780636  2141A      4.784198  
    2142A      4.788036  2143A      4.791617  2144A      4.794511  
    2145A      4.795547  2146A      4.796994  2147A      4.798592  
    2148A      4.808128  2149A      4.810399  2150A      4.819137  
    2151A      4.821930  2152A      4.824827  2153A      4.827770  
    2154A      4.832203  2155A      4.835767  2156A      4.839124  
    2157A      4.841819  2158A      4.844669  2159A      4.848946  
    2160A      4.854500  2161A      4.857322  2162A      4.862304  
    2163A      4.865559  2164A      4.868760  2165A      4.872551  
    2166A      4.877124  2167A      4.879255  2168A      4.881541  
    2169A      4.884504  2170A      4.889375  2171A      4.893331  
    2172A      4.899095  2173A      4.900489  2174A      4.901512  
    2175A      4.904188  2176A      4.908491  2177A      4.913379  
    2178A      4.917171  2179A      4.921296  2180A      4.924596  
    2181A      4.926474  2182A      4.936687  2183A      4.940714  
    2184A      4.945396  2185A      4.950017  2186A      4.953129  
    2187A      4.959362  2188A      4.962481  2189A      4.965908  
    2190A      4.969975  2191A      4.971902  2192A      4.975296  
    2193A      4.979393  2194A      4.985324  2195A      4.991050  
    2196A      4.991766  2197A      4.996859  2198A      5.002929  
    2199A      5.006558  2200A      5.010631  2201A      5.010961  
    2202A      5.014334  2203A      5.018965  2204A      5.021443  
    2205A      5.022824  2206A      5.024678  2207A      5.030443  
    2208A      5.031727  2209A      5.042334  2210A      5.044782  
    2211A      5.045869  2212A      5.057754  2213A      5.058169  
    2214A      5.061215  2215A      5.066294  2216A      5.068160  
    2217A      5.068920  2218A      5.071934  2219A      5.078845  
    2220A      5.081318  2221A      5.085839  2222A      5.092792  
    2223A      5.095549  2224A      5.101419  2225A      5.103026  
    2226A      5.108694  2227A      5.110599  2228A      5.116201  
    2229A      5.118510  2230A      5.121690  2231A      5.124794  
    2232A      5.126712  2233A      5.129185  2234A      5.131927  
    2235A      5.138401  2236A      5.142317  2237A      5.142701  
    2238A      5.146590  2239A      5.150917  2240A      5.153189  
    2241A      5.158428  2242A      5.160113  2243A      5.163062  
    2244A      5.168709  2245A      5.171697  2246A      5.174872  
    2247A      5.180088  2248A      5.181804  2249A      5.184111  
    2250A      5.185128  2251A      5.189863  2252A      5.193936  
    2253A      5.196347  2254A      5.201834  2255A      5.209773  
    2256A      5.211678  2257A      5.221629  2258A      5.222625  
    2259A      5.225413  2260A      5.233881  2261A      5.240133  
    2262A      5.241605  2263A      5.243964  2264A      5.244640  
    2265A      5.249027  2266A      5.254164  2267A      5.256669  
    2268A      5.262134  2269A      5.269513  2270A      5.273956  
    2271A      5.280065  2272A      5.283691  2273A      5.290513  
    2274A      5.293013  2275A      5.294178  2276A      5.300222  
    2277A      5.304586  2278A      5.304765  2279A      5.306408  
    2280A      5.314702  2281A      5.316212  2282A      5.321458  
    2283A      5.331561  2284A      5.333034  2285A      5.335624  
    2286A      5.339878  2287A      5.342675  2288A      5.346307  
    2289A      5.348104  2290A      5.351970  2291A      5.357146  
    2292A      5.363424  2293A      5.364070  2294A      5.369477  
    2295A      5.372199  2296A      5.376665  2297A      5.381342  
    2298A      5.385749  2299A      5.388757  2300A      5.393415  
    2301A      5.403837  2302A      5.407940  2303A      5.410815  
    2304A      5.416042  2305A      5.417174  2306A      5.421871  
    2307A      5.425471  2308A      5.428926  2309A      5.439251  
    2310A      5.439688  2311A      5.445724  2312A      5.455740  
    2313A      5.460204  2314A      5.466519  2315A      5.468644  
    2316A      5.469300  2317A      5.479005  2318A      5.482172  
    2319A      5.487489  2320A      5.496216  2321A      5.498621  
    2322A      5.501716  2323A      5.506880  2324A      5.509637  
    2325A      5.512833  2326A      5.518389  2327A      5.523106  
    2328A      5.530689  2329A      5.536757  2330A      5.538615  
    2331A      5.541099  2332A      5.545424  2333A      5.556351  
    2334A      5.557483  2335A      5.561535  2336A      5.565657  
    2337A      5.572504  2338A      5.579947  2339A      5.585832  
    2340A      5.590003  2341A      5.595516  2342A      5.598398  
    2343A      5.606450  2344A      5.611728  2345A      5.612947  
    2346A      5.620596  2347A      5.630438  2348A      5.632439  
    2349A      5.633824  2350A      5.640419  2351A      5.648284  
    2352A      5.650331  2353A      5.656227  2354A      5.658199  
    2355A      5.669336  2356A      5.671149  2357A      5.675684  
    2358A      5.679962  2359A      5.688737  2360A      5.697348  
    2361A      5.709307  2362A      5.711742  2363A      5.713909  
    2364A      5.720895  2365A      5.729861  2366A      5.735684  
    2367A      5.741649  2368A      5.743238  2369A      5.753828  
    2370A      5.760261  2371A      5.769657  2372A      5.771803  
    2373A      5.780935  2374A      5.786743  2375A      5.791442  
    2376A      5.793238  2377A      5.804304  2378A      5.810129  
    2379A      5.818833  2380A      5.823989  2381A      5.825722  
    2382A      5.839213  2383A      5.846674  2384A      5.859864  
    2385A      5.864981  2386A      5.877907  2387A      5.884446  
    2388A      5.893434  2389A      5.900686  2390A      5.908222  
    2391A      5.911505  2392A      5.915037  2393A      5.923779  
    2394A      5.931752  2395A      5.940852  2396A      5.955758  
    2397A      5.963883  2398A      5.969060  2399A      5.976183  
    2400A      5.978460  2401A      5.993959  2402A      6.002072  
    2403A      6.007207  2404A      6.010783  2405A      6.028002  
    2406A      6.031289  2407A      6.040160  2408A      6.049730  
    2409A      6.054653  2410A      6.057434  2411A      6.065232  
    2412A      6.076344  2413A      6.084288  2414A      6.087622  
    2415A      6.094090  2416A      6.100145  2417A      6.109914  
    2418A      6.123036  2419A      6.132701  2420A      6.140447  
    2421A      6.152674  2422A      6.158396  2423A      6.163162  
    2424A      6.174414  2425A      6.177684  2426A      6.180922  
    2427A      6.191841  2428A      6.197407  2429A      6.204325  
    2430A      6.215133  2431A      6.219013  2432A      6.220599  
    2433A      6.229157  2434A      6.248481  2435A      6.260994  
    2436A      6.269435  2437A      6.270958  2438A      6.281406  
    2439A      6.286216  2440A      6.290866  2441A      6.306631  
    2442A      6.316802  2443A      6.329427  2444A      6.331816  
    2445A      6.343702  2446A      6.353021  2447A      6.361692  
    2448A      6.366394  2449A      6.373751  2450A      6.378913  
    2451A      6.391955  2452A      6.393422  2453A      6.410022  
    2454A      6.411676  2455A      6.426552  2456A      6.431549  
    2457A      6.446087  2458A      6.453772  2459A      6.468953  
    2460A      6.474633  2461A      6.481950  2462A      6.484302  
    2463A      6.498083  2464A      6.506884  2465A      6.520240  
    2466A      6.524798  2467A      6.540810  2468A      6.546087  
    2469A      6.556239  2470A      6.558758  2471A      6.574218  
    2472A      6.578789  2473A      6.596859  2474A      6.601578  
    2475A      6.605588  2476A      6.620461  2477A      6.627820  
    2478A      6.629737  2479A      6.640203  2480A      6.659470  
    2481A      6.675066  2482A      6.681483  2483A      6.685704  
    2484A      6.700607  2485A      6.712257  2486A      6.720885  
    2487A      6.738481  2488A      6.749034  2489A      6.762376  
    2490A      6.771613  2491A      6.781073  2492A      6.785931  
    2493A      6.802191  2494A      6.810604  2495A      6.816992  
    2496A      6.836254  2497A      6.841348  2498A      6.846260  
    2499A      6.853778  2500A      6.864835  2501A      6.885409  
    2502A      6.888437  2503A      6.897781  2504A      6.898053  
    2505A      6.900340  2506A      6.911001  2507A      6.919205  
    2508A      6.927820  2509A      6.935761  2510A      6.940774  
    2511A      6.941209  2512A      6.950295  2513A      6.954640  
    2514A      6.976780  2515A      6.978082  2516A      6.980941  
    2517A      6.989924  2518A      6.993242  2519A      7.003596  
    2520A      7.010753  2521A      7.021324  2522A      7.030569  
    2523A      7.037220  2524A      7.058006  2525A      7.063749  
    2526A      7.079897  2527A      7.086167  2528A      7.094365  
    2529A      7.107094  2530A      7.109155  2531A      7.116803  
    2532A      7.131122  2533A      7.142530  2534A      7.152014  
    2535A      7.158645  2536A      7.170587  2537A      7.175103  
    2538A      7.207639  2539A      7.216476  2540A      7.228904  
    2541A      7.234421  2542A      7.249730  2543A      7.263796  
    2544A      7.286400  2545A      7.297132  2546A      7.317498  
    2547A      7.327219  2548A      7.354391  2549A      7.391840  
    2550A      7.398970  2551A      7.419853  2552A      7.445558  
    2553A      7.472193  2554A      7.511537  2555A      7.543692  
    2556A      7.555031  2557A      7.595070  2558A      7.625323  
    2559A      7.694389  2560A      7.695260  2561A      7.701965  
    2562A      7.756966  2563A      7.762970  2564A      7.771382  
    2565A      7.778701  2566A      7.784277  2567A      7.796222  
    2568A      7.810338  2569A      7.850072  2570A      7.869264  
    2571A      7.923211  2572A      7.943629  2573A      7.959203  
    2574A      8.016139  2575A      8.024236  2576A      8.101272  
    2577A      8.114493  2578A      8.194287  2579A      8.337834  
    2580A      8.546379  2581A     15.657639  2582A     15.906032  
    2583A     16.067341  2584A     16.425494  2585A     16.453206  
    2586A     16.797039  2587A     16.850024  2588A     16.953971  
    2589A     17.295816  2590A     17.513024  2591A     17.887281  
    2592A     18.025220  2593A     18.305792  2594A     18.685221  
    2595A     19.017850  2596A     19.062996  2597A     19.145357  
    2598A     19.352198  2599A     19.434512  2600A     19.492246  
    2601A     19.540957  2602A     19.880184  2603A     19.892589  
    2604A     20.023759  2605A     20.154669  2606A     20.172445  
    2607A     20.409248  2608A     20.494805  2609A     20.578071  
    2610A     20.791539  2611A     20.799180  2612A     20.890881  
    2613A     21.074292  2614A     21.139480  2615A     21.380081  
    2616A     21.622550  2617A     21.981190  2618A     22.190683  
    2619A     22.290530  2620A     23.369940  

    Final Occupation by Irrep:
              A 
    DOCC [   143 ]

  @DF-RHF Final Energy: -1765.81703665585746

   => Energetics <=

    Nuclear Repulsion Energy =           4233.7557313120705658
    One-Electron Energy =              -10808.6744795040649478
    Two-Electron Energy =                4809.1017115361364631
    Total Energy =                      -1765.8170366558579190

Computation Completed

*** tstop() called on node144.bme.utexas.edu at Fri Oct 22 05:47:48 2021
Module time:
	user time   =   71354.58 seconds =    1189.24 minutes
	system time =    3563.74 seconds =      59.40 minutes
	total time  =       6566 seconds =     109.43 minutes
Total time:
	user time   =   71354.58 seconds =    1189.24 minutes
	system time =    3563.74 seconds =      59.40 minutes
	total time  =       6566 seconds =     109.43 minutes
   => Loading Basis Set <=

    Name: (AUG-CC-PVTZ AUX)
    Role: RIFIT
    Keyword: DF_BASIS_MP2
    atoms 1-4, 40 entry N          line   206 file /home/eew947/anaconda3/envs/amoebamdpoltype/share/psi4/basis/aug-cc-pvtz-ri.gbs 
    atoms 5-35    entry C          line   148 file /home/eew947/anaconda3/envs/amoebamdpoltype/share/psi4/basis/aug-cc-pvtz-ri.gbs 
    atoms 36-39   entry O          line   264 file /home/eew947/anaconda3/envs/amoebamdpoltype/share/psi4/basis/aug-cc-pvtz-ri.gbs 
    atoms 41-74   entry H          line    30 file /home/eew947/anaconda3/envs/amoebamdpoltype/share/psi4/basis/aug-cc-pvtz-ri.gbs 


*** tstart() called on node144.bme.utexas.edu
*** at Fri Oct 22 05:47:49 2021


  //>>>>>>>>>>>>>>>>>>>>>>>>>>>>>>>>>>>//
  //               DFMP2               //
  //<<<<<<<<<<<<<<<<<<<<<<<<<<<<<<<<<<<//

	 --------------------------------------------------------
	                          DF-MP2                         
	      2nd-Order Density-Fitted Moller-Plesset Theory     
	              RMP2 Wavefunction,  12 Threads             
	                                                         
[...]
   47     0.00000000195586     0.00000698400542     0.00000140797886     0.00000013616443     0.00000055644015
   48     0.00000000014346     0.00000102997226     0.00000010230834     0.00000001146491     0.00000003301618
   49     0.00000000023880     0.00000069492959     0.00000006094340     0.00000001094347     0.00000013333529
   50     0.00000005153074     0.00097122499494     0.00003041531902     0.00000495085386     0.00001024123372
   51     0.00000006633341     0.00016685751974     0.00002733524082     0.00000578787077     0.00001570159474
   52     0.00000000020418     0.00000034423361     0.00000009257811     0.00000000828036     0.00000008615917
   53     0.00000026952745     0.05111186633323     0.00033468422505     0.00001930250312     0.00004813045218
   54     0.00000299988674     0.00069509663128     0.00052623513744     0.00024032732487     0.00075248923052
   55     0.00000074098994     0.23900904118223     0.00627120164628     0.00009882458296     0.00012639512960
   56     0.00005506952037     0.00669335969999     0.22462342924561     0.02972903338789     0.00316300502834
   57     0.00041065936712     0.00009788288500     0.00264825238422     0.22410090811075     0.01350664277450
   58     0.00045758070544     0.00009708216120     0.02168772950634     0.00318605714693     0.22239779738288
   59     0.00779834085826     0.00000769607733     0.00059789174765     0.02818357526693     0.00130564481436
   60     0.00741305365147     0.00000873621933     0.00065371325656     0.00070418609468     0.02943741770717
   61     0.00000000000000     0.00000097317317     0.00004970302669     0.00047932539142     0.00062256668891
   62     0.00000097317317     0.00000000000000     0.00727409497959     0.00008905047457     0.00024252982911
   63     0.00004970302669     0.00727409497959     0.00000000000000     0.00711820757997     0.00753064959082
   64     0.00047932539142     0.00008905047457     0.00711820757997     0.00000000000000     0.00379517197567
   65     0.00062256668891     0.00024252982911     0.00753064959082     0.00379517197567     0.00000000000000
   66     0.00871056321245     0.00000679519942     0.00042060857747     0.04680258569589     0.00072126443323
   67     0.00264592823996     0.00001024832074     0.00069813949589     0.00298588585662     0.04296391656172
   68     0.24759203267691     0.00000144765896     0.00009231172532     0.00086314909181     0.00046490055212
   69     0.00000355085131     0.24426776057482     0.04574942451324     0.00092301254745     0.00041417696505
   70     0.00000000019795     0.00000047608628     0.00000009652640     0.00000000731469     0.00000005300729
   71     0.00000000000968     0.00000000333350     0.00000000082651     0.00000000014049     0.00000000050785
   72     0.00000000000682     0.00000000263704     0.00000000044026     0.00000000012065     0.00000000034652
   73     0.00000000000967     0.00000000574608     0.00000000093943     0.00000000023758     0.00000000076623
   74     0.04813996755031     0.00001373908093     0.00205040301927     0.00565868168335     0.00697226758694

                66                  67                  68                  69                  70

    1     0.00000037305305     0.00000027486245     0.00000010777715     0.00013069925805     0.00084818764659
    2     0.00000000337576     0.00000000353956     0.00000000117626     0.00000080248297     0.00382130792645
    3     0.00010107258759     0.00009699588423     0.00002187412424     0.23516880593406     0.00000688537063
    4     0.03045616693333     0.02830799570136     0.00275842580123     0.01465469222308     0.00000007046244
    5     0.00000004044112     0.00000004776351     0.00000001500854     0.00000948826658     0.00317482862690
    6     0.00000001371264     0.00000001095540     0.00000000509292     0.00000284695760     0.01887822348259
    7     0.00000009658103     0.00000012170585     0.00000003117090     0.00003003214623     0.00185425899574
    8     0.00000002369007     0.00000003326807     0.00000000834585     0.00000569465937     0.00120415603699
    9     0.00000000560928     0.00000000347851     0.00000000203188     0.00000114183231     0.05347314383767
   10     0.00000000509955     0.00000000338870     0.00000000192721     0.00000108434893     0.04689201614084
   11     0.00000003827754     0.00000006232938     0.00000001672775     0.00001349233889     0.00060361215231
   12     0.00000000272117     0.00000000116548     0.00000000102453     0.00000049142089     0.30474903996170
   13     0.00000000308212     0.00000000161826     0.00000000120454     0.00000051656502     0.29540132976595
   14     0.00000001875872     0.00000003926038     0.00000000900494     0.00000629042390     0.00040804068188
   15     0.00000002074781     0.00000003513758     0.00000000698718     0.00000610470023     0.00015295032403
   16     0.00000136493846     0.00000141784329     0.00000030656794     0.00052722678511     0.00018855753430
   17     0.00000000615860     0.00000001095709     0.00000000235878     0.00000174178475     0.00012621984955
   18     0.00000000620105     0.00000001382066     0.00000000233649     0.00000150931051     0.00007325233428
   19     0.00000183362169     0.00000224281999     0.00000052811010     0.00147343610113     0.00009539006896
   20     0.00000269290574     0.00000396779379     0.00000049370771     0.00087723619004     0.00005048276154
   21     0.00000000387146     0.00000000872072     0.00000000187486     0.00000087293238     0.00008612424626
   22     0.00000581495717     0.00000684970234     0.00000181767483     0.01399556417206     0.00002736144881
   23     0.00001405419073     0.00002556586835     0.00000274409870     0.00384447034167     0.00001780981346
   24     0.00002621061325     0.00003274811189     0.00000689300009     0.03527263661790     0.00002095139809
   25     0.00093119859401     0.00141935330866     0.00013976851605     0.07349220440120     0.00000243124949
   26     0.00005296279400     0.00005924966385     0.00000830103660     0.79383707347581     0.00000159149327
   27     0.00431636238896     0.00390489947261     0.00057373531006     0.09713233315750     0.00000063656512
   28     0.21519579872123     0.03195741155991     0.00852430783079     0.00292676588366     0.00000002108525
   29     0.00816934276194     0.20934854632731     0.00339772555432     0.00287606605594     0.00000003300984
   30     0.75327002724278     0.06332897947571     0.07374557481968     0.00036820973185     0.00000000419929
   31     0.03050467377037     0.73841988680774     0.03578528959030     0.00040999123494     0.00000000409519
   32     0.04933337291574     0.03893876824739     0.80648828129714     0.00002037392743     0.00000000115006
   33     0.00000000331296     0.00000000135520     0.00000000140203     0.00000061144175     0.81579709188759
   34     0.00000000066643     0.00000000055524     0.00000000023748     0.00000005904829     0.07511883240909
   35     0.00000000015711     0.00000000010516     0.00000000005332     0.00000000501302     0.01173237008447
   36     0.00000002581637     0.00000003592660     0.00000001025211     0.00000677788232     0.00029539044147
   37     0.00084537623772     0.00146922075331     0.00005723440581     0.00618259961621     0.00000178978188
   38     0.00000000046600     0.00000000032253     0.00000000016947     0.00000001604219     0.07885041470940
   39     0.00000000057577     0.00000000037376     0.00000000020542     0.00000001852271     0.00668713626562
   40     0.21250794869283     0.21071250422578     0.22789720194621     0.00009131862378     0.00000000280336
   41     0.00374528649081     0.01122943290062     0.24808003808331     0.00000797095780     0.00000000015793
   42     0.00000000146058     0.00000000180789     0.00000000058540     0.00000041369060     0.00331381627851
   43     0.00000007742095     0.00000009326598     0.00000002253459     0.00002784740626     0.00015780189686
   44     0.00000000074206     0.00000000103611     0.00000000020479     0.00000015937993     0.00056629634721
   45     0.00000000027800     0.00000000028366     0.00000000008337     0.00000005163366     0.05860750192922
   46     0.00000000646974     0.00000001593745     0.00000000343245     0.00000228612341     0.00014702350804
   47     0.00000001074361     0.00000001663383     0.00000000272085     0.00000348249759     0.00002667079496
   48     0.00000000089558     0.00000000160579     0.00000000025180     0.00000026589492     0.00001931787074
   49     0.00000000130898     0.00000000384480     0.00000000030525     0.00000026744218     0.00000933757726
   50     0.00000031306444     0.00000055143590     0.00000009268055     0.00013020657559     0.00006084937085
   51     0.00000040095789     0.00000062309463     0.00000006214097     0.00014725590369     0.00001210959137
   52     0.00000000077092     0.00000000245495     0.00000000040529     0.00000012000025     0.00002299823116
   53     0.00000175626130     0.00000264172023     0.00000037138643     0.01101602850542     0.00000404716149
   54     0.00001325583491     0.00002357927553     0.00000225117539     0.00060200257304     0.00000220730986
   55     0.00000623007179     0.00000843845475     0.00000112057150     0.24578270025689     0.00000037200451
   56     0.00095470560748     0.00054893560968     0.00009134764894     0.04854149308869     0.00000011801831
   57     0.02555654294431     0.01055168714570     0.00095338059025     0.00033758485332     0.00000001800307
   58     0.00073344747280     0.02562027660894     0.00037789474803     0.00058270736531     0.00000000880497
   59     0.22459002225106     0.02031745846991     0.03383376183393     0.00006136166295     0.00000000066537
   60     0.00299731863401     0.22410219056212     0.00804948103084     0.00007761741493     0.00000000053987
   61     0.00871056321245     0.00264592823996     0.24759203267691     0.00000355085131     0.00000000019795
   62     0.00000679519942     0.00001024832074     0.00000144765896     0.24426776057482     0.00000047608628
   63     0.00042060857747     0.00069813949589     0.00009231172532     0.04574942451324     0.00000009652640
   64     0.04680258569589     0.00298588585662     0.00086314909181     0.00092301254745     0.00000000731469
   65     0.00072126443323     0.04296391656172     0.00046490055212     0.00041417696505     0.00000005300729
   66     0.00000000000000     0.00597055374313     0.01492437550112     0.00004719717188     0.00000000087205
   67     0.00597055374313     0.00000000000000     0.00539762081832     0.00006189812819     0.00000000035012
   68     0.01492437550112     0.00539762081832     0.00000000000000     0.00000730907275     0.00000000037928
   69     0.00004719717188     0.00006189812819     0.00000730907275     0.00000000000000     0.00000017426532
   70     0.00000000087205     0.00000000035012     0.00000000037928     0.00000017426532     0.00000000000000
   71     0.00000000004258     0.00000000002038     0.00000000001477     0.00000000170375     0.00113096377387
   72     0.00000000003900     0.00000000002447     0.00000000001395     0.00000000113172     0.00138141593574
   73     0.00000000004830     0.00000000003352     0.00000000001166     0.00000000185109     0.00127611380558
   74     0.04427328355471     0.02627428716297     0.02676899875194     0.00009460331513     0.00000000308036

                71                  72                  73                  74

    1     0.00000299898204     0.00000199827378     0.00000306517776     0.00000075894576
    2     0.00006019065443     0.00003121035445     0.00004844284413     0.00000000682355
    3     0.00000002100676     0.00000000859338     0.00000001367462     0.00042838050038
    4     0.00000000044926     0.00000000034820     0.00000000052242     0.10321239830878
    5     0.00004161641155     0.00004034581137     0.00004233889556     0.00000012026807
    6     0.00024802821218     0.00020107388236     0.00026957818425     0.00000003831226
    7     0.00001247091969     0.00000981122342     0.00001387039337     0.00000026368485
    8     0.00003028756230     0.00002119417171     0.00002565018131     0.00000005925677
    9     0.00017483875566     0.00010962799692     0.00016922436211     0.00000001487345
   10     0.00114046434951     0.00095538016435     0.00170855321913     0.00000001563907
   11     0.00001078758088     0.00000799527301     0.00001701863838     0.00000015778459
   12     0.00028695166925     0.00023507049672     0.00034888577672     0.00000000788535
   13     0.00657997571608     0.00537173207479     0.00909352033062     0.00000000917059
   14     0.00001822854593     0.00001540755868     0.00003636832287     0.00000009984676
   15     0.00000412021368     0.00000279585500     0.00000679694881     0.00000006090679
   16     0.00000122631570     0.00000084005564     0.00000151643378     0.00000289993570
   17     0.00001355172318     0.00001093054893     0.00003310768825     0.00000002229319
   18     0.00000258172565     0.00000184215159     0.00000477472578     0.00000002359867
   19     0.00000104413283     0.00000070574061     0.00000135958661     0.00000689078523
   20     0.00000038834021     0.00000026029475     0.00000050484489     0.00000469809839
   21     0.00000501924729     0.00000354550820     0.00001027922811     0.00000002010196
   22     0.00000023670838     0.00000013325066     0.00000028585092     0.00002183849078
   23     0.00000011710669     0.00000007108019     0.00000013998194     0.00002622322800
   24     0.00000010598054     0.00000005588360     0.00000011561048     0.00009997843315
   25     0.00000001236692     0.00000000646415     0.00000001070577     0.00253146665400
   26     0.00000000887975     0.00000000495233     0.00000000961792     0.00010945017942
   27     0.00000000352743     0.00000000195934     0.00000000302387     0.01776527246806
   28     0.00000000041726     0.00000000033560     0.00000000051537     0.05769170446033
   29     0.00000000036341     0.00000000025938     0.00000000050795     0.07232673728556
   30     0.00000000011941     0.00000000013500     0.00000000013999     0.21380597337246
   31     0.00000000010800     0.00000000015181     0.00000000015497     0.20999653683732
   32     0.00000000002928     0.00000000002773     0.00000000002479     0.20617403366586
   33     0.00210168416419     0.00205613306739     0.00254921789162     0.00000001105226
   34     0.06685648392335     0.05403477596901     0.09819224731072     0.00000000109686
   35     0.87543056967609     0.89090634349006     0.86327467081846     0.00000000009884
   36     0.00001397954488     0.00000792077785     0.00001104762868     0.00000006752970
   37     0.00000000638443     0.00000000336973     0.00000000565973     0.00089419547657
   38     0.24333755615793     0.27155588933847     0.23620950635938     0.00000000036674
   39     0.02728049794470     0.01375183805208     0.09380439907910     0.00000000034395
   40     0.00000000004282     0.00000000005869     0.00000000004285     0.80319355518003
   41     0.00000000001174     0.00000000001050     0.00000000001089     0.03039062992425
   42     0.00032547639175     0.00023109663396     0.00062874680544     0.00000000543632
   43     0.00000200171472     0.00000155546180     0.00000262617275     0.00000017126500
   44     0.00001478834614     0.00001029589809     0.00001576129703     0.00000000112537
   45     0.00004377305893     0.00003842667201     0.00005772701497     0.00000000063350
   46     0.00000941965680     0.00000783615147     0.00001630915820     0.00000004523808
   47     0.00000079405318     0.00000064897882     0.00000158699285     0.00000002256350
   48     0.00000365145523     0.00000285388618     0.00000926929953     0.00000000264923
   49     0.00000037107781     0.00000026310829     0.00000056627802     0.00000000521285
   50     0.00000112630848     0.00000083587259     0.00000150428836     0.00000147360975
   51     0.00000015182766     0.00000011817193     0.00000020653000     0.00000077390610
   52     0.00000071289852     0.00000040220007     0.00000153971998     0.00000000498195
   53     0.00000006648106     0.00000004411935     0.00000008214277     0.00000327401974
   54     0.00000002106285     0.00000001706416     0.00000002679897     0.00001875331296
   55     0.00000000401788     0.00000000230176     0.00000000370502     0.00001100618244
   56     0.00000000089673     0.00000000049318     0.00000000107895     0.00169469280617
   57     0.00000000019236     0.00000000015309     0.00000000023521     0.00526558356521
   58     0.00000000009808     0.00000000009803     0.00000000015996     0.01350388608679
   59     0.00000000004026     0.00000000003289     0.00000000003636     0.02711234820792
   60     0.00000000003597     0.00000000004544     0.00000000005439     0.03276068235101
   61     0.00000000000968     0.00000000000682     0.00000000000967     0.04813996755031
   62     0.00000000333350     0.00000000263704     0.00000000574608     0.00001373908093
   63     0.00000000082651     0.00000000044026     0.00000000093943     0.00205040301927
   64     0.00000000014049     0.00000000012065     0.00000000023758     0.00565868168335
   65     0.00000000050785     0.00000000034652     0.00000000076623     0.00697226758694
   66     0.00000000004258     0.00000000003900     0.00000000004830     0.04427328355471
   67     0.00000000002038     0.00000000002447     0.00000000003352     0.02627428716297
   68     0.00000000001477     0.00000000001395     0.00000000001166     0.02676899875194
   69     0.00000000170375     0.00000000113172     0.00000000185109     0.00009460331513
   70     0.00113096377387     0.00138141593574     0.00127611380558     0.00000000308036
   71     0.00000000000000     0.27272400790155     0.26548744506622     0.00000000002135
   72     0.27272400790155     0.00000000000000     0.26642237394755     0.00000000001859
   73     0.26548744506622     0.26642237394755     0.00000000000000     0.00000000002653
   74     0.00000000002135     0.00000000001859     0.00000000002653     0.00000000000000



  Atomic Valences: 

 #  #
 Irrep: 1
      1:  5.3970113
      2:  5.3625342
      3:  6.0597677
      4:  6.0796533
      5:  5.9283561
      6:  6.0390136
      7:  6.2830158
      8:  6.8206320
      9:  6.2935457
     10:  5.3303061
     11:  6.1242114
     12:  5.1932599
     13:  6.0618155
     14:  5.3998571
     15:  5.2810048
     16:  6.2501945
     17:  5.2586902
     18:  5.2531571
     19:  5.2847106
     20:  5.2472312
     21:  5.2635508
     22:  5.3078782
     23:  5.3086521
     24:  6.2263683
     25:  6.8315433
     26:  4.7314280
     27:  5.4705654
     28:  5.4108586
     29:  5.4041495
     30:  5.2420375
     31:  5.2505143
     32:  4.4673722
     33:  5.3121364
     34:  7.0961266
     35:  4.8058126
     36:  4.0308205
     37:  4.2370743
     38:  4.9629480
     39:  4.0563270
     40:  6.0513541
     41:  1.7450795
     42:  1.8570211
     43:  2.2562594
     44:  1.8746661
     45:  1.7178445
     46:  1.7469611
     47:  1.7381837
     48:  1.7250780
     49:  1.7297611
     50:  1.8152338
     51:  1.7211385
     52:  1.7303134
     53:  1.8087352
     54:  1.8610263
     55:  1.7380920
     56:  1.7828088
     57:  1.7760039
     58:  1.7221088
     59:  1.7238125
     60:  1.7132758
     61:  1.7003101
     62:  1.7691994
     63:  1.7727496
     64:  1.7323227
     65:  1.8271968
     66:  1.6862136
     67:  1.7074517
     68:  1.7469127
     69:  1.8822622
     70:  1.7873818
     71:  1.7634008
     72:  1.7801572
     73:  1.8397984
     74:  1.9593036


 Electrostatic potential computed on the grid and written to grid_esp.dat

    Psi4 stopped on: Saturday, 23 October 2021 04:05AM
    Psi4 wall time for execution: 1 day, 0:06:47.11

*** Psi4 exiting successfully. Buy a developer a beer!
