
    -----------------------------------------------------------------------
          Psi4: An Open-Source Ab Initio Electronic Structure Package
                               Psi4 1.6 release

                         Git: Rev {HEAD} 77475b5 


    D. G. A. Smith, L. A. Burns, A. C. Simmonett, R. M. Parrish,
    M. C. Schieber, R. Galvelis, P. Kraus, H. Kruse, R. Di Remigio,
    A. Alenaizan, A. M. James, S. Lehtola, J. P. Misiewicz, M. Scheurer,
    R. A. Shaw, J. B. Schriber, Y. Xie, Z. L. Glick, D. A. Sirianni,
    J. S. O'Brien, J. M. Waldrop, A. Kumar, E. G. Hohenstein,
    B. P. Pritchard, B. R. Brooks, H. F. Schaefer III, A. Yu. Sokolov,
    K. Patkowski, A. E. DePrince III, U. Bozkaya, R. A. King,
    F. A. Evangelista, J. M. Turney, T. D. Crawford, C. D. Sherrill,
    J. Chem. Phys. 152(18) 184108 (2020). https://doi.org/10.1063/5.0006002

                            Additional Code Authors
    E. T. Seidl, C. L. Janssen, E. F. Valeev, M. L. Leininger,
    J. F. Gonthier, R. M. Richard, H. R. McAlexander, M. Saitow, X. Wang,
    P. Verma, M. H. Lechner, and A. Jiang

             Previous Authors, Complete List of Code Contributors,
                       and Citations for Specific Modules
    https://github.com/psi4/psi4/blob/master/codemeta.json
    https://github.com/psi4/psi4/graphs/contributors
    http://psicode.org/psi4manual/master/introduction.html#citing-psifour

    -----------------------------------------------------------------------


    Psi4 started on: Saturday, 18 November 2023 08:03AM

    Process ID: 1108505
    Host:       node165.bme.utexas.edu
    PSIDATADIR: /home/liuchw/anaconda3/envs/poltype2022/share/psi4
    Memory:     500.0 MiB
    Threads:    1
    
  ==> Input File <==

--------------------------------------------------------------------------
molecule { 
0 1
 C   -6.081500    0.535200   -0.223500
 C   -7.161900    1.216300    0.371500
 C   -8.427800    0.459100    0.585700
 O   -9.386700    1.266900    1.102500
 C   -7.027200    2.569200    0.751000
 O   -8.557700   -0.725300    0.321900
 C   -4.889100    1.211400   -0.436900
 C   -4.787200    2.548300   -0.037000
 H   -6.205200   -0.506500   -0.499700
 C   -5.824800    3.248400    0.548200
 H   -7.857200    3.101100    1.211800
 H   -5.717600    4.286100    0.844400
 H  -10.286400    0.903800    1.299700
 H   -4.037000    0.704400   -0.913100
 H   -3.831500    3.069000   -0.196800
}
set {
  geom_maxiter 400
  g_convergence GAU_LOOSE
  dynamic_level 1
}
geometric_keywords = {
 'coordsys' : 'tric',
 'convergence_cmax' : 1e0,
 'convergence_set' : 'GAU_LOOSE',
 'convergence_energy' : 1e-4,
}
memory 20GB
set_num_threads(5)
psi4_io.set_default_path("/scratch/liuchw/Psi4-13_34_Index_0-farH_in17")
basis {
assign 6-31G*
}
opt_finished = False
if not opt_finished:
    try:
        ener, opt_hist = optimize('mp2',engine='geometric',optimizer_keywords=geometric_keywords, return_history=True)
        opt_finished = len(opt_hist['energy']) < 400
    except Exception as e:
        core.print_out('Exception: %s'%(e))
if not opt_finished:
    try:
        optimize('mp2')
    except:
        set opt_coordinates both
        optimize('mp2')
    opt_finished = True
clean()
assert opt_finished

--------------------------------------------------------------------------

  Memory set to  18.626 GiB by Python driver.
  Threads set to 5 by Python driver.


  ==> GeomeTRIC Optimizer <==                                                                   ~

Scratch directory: /scratch/liuchw/Psi4-13_34_Index_0-farH_in17/
gradient() will perform analytic gradient computation.
    SCF Algorithm Type (re)set to DF.

*** tstart() called on node165.bme.utexas.edu
*** at Sat Nov 18 08:03:46 2023

   => Loading Basis Set <=

    Name: ANONYMOUSFADC696E
    Role: ORBITAL
    Keyword: BASIS
    atoms 1-3, 5, 7-8, 10 entry C          line   111 file /home/liuchw/anaconda3/envs/poltype2022/share/psi4/basis/6-31gs.gbs 
    atoms 4, 6            entry O          line   145 file /home/liuchw/anaconda3/envs/poltype2022/share/psi4/basis/6-31gs.gbs 
    atoms 9, 11-15        entry H          line    44 file /home/liuchw/anaconda3/envs/poltype2022/share/psi4/basis/6-31gs.gbs 


         ---------------------------------------------------------
                                   SCF
               by Justin Turney, Rob Parrish, Andy Simmonett
                          and Daniel G. A. Smith
                              RHF Reference
                        5 Threads,  19073 MiB Core
         ---------------------------------------------------------

  ==> Geometry <==

    Molecular point group: c1
    Full point group: C1

    Geometry (in Angstrom), charge = 0, multiplicity = 1:

       Center              X                  Y                   Z               Mass       
    ------------   -----------------  -----------------  -----------------  -----------------
         C            0.929868963466    -0.790351095745    -0.577910542781    12.000000000000
         C           -0.150531036534    -0.109251095745     0.017089457219    12.000000000000
         C           -1.416431036534    -0.866451095745     0.231289457219    12.000000000000
         O           -2.375331036534    -0.058651095745     0.748089457219    15.994914619570
         C           -0.015831036534     1.243648904255     0.396589457219    12.000000000000
         O           -1.546331036534    -2.050851095745    -0.032510542781    15.994914619570
         C            2.122268963466    -0.114151095745    -0.791310542781    12.000000000000
         C            2.224168963466     1.222748904255    -0.391410542781    12.000000000000
         H            0.806168963466    -1.832051095745    -0.854110542781     1.007825032230
         C            1.186568963466     1.922848904255     0.193789457219    12.000000000000
         H           -0.845831036534     1.775548904255     0.857389457219     1.007825032230
         H            1.293768963466     2.960548904255     0.489989457219     1.007825032230
         H           -3.275031036534    -0.421751095745     0.945289457219     1.007825032230
         H            2.974368963466    -0.621151095745    -1.267510542781     1.007825032230
         H            3.179868963466     1.743448904255    -0.551210542781     1.007825032230

  Running in c1 symmetry.

  Rotational constants: A =      0.12533  B =      0.04152  C =      0.03120 [cm^-1]
  Rotational constants: A =   3757.27010  B =   1244.83223  C =    935.38537 [MHz]
  Nuclear repulsion =  404.033491376279983

  Charge       = 0
  Multiplicity = 1
  Electrons    = 64
  Nalpha       = 32
  Nbeta        = 32

  ==> Algorithm <==

  SCF Algorithm Type is DF.
  DIIS enabled.
  MOM disabled.
  Fractional occupation disabled.
  Guess Type is SAD.
  Energy threshold   = 1.00e-10
  Density threshold  = 1.00e-10
  Integral threshold = 1.00e-12

  ==> Primary Basis <==

  Basis Set: ANONYMOUSFADC696E
    Blend: 6-31G*
    Number of shells: 66
    Number of basis functions: 147
    Number of Cartesian functions: 147
    Spherical Harmonics?: false
    Max angular momentum: 2

   => Loading Basis Set <=

    Name: (ANONYMOUSFADC696E AUX)
    Role: JKFIT
    Keyword: DF_BASIS_SCF
    atoms 1-3, 5, 7-8, 10 entry C          line   121 file /home/liuchw/anaconda3/envs/poltype2022/share/psi4/basis/cc-pvdz-jkfit.gbs 
    atoms 4, 6            entry O          line   221 file /home/liuchw/anaconda3/envs/poltype2022/share/psi4/basis/cc-pvdz-jkfit.gbs 
    atoms 9, 11-15        entry H          line    51 file /home/liuchw/anaconda3/envs/poltype2022/share/psi4/basis/cc-pvdz-jkfit.gbs 

  ==> Integral Setup <==

  DFHelper Memory: AOs need 0.145 GiB; user supplied 13.970 GiB. Using in-core AOs.

  ==> MemDFJK: Density-Fitted J/K Matrices <==

    J tasked:                   Yes
    K tasked:                   Yes
    wK tasked:                   No
    OpenMP threads:               5
    Memory [MiB]:             14305
    Algorithm:                 Core
    Schwarz Cutoff:           1E-12
    Mask sparsity (%):       5.6458
    Fitting Condition:        1E-10

   => Auxiliary Basis Set <=

  Basis Set: (ANONYMOUSFADC696E AUX)
    Blend: CC-PVDZ-JKFIT
    Number of shells: 270
    Number of basis functions: 879
    Number of Cartesian functions: 879
    Spherical Harmonics?: false
    Max angular momentum: 3

  Minimum eigenvalue in the overlap matrix is 4.7660293697E-04.
  Reciprocal condition number of the overlap matrix is 6.1844634977E-05.
    Using symmetric orthogonalization.

  ==> Pre-Iterations <==

  SCF Guess: Superposition of Atomic Densities via on-the-fly atomic UHF (no occupation information).

   -------------------------
    Irrep   Nso     Nmo    
   -------------------------
     A        147     147 
   -------------------------
    Total     147     147
   -------------------------

  ==> Iterations <==

                           Total Energy        Delta E     RMS |[F,P]|

   @DF-RHF iter SAD:  -417.13019180867497   -4.17130e+02   0.00000e+00 
   @DF-RHF iter   1:  -418.12440691274230   -9.94215e-01   4.13479e-03 ADIIS/DIIS
   @DF-RHF iter   2:  -418.25736224108135   -1.32955e-01   2.57776e-03 ADIIS/DIIS
   @DF-RHF iter   3:  -418.30844414263856   -5.10819e-02   4.93520e-04 ADIIS/DIIS
   @DF-RHF iter   4:  -418.31131223475739   -2.86809e-03   2.02462e-04 ADIIS/DIIS
   @DF-RHF iter   5:  -418.31179796031250   -4.85726e-04   4.10666e-05 DIIS
   @DF-RHF iter   6:  -418.31183912903066   -4.11687e-05   1.92533e-05 DIIS
   @DF-RHF iter   7:  -418.31185039870087   -1.12697e-05   7.85279e-06 DIIS
   @DF-RHF iter   8:  -418.31185268063558   -2.28193e-06   2.90071e-06 DIIS
   @DF-RHF iter   9:  -418.31185298979500   -3.09159e-07   1.00681e-06 DIIS
   @DF-RHF iter  10:  -418.31185302800606   -3.82111e-08   4.56960e-07 DIIS
   @DF-RHF iter  11:  -418.31185303704194   -9.03589e-09   1.99878e-07 DIIS
   @DF-RHF iter  12:  -418.31185303902015   -1.97821e-09   8.44802e-08 DIIS
   @DF-RHF iter  13:  -418.31185303941243   -3.92276e-10   3.59969e-08 DIIS
   @DF-RHF iter  14:  -418.31185303947683   -6.44036e-11   1.08241e-08 DIIS
   @DF-RHF iter  15:  -418.31185303947950   -2.67164e-12   3.31503e-09 DIIS
   @DF-RHF iter  16:  -418.31185303948013   -6.25278e-13   1.39295e-09 DIIS
   @DF-RHF iter  17:  -418.31185303947967    4.54747e-13   5.77473e-10 DIIS
   @DF-RHF iter  18:  -418.31185303947996   -2.84217e-13   2.24974e-10 DIIS
   @DF-RHF iter  19:  -418.31185303947990    5.68434e-14   1.19594e-10 DIIS
   @DF-RHF iter  20:  -418.31185303947973    1.70530e-13   4.33182e-11 DIIS
  Energy and wave function converged.


  ==> Post-Iterations <==

    Orbital Energies [Eh]
    ---------------------

    Doubly Occupied:                                                      

       1A    -20.618208     2A    -20.551309     3A    -11.395446  
       4A    -11.254946     5A    -11.253728     6A    -11.252467  
       7A    -11.251061     8A    -11.244553     9A    -11.243216  
      10A     -1.446753    11A     -1.351318    12A     -1.161003  
      13A     -1.039389    14A     -1.025019    15A     -0.896316  
      16A     -0.836299    17A     -0.803016    18A     -0.725853  
      19A     -0.691782    20A     -0.660637    21A     -0.630625  
      22A     -0.623969    23A     -0.618624    24A     -0.600549  
      25A     -0.562809    26A     -0.512504    27A     -0.509385  
      28A     -0.503496    29A     -0.474966    30A     -0.447096  
      31A     -0.345186    32A     -0.342662  

    Virtual:                                                              

      33A      0.092993    34A      0.135951    35A      0.209009  
      36A      0.235699    37A      0.240132    38A      0.286099  
      39A      0.304074    40A      0.325878    41A      0.341295  
      42A      0.376812    43A      0.430540    44A      0.457989  
      45A      0.469557    46A      0.474742    47A      0.477946  
      48A      0.547232    49A      0.561704    50A      0.694143  
      51A      0.729909    52A      0.733061    53A      0.758919  
      54A      0.767741    55A      0.776428    56A      0.792756  
      57A      0.810549    58A      0.818585    59A      0.825574  
      60A      0.835024    61A      0.844077    62A      0.869436  
      63A      0.897457    64A      0.935685    65A      0.939853  
      66A      0.971744    67A      1.010987    68A      1.062983  
      69A      1.076971    70A      1.089292    71A      1.101303  
      72A      1.108102    73A      1.117496    74A      1.149106  
      75A      1.174586    76A      1.205473    77A      1.209224  
      78A      1.218100    79A      1.236472    80A      1.285848  
      81A      1.321762    82A      1.341543    83A      1.343900  
      84A      1.404114    85A      1.436626    86A      1.498503  
      87A      1.525188    88A      1.554504    89A      1.574146  
      90A      1.650412    91A      1.663657    92A      1.689490  
      93A      1.693339    94A      1.722183    95A      1.750512  
      96A      1.774344    97A      1.778637    98A      1.791775  
      99A      1.973525   100A      1.989559   101A      2.031418  
     102A      2.048290   103A      2.074242   104A      2.112930  
     105A      2.143004   106A      2.163819   107A      2.201707  
     108A      2.212963   109A      2.233990   110A      2.281620  
     111A      2.338299   112A      2.373155   113A      2.390955  
     114A      2.447570   115A      2.462576   116A      2.464926  
     117A      2.473886   118A      2.574492   119A      2.615405  
     120A      2.623022   121A      2.630301   122A      2.634754  
     123A      2.788090   124A      2.848091   125A      2.916728  
     126A      2.948682   127A      2.953081   128A      3.009413  
     129A      3.038106   130A      3.069010   131A      3.107455  
     132A      3.110192   133A      3.158022   134A      3.249267  
     135A      3.339291   136A      3.437440   137A      3.543371  
     138A      3.793856   139A      4.288650   140A      4.494279  
     141A      4.521638   142A      4.530223   143A      4.635619  
     144A      4.729708   145A      4.796609   146A      4.908278  
     147A      5.127993  

    Final Occupation by Irrep:
              A 
    DOCC [    32 ]

  @DF-RHF Final Energy:  -418.31185303947973

   => Energetics <=

    Nuclear Repulsion Energy =            404.0334913762799829
    One-Electron Energy =               -1370.9423071409469230
    Two-Electron Energy =                 548.5969627251872680
    Total Energy =                       -418.3118530394797290

Computation Completed


Properties will be evaluated at   0.000000,   0.000000,   0.000000 [a0]

Properties computed using the SCF density matrix


 Multipole Moments:

 ------------------------------------------------------------------------------------
     Multipole            Electronic (a.u.)      Nuclear  (a.u.)        Total (a.u.)
 ------------------------------------------------------------------------------------

 L = 1.  Multiply by 2.5417464519 to convert [e a0] to [Debye]
 Dipole X            :         -3.7152965            3.8560120            0.1407155
 Dipole Y            :         -2.4396624            3.3690602            0.9293978
 Dipole Z            :          0.5521337           -0.3529531            0.1991806
 Magnitude           :                                                    0.9608611

 ------------------------------------------------------------------------------------

*** tstop() called on node165.bme.utexas.edu at Sat Nov 18 08:03:48 2023
Module time:
	user time   =      10.15 seconds =       0.17 minutes
	system time =       0.56 seconds =       0.01 minutes
	total time  =          2 seconds =       0.03 minutes
Total time:
	user time   =      10.15 seconds =       0.17 minutes
	system time =       0.56 seconds =       0.01 minutes
	total time  =          2 seconds =       0.03 minutes

*** tstart() called on node165.bme.utexas.edu
*** at Sat Nov 18 08:03:48 2023


  //>>>>>>>>>>>>>>>>>>>>>>>>>>>>>>>>>>>//
  //               DFMP2               //
  //<<<<<<<<<<<<<<<<<<<<<<<<<<<<<<<<<<<//

   => Loading Basis Set <=

    Name: (ANONYMOUSFADC696E AUX)
    Role: RIFIT
    Keyword: DF_BASIS_MP2
    atoms 1-3, 5, 7-8, 10 entry C          line   159 file /home/liuchw/anaconda3/envs/poltype2022/share/psi4/basis/cc-pvdz-ri.gbs 
    atoms 4, 6            entry O          line   235 file /home/liuchw/anaconda3/envs/poltype2022/share/psi4/basis/cc-pvdz-ri.gbs 
    atoms 9, 11-15        entry H          line    19 file /home/liuchw/anaconda3/envs/poltype2022/share/psi4/basis/cc-pvdz-ri.gbs 

	 --------------------------------------------------------
	                          DF-MP2                         
	      2nd-Order Density-Fitted Moller-Plesset Theory     
	              RMP2 Wavefunction,   5 Threads             
	                                                         
	        Rob Parrish, Justin Turney, Andy Simmonett,      
	           Ed Hohenstein, and C. David Sherrill          
	 --------------------------------------------------------

   => Auxiliary Basis Set <=

  Basis Set: (ANONYMOUSFADC696E AUX)
    Blend: CC-PVDZ-RI
    Number of shells: 198
    Number of basis functions: 588
    Number of Cartesian functions: 684
    Spherical Harmonics?: true
    Max angular momentum: 3

	 --------------------------------------------------------
	                 NBF =   147, NAUX =   588
	 --------------------------------------------------------
	   CLASS    FOCC     OCC    AOCC    AVIR     VIR    FVIR
	   PAIRS       0      32      32     115     115       0
	 --------------------------------------------------------

  DFHelper Memory: AOs need 0.145 GiB; user supplied 13.970 GiB. Using in-core AOs.


         ------------------------------------------------------------
                                     CPHF                           
                                  Rob Parrish                       
         ------------------------------------------------------------

  ==> Geometry <==

    Molecular point group: c1
    Full point group: C1

    Geometry (in Angstrom), charge = 0, multiplicity = 1:

       Center              X                  Y                   Z               Mass       
    ------------   -----------------  -----------------  -----------------  -----------------
         C            0.929868963466    -0.790351095745    -0.577910542781    12.000000000000
         C           -0.150531036534    -0.109251095745     0.017089457219    12.000000000000
         C           -1.416431036534    -0.866451095745     0.231289457219    12.000000000000
         O           -2.375331036534    -0.058651095745     0.748089457219    15.994914619570
         C           -0.015831036534     1.243648904255     0.396589457219    12.000000000000
         O           -1.546331036534    -2.050851095745    -0.032510542781    15.994914619570
         C            2.122268963466    -0.114151095745    -0.791310542781    12.000000000000
         C            2.224168963466     1.222748904255    -0.391410542781    12.000000000000
         H            0.806168963466    -1.832051095745    -0.854110542781     1.007825032230
         C            1.186568963466     1.922848904255     0.193789457219    12.000000000000
         H           -0.845831036534     1.775548904255     0.857389457219     1.007825032230
         H            1.293768963466     2.960548904255     0.489989457219     1.007825032230
         H           -3.275031036534    -0.421751095745     0.945289457219     1.007825032230
         H            2.974368963466    -0.621151095745    -1.267510542781     1.007825032230
         H            3.179868963466     1.743448904255    -0.551210542781     1.007825032230

  Nuclear repulsion =  404.033491376279983
  Reference energy  = -418.311853039479729

  ==> Basis Set <==

  Basis Set: ANONYMOUSFADC696E
    Blend: 6-31G*
    Number of shells: 66
    Number of basis functions: 147
    Number of Cartesian functions: 147
    Spherical Harmonics?: false
    Max angular momentum: 2

  ==> CGRSolver (by Rob Parrish) <==

   Number of roots    =         1
   Preconditioning    =    JACOBI
   Convergence cutoff =     1E-06
   Maximum iterations =       100

  ==> CPHFRHamiltonian (by Rob Parrish) <== 

  ==> MemDFJK: Density-Fitted J/K Matrices <==

    J tasked:                   Yes
    K tasked:                   Yes
    wK tasked:                   No
    OpenMP threads:               5
    Memory [MiB]:             14305
    Algorithm:                 Core
    Schwarz Cutoff:           1E-12
    Mask sparsity (%):       5.6458
    Fitting Condition:        1E-10

   => Auxiliary Basis Set <=

  Basis Set: (ANONYMOUSFADC696E AUX)
    Blend: CC-PVDZ-JKFIT
    Number of shells: 270
    Number of basis functions: 879
    Number of Cartesian functions: 879
    Spherical Harmonics?: false
    Max angular momentum: 3

  ==> CPHF Iterations <==

  => Iterations <=

             Iter  Converged  Remaining    Residual
  CGR           1          0          1   1.400E-01
  CGR           2          0          1   4.744E-02
  CGR           3          0          1   2.550E-02
  CGR           4          0          1   1.144E-02
  CGR           5          0          1   4.637E-03
  CGR           6          0          1   1.448E-03
  CGR           7          0          1   4.498E-04
  CGR           8          0          1   1.379E-04
  CGR           9          0          1   4.320E-05
  CGR          10          0          1   1.719E-05
  CGR          11          0          1   5.075E-06
  CGR          12          0          1   2.436E-06
  CGR          13          0          1   1.216E-06
  CGR          14          1          0   3.187E-07

    CGRSolver converged.

  ==> DFCorrGrad: Density-Fitted Correlated Gradients <==

    OpenMP threads:              5
    Integrals threads:           5
    Memory [GiB]:           13.970
    Schwarz Cutoff:          0E+00
    Fitting Condition:       1E-10

   => Auxiliary Basis Set <=

  Basis Set: (ANONYMOUSFADC696E AUX)
    Blend: CC-PVDZ-JKFIT
    Number of shells: 270
    Number of basis functions: 879
    Number of Cartesian functions: 879
    Spherical Harmonics?: false
    Max angular momentum: 3

	-----------------------------------------------------------
	 ==================> DF-MP2 Energies <==================== 
	-----------------------------------------------------------
	 Reference Energy          =    -418.3118530394797290 [Eh]
	 Singles Energy            =      -0.0000000000000000 [Eh]
	 Same-Spin Energy          =      -0.3464517798299088 [Eh]
	 Opposite-Spin Energy      =      -0.9285277105913247 [Eh]
	 Correlation Energy        =      -1.2749794904212335 [Eh]
	 Total Energy              =    -419.5868325299009598 [Eh]
	-----------------------------------------------------------
	 ================> DF-SCS-MP2 Energies <================== 
	-----------------------------------------------------------
	 SCS Same-Spin Scale       =       0.3333333333333333 [-]
	 SCS Opposite-Spin Scale   =       1.2000000000000000 [-]
	 SCS Same-Spin Energy      =      -0.1154839266099696 [Eh]
	 SCS Opposite-Spin Energy  =      -1.1142332527095895 [Eh]
	 SCS Correlation Energy    =      -1.2297171793195592 [Eh]
	 SCS Total Energy          =    -419.5415702187992792 [Eh]
	-----------------------------------------------------------


  -Total Gradient:
     Atom            X                  Y                   Z
    ------   -----------------  -----------------  -----------------
       1        0.008685476662    -0.002909744793    -0.003889943189
       2       -0.004670478543    -0.008517911552    -0.001226556201
       3        0.002198125284     0.007646028184     0.001184609330
       4        0.009579822052    -0.015904864413    -0.007126590613
       5        0.005155345538     0.001315518287    -0.001489915516
       6        0.005907834438    -0.003785430318    -0.002694574397
       7       -0.002057241744    -0.001273913321     0.000087118564
       8       -0.030653914625    -0.006236528034     0.009157035419
       9        0.000695939230     0.000628097194     0.000470989187
      10        0.012208718922     0.013218619987    -0.000356457130
      11        0.000576755919     0.004335099031     0.001345348343
      12       -0.000763259495    -0.000484077176     0.000004162617
      13       -0.019569564769     0.012733962821     0.009481420096
      14        0.006798496964    -0.004756447830    -0.004728516989
      15        0.005907944165     0.003991591933    -0.000218129521


*** tstop() called on node165.bme.utexas.edu at Sat Nov 18 08:03:54 2023
Module time:
	user time   =      25.31 seconds =       0.42 minutes
	system time =       1.35 seconds =       0.02 minutes
	total time  =          6 seconds =       0.10 minutes
Total time:
	user time   =      35.47 seconds =       0.59 minutes
	system time =       1.91 seconds =       0.03 minutes
	total time  =          8 seconds =       0.13 minutes

  Measures of convergence in internal coordinates in au.                                        ~
  Criteria marked as inactive (o), active & met (*), and active & unmet ( ).                    ~
  --------------------------------------------------------------------------------------------- ~
   Step     Total Energy     Delta E     MAX Force     RMS Force      MAX Disp      RMS Disp    ~
  --------------------------------------------------------------------------------------------- ~
    Convergence Criteria    1.00e-04      2.50e-03      1.70e-03      1.00e-02      6.70e-03    ~
  --------------------------------------------------------------------------------------------- ~
      0  -4.19586833e+02    --------      3.26e-02      1.40e-02      --------      --------    ~
Scratch directory: /scratch/liuchw/Psi4-13_34_Index_0-farH_in17/
gradient() will perform analytic gradient computation.
    SCF Algorithm Type (re)set to DF.

*** tstart() called on node165.bme.utexas.edu
*** at Sat Nov 18 08:03:54 2023

   => Loading Basis Set <=

    Name: ANONYMOUSFADC696E
    Role: ORBITAL
    Keyword: BASIS
    atoms 1-3, 5, 7-8, 10 entry C          line   111 file /home/liuchw/anaconda3/envs/poltype2022/share/psi4/basis/6-31gs.gbs 
    atoms 4, 6            entry O          line   145 file /home/liuchw/anaconda3/envs/poltype2022/share/psi4/basis/6-31gs.gbs 
    atoms 9, 11-15        entry H          line    44 file /home/liuchw/anaconda3/envs/poltype2022/share/psi4/basis/6-31gs.gbs 


         ---------------------------------------------------------
                                   SCF
               by Justin Turney, Rob Parrish, Andy Simmonett
                          and Daniel G. A. Smith
                              RHF Reference
                        5 Threads,  19073 MiB Core
         ---------------------------------------------------------

  ==> Geometry <==

    Molecular point group: c1
    Full point group: C1

    Geometry (in Angstrom), charge = 0, multiplicity = 1:

       Center              X                  Y                   Z               Mass       
    ------------   -----------------  -----------------  -----------------  -----------------
         C            0.890783012495    -0.733044029450    -0.547840879872    12.000000000000
         C           -0.179552174506    -0.053981507194     0.042401047488    12.000000000000
         C           -1.439480822264    -0.819360309948     0.248249034273    12.000000000000
         O           -2.447433415524    -0.084597320094     0.765562608304    15.994914619570
         C           -0.033417291778     1.282290030081     0.415243759318    12.000000000000
         O           -1.561266981544    -2.000801206455    -0.023429918857    15.994914619570
         C            2.102088528830    -0.084378330888    -0.769927935254    12.000000000000
         C            2.333164923644     1.247418354923    -0.421673140959    12.000000000000
         H            0.748923985316    -1.773992311552    -0.822621837136     1.007825032230
         C            1.217884543161     1.849663402843     0.160209354249    12.000000000000
         H           -0.843134220481     1.838867088118     0.875369575790     1.007825032230
         H            1.332091118177     2.888166047450     0.453760285152     1.007825032230
         H           -3.221686915516    -0.668166130129     0.864390932248     1.007825032230
         H            2.909743402602    -0.638527726543    -1.238475049859     1.007825032230
         H            3.283026759684     1.754577512738    -0.587675976648     1.007825032230

  Running in c1 symmetry.

  Rotational constants: A =      0.13240  B =      0.04030  C =      0.03091 [cm^-1]
  Rotational constants: A =   3969.37947  B =   1208.24051  C =    926.55900 [MHz]
  Nuclear repulsion =  404.574875040602365

  Charge       = 0
  Multiplicity = 1
  Electrons    = 64
  Nalpha       = 32
  Nbeta        = 32

  ==> Algorithm <==

  SCF Algorithm Type is DF.
  DIIS enabled.
  MOM disabled.
  Fractional occupation disabled.
  Guess Type is SAD.
  Energy threshold   = 1.00e-10
  Density threshold  = 1.00e-10
  Integral threshold = 1.00e-12

  ==> Primary Basis <==

  Basis Set: ANONYMOUSFADC696E
    Blend: 6-31G*
    Number of shells: 66
    Number of basis functions: 147
    Number of Cartesian functions: 147
    Spherical Harmonics?: false
    Max angular momentum: 2

   => Loading Basis Set <=

    Name: (ANONYMOUSFADC696E AUX)
    Role: JKFIT
    Keyword: DF_BASIS_SCF
    atoms 1-3, 5, 7-8, 10 entry C          line   121 file /home/liuchw/anaconda3/envs/poltype2022/share/psi4/basis/cc-pvdz-jkfit.gbs 
    atoms 4, 6            entry O          line   221 file /home/liuchw/anaconda3/envs/poltype2022/share/psi4/basis/cc-pvdz-jkfit.gbs 
    atoms 9, 11-15        entry H          line    51 file /home/liuchw/anaconda3/envs/poltype2022/share/psi4/basis/cc-pvdz-jkfit.gbs 

  ==> Integral Setup <==

  DFHelper Memory: AOs need 0.145 GiB; user supplied 13.970 GiB. Using in-core AOs.

  ==> MemDFJK: Density-Fitted J/K Matrices <==

    J tasked:                   Yes
    K tasked:                   Yes
    wK tasked:                   No
    OpenMP threads:               5
    Memory [MiB]:             14305
    Algorithm:                 Core
    Schwarz Cutoff:           1E-12
    Mask sparsity (%):       5.7661
    Fitting Condition:        1E-10

   => Auxiliary Basis Set <=

  Basis Set: (ANONYMOUSFADC696E AUX)
    Blend: CC-PVDZ-JKFIT
    Number of shells: 270
    Number of basis functions: 879
    Number of Cartesian functions: 879
    Spherical Harmonics?: false
    Max angular momentum: 3

  Minimum eigenvalue in the overlap matrix is 5.2216663781E-04.
  Reciprocal condition number of the overlap matrix is 6.7495331196E-05.
    Using symmetric orthogonalization.

  ==> Pre-Iterations <==

  SCF Guess: Superposition of Atomic Densities via on-the-fly atomic UHF (no occupation information).

   -------------------------
    Irrep   Nso     Nmo    
   -------------------------
     A        147     147 
   -------------------------
    Total     147     147
   -------------------------

  ==> Iterations <==

                           Total Energy        Delta E     RMS |[F,P]|

   @DF-RHF iter SAD:  -417.22797699494993   -4.17228e+02   0.00000e+00 
   @DF-RHF iter   1:  -418.12593820731814   -8.97961e-01   4.14299e-03 ADIIS/DIIS
   @DF-RHF iter   2:  -418.25883958126650   -1.32901e-01   2.57012e-03 ADIIS/DIIS
   @DF-RHF iter   3:  -418.30955734129589   -5.07178e-02   4.83816e-04 ADIIS/DIIS
   @DF-RHF iter   4:  -418.31231757551836   -2.76023e-03   2.00595e-04 ADIIS/DIIS
   @DF-RHF iter   5:  -418.31278114807770   -4.63573e-04   3.91055e-05 DIIS
   @DF-RHF iter   6:  -418.31281740526310   -3.62572e-05   1.85194e-05 DIIS
   @DF-RHF iter   7:  -418.31282661466065   -9.20940e-06   7.21696e-06 DIIS
   @DF-RHF iter   8:  -418.31282831289576   -1.69824e-06   2.56147e-06 DIIS
   @DF-RHF iter   9:  -418.31282850985906   -1.96963e-07   8.20090e-07 DIIS
   @DF-RHF iter  10:  -418.31282852668079   -1.68217e-08   3.01327e-07 DIIS
   @DF-RHF iter  11:  -418.31282852904297   -2.36219e-09   1.02572e-07 DIIS
   @DF-RHF iter  12:  -418.31282852935038   -3.07409e-10   3.15323e-08 DIIS
   @DF-RHF iter  13:  -418.31282852940387   -5.34897e-11   1.47477e-08 DIIS
   @DF-RHF iter  14:  -418.31282852942104   -1.71667e-11   6.73991e-09 DIIS
   @DF-RHF iter  15:  -418.31282852942360   -2.55795e-12   2.67919e-09 DIIS
   @DF-RHF iter  16:  -418.31282852942400   -3.97904e-13   9.69883e-10 DIIS
   @DF-RHF iter  17:  -418.31282852942405   -5.68434e-14   4.19573e-10 DIIS
   @DF-RHF iter  18:  -418.31282852942377    2.84217e-13   1.12198e-10 DIIS
   @DF-RHF iter  19:  -418.31282852942377    0.00000e+00   4.86101e-11 DIIS
  Energy and wave function converged.


  ==> Post-Iterations <==

    Orbital Energies [Eh]
    ---------------------

    Doubly Occupied:                                                      

       1A    -20.622325     2A    -20.553185     3A    -11.393851  
       4A    -11.256253     5A    -11.256100     6A    -11.254565  
       7A    -11.247989     8A    -11.245226     9A    -11.244978  
      10A     -1.461755    11A     -1.354383    12A     -1.165324  
      13A     -1.048265    14A     -1.020239    15A     -0.899101  
      16A     -0.837275    17A     -0.798967    18A     -0.727308  
      19A     -0.699264    20A     -0.676151    21A     -0.630324  
      22A     -0.628997    23A     -0.623062    24A     -0.588723  
      25A     -0.584799    26A     -0.530217    27A     -0.513138  
      28A     -0.490314    29A     -0.476918    30A     -0.449873  
      31A     -0.351758    32A     -0.339713  

    Virtual:                                                              

      33A      0.087699    34A      0.137661    35A      0.219392  
      36A      0.238172    37A      0.239504    38A      0.288612  
      39A      0.301287    40A      0.329204    41A      0.337583  
      42A      0.374769    43A      0.436888    44A      0.450507  
      45A      0.458670    46A      0.473248    47A      0.482355  
      48A      0.535499    49A      0.574990    50A      0.687902  
      51A      0.706501    52A      0.726168    53A      0.753819  
      54A      0.767018    55A      0.789080    56A      0.798172  
      57A      0.817537    58A      0.829906    59A      0.832762  
      60A      0.839901    61A      0.843042    62A      0.862999  
      63A      0.897695    64A      0.940912    65A      0.946382  
      66A      0.977066    67A      1.002278    68A      1.058295  
      69A      1.080976    70A      1.090527    71A      1.096517  
      72A      1.104601    73A      1.109234    74A      1.151242  
      75A      1.179446    76A      1.192678    77A      1.208108  
      78A      1.226652    79A      1.241774    80A      1.293762  
      81A      1.320507    82A      1.334400    83A      1.341942  
      84A      1.399387    85A      1.427476    86A      1.497252  
      87A      1.514686    88A      1.545881    89A      1.562063  
      90A      1.597255    91A      1.665615    92A      1.688504  
      93A      1.705943    94A      1.726121    95A      1.748640  
      96A      1.756332    97A      1.767624    98A      1.807719  
      99A      1.952229   100A      1.976904   101A      2.012083  
     102A      2.052207   103A      2.073559   104A      2.114317  
     105A      2.147207   106A      2.170573   107A      2.202262  
     108A      2.218590   109A      2.266279   110A      2.289350  
     111A      2.340119   112A      2.367588   113A      2.408067  
     114A      2.421452   115A      2.456211   116A      2.466578  
     117A      2.477947   118A      2.578647   119A      2.591256  
     120A      2.629942   121A      2.662211   122A      2.724409  
     123A      2.811369   124A      2.831901   125A      2.902521  
     126A      2.913534   127A      2.941003   128A      2.978872  
     129A      3.033032   130A      3.078498   131A      3.082713  
     132A      3.137609   133A      3.161621   134A      3.282676  
     135A      3.340679   136A      3.454284   137A      3.539624  
     138A      3.787958   139A      4.275839   140A      4.497135  
     141A      4.519280   142A      4.528800   143A      4.640090  
     144A      4.739863   145A      4.794738   146A      4.885888  
     147A      5.133002  

    Final Occupation by Irrep:
              A 
    DOCC [    32 ]

  @DF-RHF Final Energy:  -418.31282852942377

   => Energetics <=

    Nuclear Repulsion Energy =            404.5748750406023646
    One-Electron Energy =               -1371.8347259905976898
    Two-Electron Energy =                 548.9470224205715567
    Total Energy =                       -418.3128285294237685

Computation Completed


Properties will be evaluated at   0.000000,   0.000000,   0.000000 [a0]

Properties computed using the SCF density matrix


 Multipole Moments:

 ------------------------------------------------------------------------------------
     Multipole            Electronic (a.u.)      Nuclear  (a.u.)        Total (a.u.)
 ------------------------------------------------------------------------------------

 L = 1.  Multiply by 2.5417464519 to convert [e a0] to [Debye]
 Dipole X            :         -2.5133539            2.8122626            0.2989087
 Dipole Y            :         -4.5739889            5.3845515            0.8105626
 Dipole Z            :         -0.3366000            0.4568921            0.1202921
 Magnitude           :                                                    0.8722547

 ------------------------------------------------------------------------------------

*** tstop() called on node165.bme.utexas.edu at Sat Nov 18 08:03:56 2023
Module time:
	user time   =       9.23 seconds =       0.15 minutes
	system time =       0.44 seconds =       0.01 minutes
	total time  =          2 seconds =       0.03 minutes
Total time:
	user time   =      45.49 seconds =       0.76 minutes
	system time =       2.39 seconds =       0.04 minutes
	total time  =         10 seconds =       0.17 minutes

*** tstart() called on node165.bme.utexas.edu
*** at Sat Nov 18 08:03:56 2023


  //>>>>>>>>>>>>>>>>>>>>>>>>>>>>>>>>>>>//
  //               DFMP2               //
  //<<<<<<<<<<<<<<<<<<<<<<<<<<<<<<<<<<<//

   => Loading Basis Set <=

    Name: (ANONYMOUSFADC696E AUX)
    Role: RIFIT
    Keyword: DF_BASIS_MP2
    atoms 1-3, 5, 7-8, 10 entry C          line   159 file /home/liuchw/anaconda3/envs/poltype2022/share/psi4/basis/cc-pvdz-ri.gbs 
    atoms 4, 6            entry O          line   235 file /home/liuchw/anaconda3/envs/poltype2022/share/psi4/basis/cc-pvdz-ri.gbs 
    atoms 9, 11-15        entry H          line    19 file /home/liuchw/anaconda3/envs/poltype2022/share/psi4/basis/cc-pvdz-ri.gbs 

	 --------------------------------------------------------
	                          DF-MP2                         
	      2nd-Order Density-Fitted Moller-Plesset Theory     
	              RMP2 Wavefunction,   5 Threads             
	                                                         
	        Rob Parrish, Justin Turney, Andy Simmonett,      
	           Ed Hohenstein, and C. David Sherrill          
	 --------------------------------------------------------

   => Auxiliary Basis Set <=

  Basis Set: (ANONYMOUSFADC696E AUX)
    Blend: CC-PVDZ-RI
    Number of shells: 198
    Number of basis functions: 588
    Number of Cartesian functions: 684
    Spherical Harmonics?: true
    Max angular momentum: 3

	 --------------------------------------------------------
	                 NBF =   147, NAUX =   588
	 --------------------------------------------------------
	   CLASS    FOCC     OCC    AOCC    AVIR     VIR    FVIR
	   PAIRS       0      32      32     115     115       0
	 --------------------------------------------------------

  DFHelper Memory: AOs need 0.145 GiB; user supplied 13.970 GiB. Using in-core AOs.


         ------------------------------------------------------------
                                     CPHF                           
                                  Rob Parrish                       
         ------------------------------------------------------------

  ==> Geometry <==

    Molecular point group: c1
    Full point group: C1

    Geometry (in Angstrom), charge = 0, multiplicity = 1:

       Center              X                  Y                   Z               Mass       
    ------------   -----------------  -----------------  -----------------  -----------------
         C            0.890783012495    -0.733044029450    -0.547840879872    12.000000000000
         C           -0.179552174506    -0.053981507194     0.042401047488    12.000000000000
         C           -1.439480822264    -0.819360309948     0.248249034273    12.000000000000
         O           -2.447433415524    -0.084597320094     0.765562608304    15.994914619570
         C           -0.033417291778     1.282290030081     0.415243759318    12.000000000000
         O           -1.561266981544    -2.000801206455    -0.023429918857    15.994914619570
         C            2.102088528830    -0.084378330888    -0.769927935254    12.000000000000
         C            2.333164923644     1.247418354923    -0.421673140959    12.000000000000
         H            0.748923985316    -1.773992311552    -0.822621837136     1.007825032230
         C            1.217884543161     1.849663402843     0.160209354249    12.000000000000
         H           -0.843134220481     1.838867088118     0.875369575790     1.007825032230
         H            1.332091118177     2.888166047450     0.453760285152     1.007825032230
         H           -3.221686915516    -0.668166130129     0.864390932248     1.007825032230
         H            2.909743402602    -0.638527726543    -1.238475049859     1.007825032230
         H            3.283026759684     1.754577512738    -0.587675976648     1.007825032230

  Nuclear repulsion =  404.574875040602365
  Reference energy  = -418.312828529423768

  ==> Basis Set <==

  Basis Set: ANONYMOUSFADC696E
    Blend: 6-31G*
    Number of shells: 66
    Number of basis functions: 147
    Number of Cartesian functions: 147
    Spherical Harmonics?: false
    Max angular momentum: 2

  ==> CGRSolver (by Rob Parrish) <==

   Number of roots    =         1
   Preconditioning    =    JACOBI
   Convergence cutoff =     1E-06
   Maximum iterations =       100

  ==> CPHFRHamiltonian (by Rob Parrish) <== 

  ==> MemDFJK: Density-Fitted J/K Matrices <==

    J tasked:                   Yes
    K tasked:                   Yes
    wK tasked:                   No
    OpenMP threads:               5
    Memory [MiB]:             14305
    Algorithm:                 Core
    Schwarz Cutoff:           1E-12
    Mask sparsity (%):       5.7661
    Fitting Condition:        1E-10

   => Auxiliary Basis Set <=

  Basis Set: (ANONYMOUSFADC696E AUX)
    Blend: CC-PVDZ-JKFIT
    Number of shells: 270
    Number of basis functions: 879
    Number of Cartesian functions: 879
    Spherical Harmonics?: false
    Max angular momentum: 3

  ==> CPHF Iterations <==

  => Iterations <=

             Iter  Converged  Remaining    Residual
  CGR           1          0          1   1.331E-01
  CGR           2          0          1   4.026E-02
  CGR           3          0          1   1.738E-02
  CGR           4          0          1   8.428E-03
  CGR           5          0          1   3.674E-03
  CGR           6          0          1   1.403E-03
  CGR           7          0          1   4.612E-04
  CGR           8          0          1   1.388E-04
  CGR           9          0          1   4.242E-05
  CGR          10          0          1   1.704E-05
  CGR          11          0          1   4.898E-06
  CGR          12          0          1   2.029E-06
  CGR          13          1          0   9.528E-07

    CGRSolver converged.

  ==> DFCorrGrad: Density-Fitted Correlated Gradients <==

    OpenMP threads:              5
    Integrals threads:           5
    Memory [GiB]:           13.970
    Schwarz Cutoff:          0E+00
    Fitting Condition:       1E-10

   => Auxiliary Basis Set <=

  Basis Set: (ANONYMOUSFADC696E AUX)
    Blend: CC-PVDZ-JKFIT
    Number of shells: 270
    Number of basis functions: 879
    Number of Cartesian functions: 879
    Spherical Harmonics?: false
    Max angular momentum: 3

	-----------------------------------------------------------
	 ==================> DF-MP2 Energies <==================== 
	-----------------------------------------------------------
	 Reference Energy          =    -418.3128285294237685 [Eh]
	 Singles Energy            =      -0.0000000000000000 [Eh]
	 Same-Spin Energy          =      -0.3465531871623946 [Eh]
	 Opposite-Spin Energy      =      -0.9280321697779146 [Eh]
	 Correlation Energy        =      -1.2745853569403092 [Eh]
	 Total Energy              =    -419.5874138863640610 [Eh]
	-----------------------------------------------------------
	 ================> DF-SCS-MP2 Energies <================== 
	-----------------------------------------------------------
	 SCS Same-Spin Scale       =       0.3333333333333333 [-]
	 SCS Opposite-Spin Scale   =       1.2000000000000000 [-]
	 SCS Same-Spin Energy      =      -0.1155177290541315 [Eh]
	 SCS Opposite-Spin Energy  =      -1.1136386037334975 [Eh]
	 SCS Correlation Energy    =      -1.2291563327876291 [Eh]
	 SCS Total Energy          =    -419.5419848622113932 [Eh]
	-----------------------------------------------------------


  -Total Gradient:
     Atom            X                  Y                   Z
    ------   -----------------  -----------------  -----------------
       1        0.000499859078    -0.002122490466    -0.000880179795
       2        0.008024114618     0.002749428611    -0.001994308807
       3       -0.006123223200     0.003534196088     0.002978605792
       4       -0.001416210495    -0.012872345567    -0.003069615364
       5       -0.016002877339     0.011410203029     0.009381168999
       6        0.003099048581     0.005779464947     0.000653896706
       7       -0.017723662914     0.009119761903     0.009126593829
       8        0.030516006964     0.019358370698    -0.004311627665
       9       -0.001397794546    -0.000426476563     0.000627712274
      10       -0.002635597019    -0.040703744198    -0.012289432870
      11       -0.001860827690    -0.000916846782     0.000406713488
      12        0.000302292345    -0.004617459419    -0.001600815193
      13        0.000401957920     0.005177198818     0.001172335244
      14       -0.000389524032     0.003798919149     0.000959301599
      15        0.004706437725     0.000731819751    -0.001160348235


*** tstop() called on node165.bme.utexas.edu at Sat Nov 18 08:04:01 2023
Module time:
	user time   =      24.57 seconds =       0.41 minutes
	system time =       1.39 seconds =       0.02 minutes
	total time  =          5 seconds =       0.08 minutes
Total time:
	user time   =      70.06 seconds =       1.17 minutes
	system time =       3.78 seconds =       0.06 minutes
	total time  =         15 seconds =       0.25 minutes

      1  -4.19587414e+02   -5.81e-04      4.26e-02      1.74e-02      2.65e-01      1.02e-01    ~
Scratch directory: /scratch/liuchw/Psi4-13_34_Index_0-farH_in17/
gradient() will perform analytic gradient computation.
    SCF Algorithm Type (re)set to DF.

*** tstart() called on node165.bme.utexas.edu
*** at Sat Nov 18 08:04:02 2023

   => Loading Basis Set <=

    Name: ANONYMOUSFADC696E
    Role: ORBITAL
    Keyword: BASIS
    atoms 1-3, 5, 7-8, 10 entry C          line   111 file /home/liuchw/anaconda3/envs/poltype2022/share/psi4/basis/6-31gs.gbs 
    atoms 4, 6            entry O          line   145 file /home/liuchw/anaconda3/envs/poltype2022/share/psi4/basis/6-31gs.gbs 
    atoms 9, 11-15        entry H          line    44 file /home/liuchw/anaconda3/envs/poltype2022/share/psi4/basis/6-31gs.gbs 


         ---------------------------------------------------------
                                   SCF
               by Justin Turney, Rob Parrish, Andy Simmonett
                          and Daniel G. A. Smith
                              RHF Reference
                        5 Threads,  19073 MiB Core
         ---------------------------------------------------------

  ==> Geometry <==

    Molecular point group: c1
    Full point group: C1

    Geometry (in Angstrom), charge = 0, multiplicity = 1:

       Center              X                  Y                   Z               Mass       
    ------------   -----------------  -----------------  -----------------  -----------------
         C            0.893794005059    -0.755300067000    -0.556184184689    12.000000000000
         C           -0.164449681792    -0.063210635937     0.034096923014    12.000000000000
         C           -1.428825496853    -0.814177605022     0.245157584042    12.000000000000
         O           -2.406379557787    -0.042244914702     0.766182006516    15.994914619570
         C           -0.008174172842     1.271450559746     0.403380173311    12.000000000000
         O           -1.596033472516    -1.993888356491    -0.013768652309    15.994914619570
         C            2.108208437744    -0.113453158634    -0.779886285363    12.000000000000
         C            2.264245318592     1.224139855618    -0.406061604729    12.000000000000
         H            0.745424168352    -1.795701833529    -0.830065296582     1.007825032230
         C            1.205987185381     1.922015305528     0.187062489957    12.000000000000
         H           -0.838183567777     1.796294262920     0.859999999737     1.007825032230
         H            1.324202128104     2.964156788073     0.479640520693     1.007825032230
         H           -3.145491823115    -0.666366656204     0.843733593746     1.007825032230
         H            2.926506395816    -0.649701983012    -1.243148506612     1.007825032230
         H            3.210904586117     1.720122002590    -0.576596902529     1.007825032230

  Running in c1 symmetry.

  Rotational constants: A =      0.12913  B =      0.04102  C =      0.03114 [cm^-1]
  Rotational constants: A =   3871.35265  B =   1229.76062  C =    933.54370 [MHz]
  Nuclear repulsion =  405.165235144831456

  Charge       = 0
  Multiplicity = 1
  Electrons    = 64
  Nalpha       = 32
  Nbeta        = 32

  ==> Algorithm <==

  SCF Algorithm Type is DF.
  DIIS enabled.
  MOM disabled.
  Fractional occupation disabled.
  Guess Type is SAD.
  Energy threshold   = 1.00e-10
  Density threshold  = 1.00e-10
  Integral threshold = 1.00e-12

  ==> Primary Basis <==

  Basis Set: ANONYMOUSFADC696E
    Blend: 6-31G*
    Number of shells: 66
    Number of basis functions: 147
    Number of Cartesian functions: 147
    Spherical Harmonics?: false
    Max angular momentum: 2

   => Loading Basis Set <=

    Name: (ANONYMOUSFADC696E AUX)
    Role: JKFIT
    Keyword: DF_BASIS_SCF
    atoms 1-3, 5, 7-8, 10 entry C          line   121 file /home/liuchw/anaconda3/envs/poltype2022/share/psi4/basis/cc-pvdz-jkfit.gbs 
    atoms 4, 6            entry O          line   221 file /home/liuchw/anaconda3/envs/poltype2022/share/psi4/basis/cc-pvdz-jkfit.gbs 
    atoms 9, 11-15        entry H          line    51 file /home/liuchw/anaconda3/envs/poltype2022/share/psi4/basis/cc-pvdz-jkfit.gbs 

  ==> Integral Setup <==

  DFHelper Memory: AOs need 0.145 GiB; user supplied 13.970 GiB. Using in-core AOs.

  ==> MemDFJK: Density-Fitted J/K Matrices <==

    J tasked:                   Yes
    K tasked:                   Yes
    wK tasked:                   No
    OpenMP threads:               5
    Memory [MiB]:             14305
    Algorithm:                 Core
    Schwarz Cutoff:           1E-12
    Mask sparsity (%):       5.6736
    Fitting Condition:        1E-10

   => Auxiliary Basis Set <=

  Basis Set: (ANONYMOUSFADC696E AUX)
    Blend: CC-PVDZ-JKFIT
    Number of shells: 270
    Number of basis functions: 879
    Number of Cartesian functions: 879
    Spherical Harmonics?: false
    Max angular momentum: 3

  Minimum eigenvalue in the overlap matrix is 4.6382006073E-04.
  Reciprocal condition number of the overlap matrix is 5.9993977257E-05.
    Using symmetric orthogonalization.

  ==> Pre-Iterations <==

  SCF Guess: Superposition of Atomic Densities via on-the-fly atomic UHF (no occupation information).

   -------------------------
    Irrep   Nso     Nmo    
   -------------------------
     A        147     147 
   -------------------------
    Total     147     147
   -------------------------

  ==> Iterations <==

                           Total Energy        Delta E     RMS |[F,P]|

   @DF-RHF iter SAD:  -417.24959002334117   -4.17250e+02   0.00000e+00 
   @DF-RHF iter   1:  -418.13433900866983   -8.84749e-01   4.13527e-03 ADIIS/DIIS
   @DF-RHF iter   2:  -418.26721613500399   -1.32877e-01   2.55005e-03 ADIIS/DIIS
   @DF-RHF iter   3:  -418.31713105265680   -4.99149e-02   4.80222e-04 ADIIS/DIIS
   @DF-RHF iter   4:  -418.31986484324830   -2.73379e-03   1.99356e-04 ADIIS/DIIS
   @DF-RHF iter   5:  -418.32032599434700   -4.61151e-04   3.99424e-05 DIIS
   @DF-RHF iter   6:  -418.32036482846058   -3.88341e-05   1.89427e-05 DIIS
   @DF-RHF iter   7:  -418.32037523160017   -1.04031e-05   7.45781e-06 DIIS
   @DF-RHF iter   8:  -418.32037724184465   -2.01024e-06   2.73154e-06 DIIS
   @DF-RHF iter   9:  -418.32037750151846   -2.59674e-07   9.20251e-07 DIIS
   @DF-RHF iter  10:  -418.32037753131198   -2.97935e-08   4.21461e-07 DIIS
   @DF-RHF iter  11:  -418.32037753829746   -6.98549e-09   1.74718e-07 DIIS
   @DF-RHF iter  12:  -418.32037753977795   -1.48049e-09   7.57588e-08 DIIS
   @DF-RHF iter  13:  -418.32037754009946   -3.21506e-10   3.42585e-08 DIIS
   @DF-RHF iter  14:  -418.32037754016261   -6.31530e-11   1.03918e-08 DIIS
   @DF-RHF iter  15:  -418.32037754016511   -2.50111e-12   3.22237e-09 DIIS
   @DF-RHF iter  16:  -418.32037754016500    1.13687e-13   1.31655e-09 DIIS
   @DF-RHF iter  17:  -418.32037754016494    5.68434e-14   5.23454e-10 DIIS
   @DF-RHF iter  18:  -418.32037754016523   -2.84217e-13   1.81537e-10 DIIS
   @DF-RHF iter  19:  -418.32037754016545   -2.27374e-13   9.60139e-11 DIIS
  Energy and wave function converged.


  ==> Post-Iterations <==

    Orbital Energies [Eh]
    ---------------------

    Doubly Occupied:                                                      

       1A    -20.622259     2A    -20.555144     3A    -11.394391  
       4A    -11.255625     5A    -11.255010     6A    -11.253048  
       7A    -11.251080     8A    -11.247719     9A    -11.245115  
      10A     -1.466291    11A     -1.355347    12A     -1.165617  
      13A     -1.045711    14A     -1.026001    15A     -0.895061  
      16A     -0.840020    17A     -0.797213    18A     -0.726765  
      19A     -0.702154    20A     -0.672457    21A     -0.636350  
      22A     -0.631340    23A     -0.620754    24A     -0.599929  
      25A     -0.582886    26A     -0.521611    27A     -0.513138  
      28A     -0.503884    29A     -0.478262    30A     -0.452094  
      31A     -0.349772    32A     -0.344133  

    Virtual:                                                              

      33A      0.089851    34A      0.134003    35A      0.224911  
      36A      0.237305    37A      0.242061    38A      0.286862  
      39A      0.304347    40A      0.324824    41A      0.338861  
      42A      0.376593    43A      0.429771    44A      0.455243  
      45A      0.463846    46A      0.475206    47A      0.477644  
      48A      0.540170    49A      0.568873    50A      0.690139  
      51A      0.725541    52A      0.729868    53A      0.758947  
      54A      0.765912    55A      0.779552    56A      0.802282  
      57A      0.805582    58A      0.816588    59A      0.826785  
      60A      0.833571    61A      0.844931    62A      0.866593  
      63A      0.895486    64A      0.939163    65A      0.943469  
      66A      0.977720    67A      1.009157    68A      1.055126  
      69A      1.080480    70A      1.093593    71A      1.095024  
      72A      1.104555    73A      1.115939    74A      1.153665  
      75A      1.181512    76A      1.199494    77A      1.209395  
      78A      1.224798    79A      1.237533    80A      1.285156  
      81A      1.321149    82A      1.334468    83A      1.343971  
      84A      1.401026    85A      1.433398    86A      1.495411  
      87A      1.524739    88A      1.551178    89A      1.574596  
      90A      1.593212    91A      1.664411    92A      1.692014  
      93A      1.700571    94A      1.707557    95A      1.752404  
      96A      1.760200    97A      1.775323    98A      1.778471  
      99A      1.964686   100A      1.974062   101A      2.052444  
     102A      2.056538   103A      2.069946   104A      2.130125  
     105A      2.150687   106A      2.172843   107A      2.199365  
     108A      2.209648   109A      2.235826   110A      2.297795  
     111A      2.330287   112A      2.373520   113A      2.388104  
     114A      2.450834   115A      2.458825   116A      2.462499  
     117A      2.468245   118A      2.585953   119A      2.607777  
     120A      2.618509   121A      2.623658   122A      2.741845  
     123A      2.803983   124A      2.821858   125A      2.923278  
     126A      2.943985   127A      2.946319   128A      3.011721  
     129A      3.036053   130A      3.071849   131A      3.097310  
     132A      3.103973   133A      3.160653   134A      3.236469  
     135A      3.338940   136A      3.463461   137A      3.541785  
     138A      3.808893   139A      4.273870   140A      4.498281  
     141A      4.521090   142A      4.527527   143A      4.641506  
     144A      4.729951   145A      4.796471   146A      4.897602  
     147A      5.135337  

    Final Occupation by Irrep:
              A 
    DOCC [    32 ]

  @DF-RHF Final Energy:  -418.32037754016545

   => Energetics <=

    Nuclear Repulsion Energy =            405.1652351448314562
    One-Electron Energy =               -1372.9588684981315510
    Two-Electron Energy =                 549.4732558131345286
    Total Energy =                       -418.3203775401655093

Computation Completed


Properties will be evaluated at   0.000000,   0.000000,   0.000000 [a0]

Properties computed using the SCF density matrix


 Multipole Moments:

 ------------------------------------------------------------------------------------
     Multipole            Electronic (a.u.)      Nuclear  (a.u.)        Total (a.u.)
 ------------------------------------------------------------------------------------

 L = 1.  Multiply by 2.5417464519 to convert [e a0] to [Debye]
 Dipole X            :         -2.3163631            2.6999863            0.3836232
 Dipole Y            :         -5.0734829            5.8742551            0.8007722
 Dipole Z            :         -0.5094966            0.6014258            0.0919292
 Magnitude           :                                                    0.8926667

 ------------------------------------------------------------------------------------

*** tstop() called on node165.bme.utexas.edu at Sat Nov 18 08:04:04 2023
Module time:
	user time   =       8.53 seconds =       0.14 minutes
	system time =       0.35 seconds =       0.01 minutes
	total time  =          2 seconds =       0.03 minutes
Total time:
	user time   =      79.73 seconds =       1.33 minutes
	system time =       4.16 seconds =       0.07 minutes
	total time  =         18 seconds =       0.30 minutes

*** tstart() called on node165.bme.utexas.edu
*** at Sat Nov 18 08:04:04 2023


  //>>>>>>>>>>>>>>>>>>>>>>>>>>>>>>>>>>>//
  //               DFMP2               //
  //<<<<<<<<<<<<<<<<<<<<<<<<<<<<<<<<<<<//

   => Loading Basis Set <=

    Name: (ANONYMOUSFADC696E AUX)
    Role: RIFIT
    Keyword: DF_BASIS_MP2
    atoms 1-3, 5, 7-8, 10 entry C          line   159 file /home/liuchw/anaconda3/envs/poltype2022/share/psi4/basis/cc-pvdz-ri.gbs 
    atoms 4, 6            entry O          line   235 file /home/liuchw/anaconda3/envs/poltype2022/share/psi4/basis/cc-pvdz-ri.gbs 
    atoms 9, 11-15        entry H          line    19 file /home/liuchw/anaconda3/envs/poltype2022/share/psi4/basis/cc-pvdz-ri.gbs 

	 --------------------------------------------------------
	                          DF-MP2                         
	      2nd-Order Density-Fitted Moller-Plesset Theory     
	              RMP2 Wavefunction,   5 Threads             
	                                                         
	        Rob Parrish, Justin Turney, Andy Simmonett,      
	           Ed Hohenstein, and C. David Sherrill          
	 --------------------------------------------------------

   => Auxiliary Basis Set <=

  Basis Set: (ANONYMOUSFADC696E AUX)
    Blend: CC-PVDZ-RI
    Number of shells: 198
    Number of basis functions: 588
    Number of Cartesian functions: 684
    Spherical Harmonics?: true
    Max angular momentum: 3

	 --------------------------------------------------------
	                 NBF =   147, NAUX =   588
	 --------------------------------------------------------
	   CLASS    FOCC     OCC    AOCC    AVIR     VIR    FVIR
	   PAIRS       0      32      32     115     115       0
	 --------------------------------------------------------

  DFHelper Memory: AOs need 0.145 GiB; user supplied 13.970 GiB. Using in-core AOs.


         ------------------------------------------------------------
                                     CPHF                           
                                  Rob Parrish                       
         ------------------------------------------------------------

  ==> Geometry <==

    Molecular point group: c1
    Full point group: C1

    Geometry (in Angstrom), charge = 0, multiplicity = 1:

       Center              X                  Y                   Z               Mass       
    ------------   -----------------  -----------------  -----------------  -----------------
         C            0.893794005059    -0.755300067000    -0.556184184689    12.000000000000
         C           -0.164449681792    -0.063210635937     0.034096923014    12.000000000000
         C           -1.428825496853    -0.814177605022     0.245157584042    12.000000000000
         O           -2.406379557787    -0.042244914702     0.766182006516    15.994914619570
         C           -0.008174172842     1.271450559746     0.403380173311    12.000000000000
         O           -1.596033472516    -1.993888356491    -0.013768652309    15.994914619570
         C            2.108208437744    -0.113453158634    -0.779886285363    12.000000000000
         C            2.264245318592     1.224139855618    -0.406061604729    12.000000000000
         H            0.745424168352    -1.795701833529    -0.830065296582     1.007825032230
         C            1.205987185381     1.922015305528     0.187062489957    12.000000000000
         H           -0.838183567777     1.796294262920     0.859999999737     1.007825032230
         H            1.324202128104     2.964156788073     0.479640520693     1.007825032230
         H           -3.145491823115    -0.666366656204     0.843733593746     1.007825032230
         H            2.926506395816    -0.649701983012    -1.243148506612     1.007825032230
         H            3.210904586117     1.720122002590    -0.576596902529     1.007825032230

  Nuclear repulsion =  405.165235144831456
  Reference energy  = -418.320377540165453

  ==> Basis Set <==

  Basis Set: ANONYMOUSFADC696E
    Blend: 6-31G*
    Number of shells: 66
    Number of basis functions: 147
    Number of Cartesian functions: 147
    Spherical Harmonics?: false
    Max angular momentum: 2

  ==> CGRSolver (by Rob Parrish) <==

   Number of roots    =         1
   Preconditioning    =    JACOBI
   Convergence cutoff =     1E-06
   Maximum iterations =       100

  ==> CPHFRHamiltonian (by Rob Parrish) <== 

  ==> MemDFJK: Density-Fitted J/K Matrices <==

    J tasked:                   Yes
    K tasked:                   Yes
    wK tasked:                   No
    OpenMP threads:               5
    Memory [MiB]:             14305
    Algorithm:                 Core
    Schwarz Cutoff:           1E-12
    Mask sparsity (%):       5.6736
    Fitting Condition:        1E-10

   => Auxiliary Basis Set <=

  Basis Set: (ANONYMOUSFADC696E AUX)
    Blend: CC-PVDZ-JKFIT
    Number of shells: 270
    Number of basis functions: 879
    Number of Cartesian functions: 879
    Spherical Harmonics?: false
    Max angular momentum: 3

  ==> CPHF Iterations <==

  => Iterations <=

             Iter  Converged  Remaining    Residual
  CGR           1          0          1   1.388E-01
  CGR           2          0          1   4.559E-02
  CGR           3          0          1   2.382E-02
  CGR           4          0          1   1.087E-02
  CGR           5          0          1   4.510E-03
  CGR           6          0          1   1.475E-03
  CGR           7          0          1   4.601E-04
  CGR           8          0          1   1.378E-04
  CGR           9          0          1   4.279E-05
  CGR          10          0          1   1.582E-05
  CGR          11          0          1   4.146E-06
  CGR          12          0          1   1.561E-06
  CGR          13          1          0   7.921E-07

    CGRSolver converged.

  ==> DFCorrGrad: Density-Fitted Correlated Gradients <==

    OpenMP threads:              5
    Integrals threads:           5
    Memory [GiB]:           13.970
    Schwarz Cutoff:          0E+00
    Fitting Condition:       1E-10

   => Auxiliary Basis Set <=

  Basis Set: (ANONYMOUSFADC696E AUX)
    Blend: CC-PVDZ-JKFIT
    Number of shells: 270
    Number of basis functions: 879
    Number of Cartesian functions: 879
    Spherical Harmonics?: false
    Max angular momentum: 3

	-----------------------------------------------------------
	 ==================> DF-MP2 Energies <==================== 
	-----------------------------------------------------------
	 Reference Energy          =    -418.3203775401654525 [Eh]
	 Singles Energy            =      -0.0000000000000000 [Eh]
	 Same-Spin Energy          =      -0.3463417729887797 [Eh]
	 Opposite-Spin Energy      =      -0.9271632906857574 [Eh]
	 Correlation Energy        =      -1.2735050636745371 [Eh]
	 Total Energy              =    -419.5938826038399725 [Eh]
	-----------------------------------------------------------
	 ================> DF-SCS-MP2 Energies <================== 
	-----------------------------------------------------------
	 SCS Same-Spin Scale       =       0.3333333333333333 [-]
	 SCS Opposite-Spin Scale   =       1.2000000000000000 [-]
	 SCS Same-Spin Energy      =      -0.1154472576629265 [Eh]
	 SCS Opposite-Spin Energy  =      -1.1125959488229089 [Eh]
	 SCS Correlation Energy    =      -1.2280432064858355 [Eh]
	 SCS Total Energy          =    -419.5484207466512885 [Eh]
	-----------------------------------------------------------


  -Total Gradient:
     Atom            X                  Y                   Z
    ------   -----------------  -----------------  -----------------
       1       -0.002566058557     0.002676363860     0.001608765034
       2       -0.001240355204     0.005271524543     0.001863331264
       3       -0.011181283049    -0.004689724894     0.002285559643
       4       -0.000187686171    -0.003702524217    -0.001031210722
       5        0.001836024959    -0.005405877769    -0.002212712352
       6        0.000885361445     0.002673915280     0.000607569803
       7        0.004279831680    -0.003550994645    -0.002570933646
       8        0.002635434570    -0.000455968946    -0.001016777640
       9       -0.000368686185     0.000094374685     0.000312299921
      10       -0.001106954266     0.005126387581     0.001967692291
      11        0.001198676402    -0.001468062798    -0.000900054066
      12       -0.000171307135     0.001775273317     0.000626681622
      13        0.011325458961     0.002469742775    -0.003058568992
      14       -0.002364305564     0.001241558435     0.000990251243
      15       -0.002974151887    -0.002055987208     0.000528106599


*** tstop() called on node165.bme.utexas.edu at Sat Nov 18 08:04:08 2023
Module time:
	user time   =      21.88 seconds =       0.36 minutes
	system time =       1.12 seconds =       0.02 minutes
	total time  =          4 seconds =       0.07 minutes
Total time:
	user time   =     101.61 seconds =       1.69 minutes
	system time =       5.28 seconds =       0.09 minutes
	total time  =         22 seconds =       0.37 minutes

      2  -4.19593883e+02   -6.47e-03      1.23e-02      5.85e-03      8.07e-02      5.27e-02    ~
Scratch directory: /scratch/liuchw/Psi4-13_34_Index_0-farH_in17/
gradient() will perform analytic gradient computation.
    SCF Algorithm Type (re)set to DF.

*** tstart() called on node165.bme.utexas.edu
*** at Sat Nov 18 08:04:08 2023

   => Loading Basis Set <=

    Name: ANONYMOUSFADC696E
    Role: ORBITAL
    Keyword: BASIS
    atoms 1-3, 5, 7-8, 10 entry C          line   111 file /home/liuchw/anaconda3/envs/poltype2022/share/psi4/basis/6-31gs.gbs 
    atoms 4, 6            entry O          line   145 file /home/liuchw/anaconda3/envs/poltype2022/share/psi4/basis/6-31gs.gbs 
    atoms 9, 11-15        entry H          line    44 file /home/liuchw/anaconda3/envs/poltype2022/share/psi4/basis/6-31gs.gbs 


         ---------------------------------------------------------
                                   SCF
               by Justin Turney, Rob Parrish, Andy Simmonett
                          and Daniel G. A. Smith
                              RHF Reference
                        5 Threads,  19073 MiB Core
         ---------------------------------------------------------

  ==> Geometry <==

    Molecular point group: c1
    Full point group: C1

    Geometry (in Angstrom), charge = 0, multiplicity = 1:

       Center              X                  Y                   Z               Mass       
    ------------   -----------------  -----------------  -----------------  -----------------
         C            0.913499772496    -0.767773389701    -0.565943769671    12.000000000000
         C           -0.154992578363    -0.081443886627     0.025713342347    12.000000000000
         C           -1.427870031654    -0.814141951043     0.243525652417    12.000000000000
         O           -2.411898428393    -0.040428225973     0.774422387249    15.994914619570
         C           -0.011990966247     1.260210342257     0.401552316004    12.000000000000
         O           -1.602689190072    -1.993657040865    -0.019218649750    15.994914619570
         C            2.120632181976    -0.111009653603    -0.781332540815    12.000000000000
         C            2.261292345932     1.226242715098    -0.405306529326    12.000000000000
         H            0.778608153173    -1.808425708547    -0.845730408416     1.007825032230
         C            1.200032218697     1.911239853240     0.184694289963    12.000000000000
         H           -0.843860043891     1.787204964555     0.859307731311     1.007825032230
         H            1.314164641033     2.951681516016     0.476622606908     1.007825032230
         H           -3.202366416783    -0.613337518972     0.881353417664     1.007825032230
         H            2.952050879568    -0.639830146360    -1.243107043939     1.007825032230
         H            3.207121915262     1.737601694618    -0.573010943849     1.007825032230

  Running in c1 symmetry.

  Rotational constants: A =      0.12850  B =      0.04092  C =      0.03104 [cm^-1]
  Rotational constants: A =   3852.21859  B =   1226.60191  C =    930.55291 [MHz]
  Nuclear repulsion =  404.334309789180224

  Charge       = 0
  Multiplicity = 1
  Electrons    = 64
  Nalpha       = 32
  Nbeta        = 32

  ==> Algorithm <==

  SCF Algorithm Type is DF.
  DIIS enabled.
  MOM disabled.
  Fractional occupation disabled.
  Guess Type is SAD.
  Energy threshold   = 1.00e-10
  Density threshold  = 1.00e-10
  Integral threshold = 1.00e-12

  ==> Primary Basis <==

  Basis Set: ANONYMOUSFADC696E
    Blend: 6-31G*
    Number of shells: 66
    Number of basis functions: 147
    Number of Cartesian functions: 147
    Spherical Harmonics?: false
    Max angular momentum: 2

   => Loading Basis Set <=

    Name: (ANONYMOUSFADC696E AUX)
    Role: JKFIT
    Keyword: DF_BASIS_SCF
    atoms 1-3, 5, 7-8, 10 entry C          line   121 file /home/liuchw/anaconda3/envs/poltype2022/share/psi4/basis/cc-pvdz-jkfit.gbs 
    atoms 4, 6            entry O          line   221 file /home/liuchw/anaconda3/envs/poltype2022/share/psi4/basis/cc-pvdz-jkfit.gbs 
    atoms 9, 11-15        entry H          line    51 file /home/liuchw/anaconda3/envs/poltype2022/share/psi4/basis/cc-pvdz-jkfit.gbs 

  ==> Integral Setup <==

  DFHelper Memory: AOs need 0.145 GiB; user supplied 13.970 GiB. Using in-core AOs.

  ==> MemDFJK: Density-Fitted J/K Matrices <==

    J tasked:                   Yes
    K tasked:                   Yes
    wK tasked:                   No
    OpenMP threads:               5
    Memory [MiB]:             14305
    Algorithm:                 Core
    Schwarz Cutoff:           1E-12
    Mask sparsity (%):       5.7013
    Fitting Condition:        1E-10

   => Auxiliary Basis Set <=

  Basis Set: (ANONYMOUSFADC696E AUX)
    Blend: CC-PVDZ-JKFIT
    Number of shells: 270
    Number of basis functions: 879
    Number of Cartesian functions: 879
    Spherical Harmonics?: false
    Max angular momentum: 3

  Minimum eigenvalue in the overlap matrix is 4.6989421952E-04.
  Reciprocal condition number of the overlap matrix is 6.0851115848E-05.
    Using symmetric orthogonalization.

  ==> Pre-Iterations <==

  SCF Guess: Superposition of Atomic Densities via on-the-fly atomic UHF (no occupation information).

   -------------------------
    Irrep   Nso     Nmo    
   -------------------------
     A        147     147 
   -------------------------
    Total     147     147
   -------------------------

  ==> Iterations <==

                           Total Energy        Delta E     RMS |[F,P]|

   @DF-RHF iter SAD:  -417.18668169007469   -4.17187e+02   0.00000e+00 
   @DF-RHF iter   1:  -418.13271041848060   -9.46029e-01   4.14532e-03 ADIIS/DIIS
   @DF-RHF iter   2:  -418.26550008916934   -1.32790e-01   2.58209e-03 ADIIS/DIIS
   @DF-RHF iter   3:  -418.31667828148181   -5.11782e-02   4.85281e-04 ADIIS/DIIS
   @DF-RHF iter   4:  -418.31947964139130   -2.80136e-03   2.00965e-04 ADIIS/DIIS
   @DF-RHF iter   5:  -418.31995181518300   -4.72174e-04   4.04546e-05 DIIS
   @DF-RHF iter   6:  -418.31999147778868   -3.96626e-05   1.91896e-05 DIIS
   @DF-RHF iter   7:  -418.32000209122242   -1.06134e-05   7.57472e-06 DIIS
   @DF-RHF iter   8:  -418.32000412663990   -2.03542e-06   2.76251e-06 DIIS
   @DF-RHF iter   9:  -418.32000438028984   -2.53650e-07   9.21219e-07 DIIS
   @DF-RHF iter  10:  -418.32000440814551   -2.78557e-08   4.07141e-07 DIIS
   @DF-RHF iter  11:  -418.32000441431717   -6.17166e-09   1.65591e-07 DIIS
   @DF-RHF iter  12:  -418.32000441560410   -1.28694e-09   7.17734e-08 DIIS
   @DF-RHF iter  13:  -418.32000441590310   -2.98996e-10   3.35972e-08 DIIS
   @DF-RHF iter  14:  -418.32000441596722   -6.41194e-11   1.05272e-08 DIIS
   @DF-RHF iter  15:  -418.32000441596961   -2.38742e-12   3.30066e-09 DIIS
   @DF-RHF iter  16:  -418.32000441596989   -2.84217e-13   1.34203e-09 DIIS
   @DF-RHF iter  17:  -418.32000441597040   -5.11591e-13   5.35616e-10 DIIS
   @DF-RHF iter  18:  -418.32000441597012    2.84217e-13   1.82343e-10 DIIS
   @DF-RHF iter  19:  -418.32000441596989    2.27374e-13   9.63752e-11 DIIS
  Energy and wave function converged.


  ==> Post-Iterations <==

    Orbital Energies [Eh]
    ---------------------

    Doubly Occupied:                                                      

       1A    -20.619939     2A    -20.552820     3A    -11.394006  
       4A    -11.256074     5A    -11.255492     6A    -11.254955  
       7A    -11.253027     8A    -11.246388     9A    -11.246076  
      10A     -1.455836    11A     -1.350263    12A     -1.165145  
      13A     -1.044833    14A     -1.026508    15A     -0.894553  
      16A     -0.839107    17A     -0.797335    18A     -0.725581  
      19A     -0.697225    20A     -0.669843    21A     -0.634912  
      22A     -0.626175    23A     -0.620370    24A     -0.600100  
      25A     -0.578455    26A     -0.521251    27A     -0.512721  
      28A     -0.503725    29A     -0.475792    30A     -0.449300  
      31A     -0.349083    32A     -0.344777  

    Virtual:                                                              

      33A      0.088991    34A      0.134100    35A      0.220449  
      36A      0.237857    37A      0.238876    38A      0.286201  
      39A      0.302997    40A      0.324920    41A      0.338346  
      42A      0.375620    43A      0.430975    44A      0.451261  
      45A      0.463436    46A      0.475373    47A      0.477845  
      48A      0.539317    49A      0.569662    50A      0.688589  
      51A      0.726536    52A      0.728999    53A      0.757974  
      54A      0.766401    55A      0.779052    56A      0.801798  
      57A      0.806874    58A      0.816300    59A      0.826588  
      60A      0.832939    61A      0.842945    62A      0.867047  
      63A      0.895603    64A      0.939522    65A      0.941055  
      66A      0.977214    67A      1.007847    68A      1.057819  
      69A      1.078736    70A      1.093820    71A      1.097974  
      72A      1.102831    73A      1.114312    74A      1.147662  
      75A      1.179210    76A      1.198840    77A      1.211258  
      78A      1.221622    79A      1.237845    80A      1.285024  
      81A      1.321910    82A      1.334873    83A      1.342589  
      84A      1.400564    85A      1.432074    86A      1.495280  
      87A      1.524085    88A      1.551863    89A      1.570327  
      90A      1.607311    91A      1.665766    92A      1.692452  
      93A      1.699122    94A      1.710599    95A      1.751930  
      96A      1.760235    97A      1.774119    98A      1.777367  
      99A      1.964205   100A      1.979620   101A      2.044207  
     102A      2.055301   103A      2.074533   104A      2.124340  
     105A      2.149574   106A      2.170119   107A      2.198221  
     108A      2.212703   109A      2.239770   110A      2.294507  
     111A      2.326453   112A      2.371441   113A      2.383404  
     114A      2.451402   115A      2.456834   116A      2.461464  
     117A      2.468781   118A      2.585219   119A      2.606702  
     120A      2.621342   121A      2.623800   122A      2.705043  
     123A      2.802242   124A      2.820867   125A      2.918385  
     126A      2.940761   127A      2.943221   128A      3.011141  
     129A      3.032762   130A      3.071073   131A      3.095169  
     132A      3.099345   133A      3.158381   134A      3.241368  
     135A      3.337975   136A      3.446260   137A      3.541540  
     138A      3.802309   139A      4.276276   140A      4.495548  
     141A      4.517810   142A      4.527246   143A      4.634516  
     144A      4.729509   145A      4.793028   146A      4.889964  
     147A      5.132568  

    Final Occupation by Irrep:
              A 
    DOCC [    32 ]

  @DF-RHF Final Energy:  -418.32000441596989

   => Energetics <=

    Nuclear Repulsion Energy =            404.3343097891802245
    One-Electron Energy =               -1371.3853009152680897
    Two-Electron Energy =                 548.7309867101180316
    Total Energy =                       -418.3200044159698336

Computation Completed


[...]

  Charge       = 0
  Multiplicity = 1
  Electrons    = 64
  Nalpha       = 32
  Nbeta        = 32

  ==> Algorithm <==

  SCF Algorithm Type is DF.
  DIIS enabled.
  MOM disabled.
  Fractional occupation disabled.
  Guess Type is SAD.
  Energy threshold   = 1.00e-10
  Density threshold  = 1.00e-10
  Integral threshold = 1.00e-12

  ==> Primary Basis <==

  Basis Set: ANONYMOUSFADC696E
    Blend: 6-31G*
    Number of shells: 66
    Number of basis functions: 147
    Number of Cartesian functions: 147
    Spherical Harmonics?: false
    Max angular momentum: 2

   => Loading Basis Set <=

    Name: (ANONYMOUSFADC696E AUX)
    Role: JKFIT
    Keyword: DF_BASIS_SCF
    atoms 1-3, 5, 7-8, 10 entry C          line   121 file /home/liuchw/anaconda3/envs/poltype2022/share/psi4/basis/cc-pvdz-jkfit.gbs 
    atoms 4, 6            entry O          line   221 file /home/liuchw/anaconda3/envs/poltype2022/share/psi4/basis/cc-pvdz-jkfit.gbs 
    atoms 9, 11-15        entry H          line    51 file /home/liuchw/anaconda3/envs/poltype2022/share/psi4/basis/cc-pvdz-jkfit.gbs 

  ==> Integral Setup <==

  DFHelper Memory: AOs need 0.145 GiB; user supplied 13.970 GiB. Using in-core AOs.

  ==> MemDFJK: Density-Fitted J/K Matrices <==

    J tasked:                   Yes
    K tasked:                   Yes
    wK tasked:                   No
    OpenMP threads:               5
    Memory [MiB]:             14305
    Algorithm:                 Core
    Schwarz Cutoff:           1E-12
    Mask sparsity (%):       5.7013
    Fitting Condition:        1E-10

   => Auxiliary Basis Set <=

  Basis Set: (ANONYMOUSFADC696E AUX)
    Blend: CC-PVDZ-JKFIT
    Number of shells: 270
    Number of basis functions: 879
    Number of Cartesian functions: 879
    Spherical Harmonics?: false
    Max angular momentum: 3

  Minimum eigenvalue in the overlap matrix is 4.7024462273E-04.
  Reciprocal condition number of the overlap matrix is 6.0856874095E-05.
    Using symmetric orthogonalization.

  ==> Pre-Iterations <==

  SCF Guess: Superposition of Atomic Densities via on-the-fly atomic UHF (no occupation information).

   -------------------------
    Irrep   Nso     Nmo    
   -------------------------
     A        147     147 
   -------------------------
    Total     147     147
   -------------------------

  ==> Iterations <==

                           Total Energy        Delta E     RMS |[F,P]|

   @DF-RHF iter SAD:  -417.20447405054705   -4.17204e+02   0.00000e+00 
   @DF-RHF iter   1:  -418.13328934099252   -9.28815e-01   4.14053e-03 ADIIS/DIIS
   @DF-RHF iter   2:  -418.26604186953239   -1.32753e-01   2.57037e-03 ADIIS/DIIS
   @DF-RHF iter   3:  -418.31677019454560   -5.07283e-02   4.83527e-04 ADIIS/DIIS
   @DF-RHF iter   4:  -418.31954789648148   -2.77770e-03   2.00595e-04 ADIIS/DIIS
   @DF-RHF iter   5:  -418.32001707351242   -4.69177e-04   4.03685e-05 DIIS
   @DF-RHF iter   6:  -418.32005640813111   -3.93346e-05   1.91643e-05 DIIS
   @DF-RHF iter   7:  -418.32006688860781   -1.04805e-05   7.51655e-06 DIIS
   @DF-RHF iter   8:  -418.32006888516037   -1.99655e-06   2.73761e-06 DIIS
   @DF-RHF iter   9:  -418.32006913153629   -2.46376e-07   9.10575e-07 DIIS
   @DF-RHF iter  10:  -418.32006915802839   -2.64921e-08   3.99522e-07 DIIS
   @DF-RHF iter  11:  -418.32006916381408   -5.78569e-09   1.59938e-07 DIIS
   @DF-RHF iter  12:  -418.32006916499387   -1.17979e-09   6.91400e-08 DIIS
   @DF-RHF iter  13:  -418.32006916527251   -2.78646e-10   3.29044e-08 DIIS
   @DF-RHF iter  14:  -418.32006916533436   -6.18456e-11   1.04638e-08 DIIS
   @DF-RHF iter  15:  -418.32006916533760   -3.24007e-12   3.30866e-09 DIIS
   @DF-RHF iter  16:  -418.32006916533777   -1.70530e-13   1.33668e-09 DIIS
   @DF-RHF iter  17:  -418.32006916533823   -4.54747e-13   5.34931e-10 DIIS
   @DF-RHF iter  18:  -418.32006916533760    6.25278e-13   1.79074e-10 DIIS
   @DF-RHF iter  19:  -418.32006916533720    3.97904e-13   9.39119e-11 DIIS
  Energy and wave function converged.


  ==> Post-Iterations <==

    Orbital Energies [Eh]
    ---------------------

    Doubly Occupied:                                                      

       1A    -20.620391     2A    -20.554457     3A    -11.394290  
       4A    -11.255811     5A    -11.255678     6A    -11.254469  
       7A    -11.252296     8A    -11.246735     9A    -11.245834  
      10A     -1.457768    11A     -1.351925    12A     -1.165576  
      13A     -1.045685    14A     -1.026294    15A     -0.894774  
      16A     -0.839636    17A     -0.796042    18A     -0.725442  
      19A     -0.698710    20A     -0.670763    21A     -0.635246  
      22A     -0.626949    23A     -0.620554    24A     -0.599893  
      25A     -0.580626    26A     -0.522288    27A     -0.512929  
      28A     -0.503495    29A     -0.477034    30A     -0.450566  
      31A     -0.349623    32A     -0.344547  

    Virtual:                                                              

      33A      0.088605    34A      0.134102    35A      0.222264  
      36A      0.237735    37A      0.239764    38A      0.286568  
      39A      0.303008    40A      0.325077    41A      0.338331  
      42A      0.375833    43A      0.430897    44A      0.452669  
      45A      0.462192    46A      0.474914    47A      0.477830  
      48A      0.539139    49A      0.570318    50A      0.687952  
      51A      0.726176    52A      0.727860    53A      0.757884  
      54A      0.766219    55A      0.779532    56A      0.803443  
      57A      0.806954    58A      0.816236    59A      0.826803  
      60A      0.832889    61A      0.843797    62A      0.866590  
      63A      0.895543    64A      0.940069    65A      0.941259  
      66A      0.977676    67A      1.007377    68A      1.056417  
      69A      1.079282    70A      1.094273    71A      1.096077  
      72A      1.103202    73A      1.113525    74A      1.149603  
      75A      1.179853    76A      1.198917    77A      1.210639  
      78A      1.222305    79A      1.238605    80A      1.285402  
      81A      1.322959    82A      1.334281    83A      1.343219  
      84A      1.400472    85A      1.432086    86A      1.495299  
      87A      1.525667    88A      1.552196    89A      1.570303  
      90A      1.603282    91A      1.664645    92A      1.693501  
      93A      1.699511    94A      1.711064    95A      1.752424  
      96A      1.757466    97A      1.773861    98A      1.778201  
      99A      1.966081   100A      1.979298   101A      2.046960  
     102A      2.053559   103A      2.072393   104A      2.125685  
     105A      2.150287   106A      2.168940   107A      2.199138  
     108A      2.209859   109A      2.239196   110A      2.296709  
     111A      2.327385   112A      2.369356   113A      2.384488  
     114A      2.450915   115A      2.457475   116A      2.461234  
     117A      2.469143   118A      2.585496   119A      2.606549  
     120A      2.622470   121A      2.623582   122A      2.719404  
     123A      2.801205   124A      2.820454   125A      2.919465  
     126A      2.942156   127A      2.943078   128A      3.011787  
     129A      3.033197   130A      3.069930   131A      3.095613  
     132A      3.097441   133A      3.157898   134A      3.241953  
     135A      3.338538   136A      3.452679   137A      3.540589  
     138A      3.805067   139A      4.274645   140A      4.497198  
     141A      4.518946   142A      4.527053   143A      4.634926  
     144A      4.729725   145A      4.793746   146A      4.894971  
     147A      5.134624  

    Final Occupation by Irrep:
              A 
    DOCC [    32 ]

  @DF-RHF Final Energy:  -418.32006916533720

   => Energetics <=

    Nuclear Repulsion Energy =            404.6663116562210689
    One-Electron Energy =               -1372.0201124205575525
    Two-Electron Energy =                 549.0337315989993385
    Total Energy =                       -418.3200691653371450

Computation Completed


Properties will be evaluated at   0.000000,   0.000000,   0.000000 [a0]

Properties computed using the SCF density matrix


 Multipole Moments:

 ------------------------------------------------------------------------------------
     Multipole            Electronic (a.u.)      Nuclear  (a.u.)        Total (a.u.)
 ------------------------------------------------------------------------------------

 L = 1.  Multiply by 2.5417464519 to convert [e a0] to [Debye]
 Dipole X            :         -2.3716380            2.7559968            0.3843588
 Dipole Y            :         -4.8294412            5.6405919            0.8111507
 Dipole Z            :         -0.2366969            0.3447823            0.1080854
 Magnitude           :                                                    0.9040905

 ------------------------------------------------------------------------------------

*** tstop() called on node165.bme.utexas.edu at Sat Nov 18 08:04:42 2023
Module time:
	user time   =       8.20 seconds =       0.14 minutes
	system time =       0.32 seconds =       0.01 minutes
	total time  =          2 seconds =       0.03 minutes
Total time:
	user time   =     255.09 seconds =       4.25 minutes
	system time =      12.96 seconds =       0.22 minutes
	total time  =         56 seconds =       0.93 minutes

*** tstart() called on node165.bme.utexas.edu
*** at Sat Nov 18 08:04:42 2023


  //>>>>>>>>>>>>>>>>>>>>>>>>>>>>>>>>>>>//
  //               DFMP2               //
  //<<<<<<<<<<<<<<<<<<<<<<<<<<<<<<<<<<<//

   => Loading Basis Set <=

    Name: (ANONYMOUSFADC696E AUX)
    Role: RIFIT
    Keyword: DF_BASIS_MP2
    atoms 1-3, 5, 7-8, 10 entry C          line   159 file /home/liuchw/anaconda3/envs/poltype2022/share/psi4/basis/cc-pvdz-ri.gbs 
    atoms 4, 6            entry O          line   235 file /home/liuchw/anaconda3/envs/poltype2022/share/psi4/basis/cc-pvdz-ri.gbs 
    atoms 9, 11-15        entry H          line    19 file /home/liuchw/anaconda3/envs/poltype2022/share/psi4/basis/cc-pvdz-ri.gbs 

	 --------------------------------------------------------
	                          DF-MP2                         
	      2nd-Order Density-Fitted Moller-Plesset Theory     
	              RMP2 Wavefunction,   5 Threads             
	                                                         
	        Rob Parrish, Justin Turney, Andy Simmonett,      
	           Ed Hohenstein, and C. David Sherrill          
	 --------------------------------------------------------

   => Auxiliary Basis Set <=

  Basis Set: (ANONYMOUSFADC696E AUX)
    Blend: CC-PVDZ-RI
    Number of shells: 198
    Number of basis functions: 588
    Number of Cartesian functions: 684
    Spherical Harmonics?: true
    Max angular momentum: 3

	 --------------------------------------------------------
	                 NBF =   147, NAUX =   588
	 --------------------------------------------------------
	   CLASS    FOCC     OCC    AOCC    AVIR     VIR    FVIR
	   PAIRS       0      32      32     115     115       0
	 --------------------------------------------------------

  DFHelper Memory: AOs need 0.145 GiB; user supplied 13.970 GiB. Using in-core AOs.


         ------------------------------------------------------------
                                     CPHF                           
                                  Rob Parrish                       
         ------------------------------------------------------------

  ==> Geometry <==

    Molecular point group: c1
    Full point group: C1

    Geometry (in Angstrom), charge = 0, multiplicity = 1:

       Center              X                  Y                   Z               Mass       
    ------------   -----------------  -----------------  -----------------  -----------------
         C            0.904696506670    -0.764289532862    -0.559500733024    12.000000000000
         C           -0.159333050970    -0.073349886707     0.028651249270    12.000000000000
         C           -1.426221755088    -0.815005229243     0.238240417331    12.000000000000
         O           -2.402403558872    -0.042805048348     0.787338237891    15.994914619570
         C           -0.014594442956     1.267322375152     0.401411395906    12.000000000000
         O           -1.605865221775    -1.989620039489    -0.041221698505    15.994914619570
         C            2.114369559342    -0.111252918681    -0.775416757268    12.000000000000
         C            2.265251536623     1.226513447508    -0.405788808236    12.000000000000
         H            0.765224025961    -1.804743006917    -0.837818428099     1.007825032230
         C            1.200743184090     1.911604690894     0.181621901696    12.000000000000
         H           -0.845945376267     1.794908344623     0.857213390042     1.007825032230
         H            1.318085363841     2.952864579483     0.469986706483     1.007825032230
         H           -3.176097903881    -0.636739948295     0.876993733358     1.007825032230
         H            2.942553728251    -0.645789163366    -1.233019535729     1.007825032230
         H            3.211271858934     1.734514900456    -0.575149213155     1.007825032230

  Nuclear repulsion =  404.666311656221069
  Reference energy  = -418.320069165337202

  ==> Basis Set <==

  Basis Set: ANONYMOUSFADC696E
    Blend: 6-31G*
    Number of shells: 66
    Number of basis functions: 147
    Number of Cartesian functions: 147
    Spherical Harmonics?: false
    Max angular momentum: 2

  ==> CGRSolver (by Rob Parrish) <==

   Number of roots    =         1
   Preconditioning    =    JACOBI
   Convergence cutoff =     1E-06
   Maximum iterations =       100

  ==> CPHFRHamiltonian (by Rob Parrish) <== 

  ==> MemDFJK: Density-Fitted J/K Matrices <==

    J tasked:                   Yes
    K tasked:                   Yes
    wK tasked:                   No
    OpenMP threads:               5
    Memory [MiB]:             14305
    Algorithm:                 Core
    Schwarz Cutoff:           1E-12
    Mask sparsity (%):       5.7013
    Fitting Condition:        1E-10

   => Auxiliary Basis Set <=

  Basis Set: (ANONYMOUSFADC696E AUX)
    Blend: CC-PVDZ-JKFIT
    Number of shells: 270
    Number of basis functions: 879
    Number of Cartesian functions: 879
    Spherical Harmonics?: false
    Max angular momentum: 3

  ==> CPHF Iterations <==

  => Iterations <=

             Iter  Converged  Remaining    Residual
  CGR           1          0          1   1.389E-01
  CGR           2          0          1   4.542E-02
  CGR           3          0          1   2.338E-02
  CGR           4          0          1   1.082E-02
  CGR           5          0          1   4.509E-03
  CGR           6          0          1   1.491E-03
  CGR           7          0          1   4.690E-04
  CGR           8          0          1   1.415E-04
  CGR           9          0          1   4.392E-05
  CGR          10          0          1   1.612E-05
  CGR          11          0          1   4.118E-06
  CGR          12          0          1   1.513E-06
  CGR          13          1          0   7.602E-07

    CGRSolver converged.

  ==> DFCorrGrad: Density-Fitted Correlated Gradients <==

    OpenMP threads:              5
    Integrals threads:           5
    Memory [GiB]:           13.970
    Schwarz Cutoff:          0E+00
    Fitting Condition:       1E-10

   => Auxiliary Basis Set <=

  Basis Set: (ANONYMOUSFADC696E AUX)
    Blend: CC-PVDZ-JKFIT
    Number of shells: 270
    Number of basis functions: 879
    Number of Cartesian functions: 879
    Spherical Harmonics?: false
    Max angular momentum: 3

	-----------------------------------------------------------
	 ==================> DF-MP2 Energies <==================== 
	-----------------------------------------------------------
	 Reference Energy          =    -418.3200691653372019 [Eh]
	 Singles Energy            =      -0.0000000000000000 [Eh]
	 Same-Spin Energy          =      -0.3465127511563915 [Eh]
	 Opposite-Spin Energy      =      -0.9279784163012211 [Eh]
	 Correlation Energy        =      -1.2744911674576127 [Eh]
	 Total Energy              =    -419.5945603327947993 [Eh]
	-----------------------------------------------------------
	 ================> DF-SCS-MP2 Energies <================== 
	-----------------------------------------------------------
	 SCS Same-Spin Scale       =       0.3333333333333333 [-]
	 SCS Opposite-Spin Scale   =       1.2000000000000000 [-]
	 SCS Same-Spin Energy      =      -0.1155042503854638 [Eh]
	 SCS Opposite-Spin Energy  =      -1.1135740995614654 [Eh]
	 SCS Correlation Energy    =      -1.2290783499469291 [Eh]
	 SCS Total Energy          =    -419.5491475152841190 [Eh]
	-----------------------------------------------------------


  -Total Gradient:
     Atom            X                  Y                   Z
    ------   -----------------  -----------------  -----------------
       1       -0.000205319291    -0.000382935373    -0.000127213658
       2        0.000175818079     0.000217153515    -0.000015606809
       3        0.000118644336    -0.000075055618    -0.000066051434
       4       -0.000083737384    -0.000025185989    -0.000069740907
       5        0.000045110289     0.000067776461     0.000095333860
       6        0.000040606827     0.000010921371     0.000070624522
       7       -0.000241455065     0.000160947211     0.000146550255
       8        0.000109137722     0.000052912785    -0.000028373076
       9       -0.000007089232    -0.000063833679    -0.000009677390
      10        0.000010525745     0.000017390717     0.000007029766
      11        0.000032297460     0.000015243669    -0.000012349346
      12        0.000011728862    -0.000001056987    -0.000000994378
      13        0.000029781016    -0.000020921035    -0.000005906787
      14       -0.000044407638     0.000000558370     0.000010053020
      15        0.000008358272     0.000026084583     0.000006322362


*** tstop() called on node165.bme.utexas.edu at Sat Nov 18 08:04:46 2023
Module time:
	user time   =      21.00 seconds =       0.35 minutes
	system time =       1.07 seconds =       0.02 minutes
	total time  =          4 seconds =       0.07 minutes
Total time:
	user time   =     276.10 seconds =       4.60 minutes
	system time =      14.03 seconds =       0.23 minutes
	total time  =         60 seconds =       1.00 minutes

      8  -4.19594560e+02   -2.32e-05 *    4.53e-04 *    1.78e-04 *    9.28e-03 *    3.98e-03 *  ~

  Optimization converged!                                                                       ~

  Final Energy : -419.5945603327948 

  Final Geometry : 
    Molecular point group: c1
    Full point group: C1

    Geometry (in Angstrom), charge = 0, multiplicity = 1:

    C            0.904696506670    -0.764289532862    -0.559500733024
    C           -0.159333050970    -0.073349886707     0.028651249270
    C           -1.426221755088    -0.815005229243     0.238240417331
    O           -2.402403558872    -0.042805048348     0.787338237891
    C           -0.014594442956     1.267322375152     0.401411395906
    O           -1.605865221775    -1.989620039489    -0.041221698505
    C            2.114369559342    -0.111252918681    -0.775416757268
    C            2.265251536623     1.226513447508    -0.405788808236
    H            0.765224025961    -1.804743006917    -0.837818428099
    C            1.200743184090     1.911604690894     0.181621901696
    H           -0.845945376267     1.794908344623     0.857213390042
    H            1.318085363841     2.952864579483     0.469986706483
    H           -3.176097903881    -0.636739948295     0.876993733358
    H            2.942553728251    -0.645789163366    -1.233019535729
    H            3.211271858934     1.734514900456    -0.575149213155


    Psi4 stopped on: Saturday, 18 November 2023 08:04AM
    Psi4 wall time for execution: 0:01:00.74

*** Psi4 exiting successfully. Buy a developer a beer!
