
    -----------------------------------------------------------------------
          Psi4: An Open-Source Ab Initio Electronic Structure Package
                               Psi4 1.9.1 release

                         Git: Rev {} zzzzzzz 


    D. G. A. Smith, L. A. Burns, A. C. Simmonett, R. M. Parrish,
    M. C. Schieber, R. Galvelis, P. Kraus, H. Kruse, R. Di Remigio,
    A. Alenaizan, A. M. James, S. Lehtola, J. P. Misiewicz, M. Scheurer,
    R. A. Shaw, J. B. Schriber, Y. Xie, Z. L. Glick, D. A. Sirianni,
    J. S. O'Brien, J. M. Waldrop, A. Kumar, E. G. Hohenstein,
    B. P. Pritchard, B. R. Brooks, H. F. Schaefer III, A. Yu. Sokolov,
    K. Patkowski, A. E. DePrince III, U. Bozkaya, R. A. King,
    F. A. Evangelista, J. M. Turney, T. D. Crawford, C. D. Sherrill,
    J. Chem. Phys. 152(18) 184108 (2020). https://doi.org/10.1063/5.0006002

                            Additional Code Authors
    E. T. Seidl, C. L. Janssen, E. F. Valeev, M. L. Leininger,
    J. F. Gonthier, R. M. Richard, H. R. McAlexander, M. Saitow, X. Wang,
    P. Verma, M. H. Lechner, A. Jiang, S. Behnle, A. G. Heide,
    M. F. Herbst, and D. L. Poole

             Previous Authors, Complete List of Code Contributors,
                       and Citations for Specific Modules
    https://github.com/psi4/psi4/blob/master/codemeta.json
    https://github.com/psi4/psi4/graphs/contributors
    http://psicode.org/psi4manual/master/introduction.html#citing-psifour

    -----------------------------------------------------------------------


    Psi4 started on: Wednesday, 19 February 2025 10:38AM

    Process ID: 2293111
    Host:       bme-earth.bme.utexas.edu
    PSIDATADIR: /home/liuchw/anaconda3/envs/poltype2024/share/psi4
    Memory:     500.0 MiB
    Threads:    1
    
  ==> Input File <==

--------------------------------------------------------------------------
molecule { 
0 1
O 0.891446259021 -0.422960791757 -0.602533196087
C 0.221489876724 0.403001706232 0.34858949507
C -1.245550341495 0.03662476494 0.300862970725
H 0.352841345325 1.467474511474 0.108242190814
H 0.618999237977 0.241486965895 1.360557498084
H -1.640994550088 0.209345302564 -0.702206833085
H -1.817812548941 0.637060923394 1.013724945062
H -1.374438568843 -1.019518173828 0.546241924624
H 1.835753840502 -0.194926701431 -0.581955529617
no_reorient
}
memory 16GB
set_num_threads(8)
psi4_io.set_default_path("/scratch/liuchw/Psi4-ethanol")
set freeze_core True
set PROPERTIES_ORIGIN ["COM"]
set cubeprop_tasks ['esp']
set basis 6-311G** 
E, wfn = properties('mp2',properties=['dipole'],return_wfn=True)
cubeprop(wfn)
fchk(wfn, "ethanol-dma.fchk")
clean()
--------------------------------------------------------------------------

  Memory set to  14.901 GiB by Python driver.
  Threads set to 8 by Python driver.
    SCF Algorithm Type (re)set to DF.
   => Libint2 <=

    Primary   basis highest AM E, G, H:  6, 6, 3
    Auxiliary basis highest AM E, G, H:  7, 7, 4
    Onebody   basis highest AM E, G, H:  -, -, -
    Solid Harmonics ordering:            Gaussian

*** tstart() called on bme-earth.bme.utexas.edu
*** at Wed Feb 19 10:38:17 2025

   => Loading Basis Set <=

    Name: 6-311G**
    Role: ORBITAL
    Keyword: BASIS
    atoms 1   entry O          line   151 file /home/liuchw/anaconda3/envs/poltype2024/share/psi4/basis/6-311gss.gbs 
    atoms 2-3 entry C          line   113 file /home/liuchw/anaconda3/envs/poltype2024/share/psi4/basis/6-311gss.gbs 
    atoms 4-9 entry H          line    32 file /home/liuchw/anaconda3/envs/poltype2024/share/psi4/basis/6-311gss.gbs 


         ---------------------------------------------------------
                                   SCF
               by Justin Turney, Rob Parrish, Andy Simmonett
                          and Daniel G. A. Smith
                              RHF Reference
                        8 Threads,  15258 MiB Core
         ---------------------------------------------------------

  ==> Geometry <==

    Molecular point group: c1
    Full point group: C1

    Geometry (in Angstrom), charge = 0, multiplicity = 1:

       Center              X                  Y                   Z               Mass       
    ------------   -----------------  -----------------  -----------------  -----------------
         O            0.893001817357    -0.419957253441    -0.600670073085    15.994914619570
         C            0.223045435060     0.406005244548     0.350452618072    12.000000000000
         C           -1.243994783159     0.039628303256     0.302726093727    12.000000000000
         H            0.354396903661     1.470478049790     0.110105313816     1.007825032230
         H            0.620554796313     0.244490504211     1.362420621086     1.007825032230
         H           -1.639438991752     0.212348840880    -0.700343710083     1.007825032230
         H           -1.816256990605     0.640064461710     1.015588068064     1.007825032230
         H           -1.372883010507    -1.016514635512     0.548105047626     1.007825032230
         H            1.837309398838    -0.191923163115    -0.580092406615     1.007825032230

  Running in c1 symmetry.

  Rotational constants: A =      1.16090  B =      0.31560  C =      0.27364 [cm^-1]
  Rotational constants: A =  34802.82602  B =   9461.55703  C =   8203.66906 [MHz]
  Nuclear repulsion =   81.813232166345927

  Charge       = 0
  Multiplicity = 1
  Electrons    = 26
  Nalpha       = 13
  Nbeta        = 13

  ==> Algorithm <==

  SCF Algorithm Type is DF.
  DIIS enabled.
  MOM disabled.
  Fractional occupation disabled.
  Guess Type is SAD.
  Energy threshold   = 1.00e-10
  Density threshold  = 1.00e-10
  Integral threshold = 1.00e-12

  ==> Primary Basis <==

  Basis Set: 6-311G**
    Blend: 6-311G**
    Number of shells: 48
    Number of basis functions: 90
    Number of Cartesian functions: 93
    Spherical Harmonics?: true
    Max angular momentum: 2

   => Loading Basis Set <=

    Name: (6-311G** AUX)
    Role: JKFIT
    Keyword: DF_BASIS_SCF
    atoms 1   entry O          line   229 file /home/liuchw/anaconda3/envs/poltype2024/share/psi4/basis/cc-pvtz-jkfit.gbs 
    atoms 2-3 entry C          line   125 file /home/liuchw/anaconda3/envs/poltype2024/share/psi4/basis/cc-pvtz-jkfit.gbs 
    atoms 4-9 entry H          line    51 file /home/liuchw/anaconda3/envs/poltype2024/share/psi4/basis/cc-pvtz-jkfit.gbs 

  ==> Integral Setup <==

  DFHelper Memory: AOs need 0.029 GiB; user supplied 11.176 GiB. 
  Using in-core AOs.

  ==> MemDFJK: Density-Fitted J/K Matrices <==

    J tasked:                   Yes
    K tasked:                   Yes
    wK tasked:                   No
    OpenMP threads:               8
    Memory [MiB]:             11444
    Algorithm:                 Core
    Schwarz Cutoff:           1E-12
    Mask sparsity (%):       0.2222
    Fitting Condition:        1E-10

   => Auxiliary Basis Set <=

  Basis Set: (6-311G** AUX)
    Blend: CC-PVTZ-JKFIT
    Number of shells: 135
    Number of basis functions: 417
    Number of Cartesian functions: 498
    Spherical Harmonics?: true
    Max angular momentum: 4

  Minimum eigenvalue in the overlap matrix is 3.0221704918E-03.
  Reciprocal condition number of the overlap matrix is 4.6418052100E-04.
    Using symmetric orthogonalization.

  ==> Pre-Iterations <==

  SCF Guess: Superposition of Atomic Densities via on-the-fly atomic UHF (no occupation information).

   -------------------------
    Irrep   Nso     Nmo    
   -------------------------
     A         90      90 
   -------------------------
    Total      90      90
   -------------------------

  ==> Iterations <==

                           Total Energy        Delta E     RMS |[F,P]|

   @DF-RHF iter SAD:  -153.41980934438595   -1.53420e+02   0.00000e+00 
   @DF-RHF iter   1:  -154.00827567544439   -5.88466e-01   5.17940e-03 ADIIS/DIIS
   @DF-RHF iter   2:  -154.09965942926766   -9.13838e-02   2.74877e-03 ADIIS/DIIS
   @DF-RHF iter   3:  -154.12243434050629   -2.27749e-02   4.80592e-04 ADIIS/DIIS
   @DF-RHF iter   4:  -154.12381931233736   -1.38497e-03   1.59295e-04 ADIIS/DIIS
   @DF-RHF iter   5:  -154.12393998578978   -1.20673e-04   3.18290e-05 DIIS
   @DF-RHF iter   6:  -154.12394676300914   -6.77722e-06   5.95770e-06 DIIS
   @DF-RHF iter   7:  -154.12394708017587   -3.17167e-07   1.64481e-06 DIIS
   @DF-RHF iter   8:  -154.12394709859154   -1.84157e-08   4.64618e-07 DIIS
   @DF-RHF iter   9:  -154.12394710031316   -1.72162e-09   1.06006e-07 DIIS
   @DF-RHF iter  10:  -154.12394710043418   -1.21020e-10   2.15298e-08 DIIS
   @DF-RHF iter  11:  -154.12394710043912   -4.94538e-12   4.54752e-09 DIIS
   @DF-RHF iter  12:  -154.12394710043949   -3.69482e-13   9.17720e-10 DIIS
   @DF-RHF iter  13:  -154.12394710043969   -1.98952e-13   1.95272e-10 DIIS
   @DF-RHF iter  14:  -154.12394710043947    2.27374e-13   4.55647e-11 DIIS
  Energy and wave function converged.


  ==> Post-Iterations <==

    Orbital Energies [Eh]
    ---------------------

    Doubly Occupied:                                                      

       1A    -20.544841     2A    -11.273980     3A    -11.211469  
       4A     -1.348979     5A     -1.010061     6A     -0.831032  
       7A     -0.692825     8A     -0.641987     9A     -0.566242  
      10A     -0.530178    11A     -0.522019    12A     -0.486057  
      13A     -0.439084  

    Virtual:                                                              

      14A      0.152598    15A      0.182661    16A      0.208145  
      17A      0.209891    18A      0.235688    19A      0.260971  
      20A      0.360734    21A      0.380645    22A      0.459981  
      23A      0.460200    24A      0.526388    25A      0.550888  
      26A      0.601397    27A      0.690612    28A      0.750578  
      29A      0.779026    30A      0.792250    31A      0.813447  
      32A      0.816945    33A      0.841245    34A      0.941091  
      35A      1.014091    36A      1.079395    37A      1.096420  
      38A      1.167030    39A      1.277531    40A      1.378736  
      41A      1.508725    42A      1.557834    43A      1.616962  
      44A      1.622064    45A      1.725741    46A      1.733698  
      47A      1.747362    48A      1.763999    49A      1.782342  
      50A      1.853020    51A      1.904221    52A      1.947782  
      53A      2.007336    54A      2.022029    55A      2.097347  
      56A      2.254530    57A      2.254993    58A      2.311505  
      59A      2.358585    60A      2.438120    61A      2.549164  
      62A      2.615216    63A      2.686348    64A      2.707373  
      65A      2.748159    66A      2.812517    67A      2.819791  
      68A      2.854922    69A      2.927579    70A      2.933111  
      71A      2.949502    72A      3.030176    73A      3.159904  
      74A      3.304832    75A      3.488993    76A      3.568671  
      77A      3.592090    78A      3.698833    79A      4.176902  
      80A      4.180757    81A      4.221649    82A      4.230691  
      83A      4.361120    84A      4.646573    85A      5.430469  
      86A      5.813046    87A      6.199681    88A     24.948883  
      89A     25.096906    90A     51.588558  

    Final Occupation by Irrep:
              A 
    DOCC [    13 ]
    NA   [    13 ]
    NB   [    13 ]

  @DF-RHF Final Energy:  -154.12394710043947

   => Energetics <=

    Nuclear Repulsion Energy =             81.8132321663459265
    One-Electron Energy =                -371.6768502590407479
    Two-Electron Energy =                 135.7396709922553555
    Total Energy =                       -154.1239471004394659

Computation Completed

*** tstop() called on bme-earth.bme.utexas.edu at Wed Feb 19 10:38:17 2025
Module time:
	user time   =       2.70 seconds =       0.05 minutes
	system time =       0.09 seconds =       0.00 minutes
	total time  =          0 seconds =       0.00 minutes
Total time:
	user time   =       2.70 seconds =       0.05 minutes
	system time =       0.09 seconds =       0.00 minutes
	total time  =          0 seconds =       0.00 minutes
   => Loading Basis Set <=

    Name: (6-311G** AUX)
    Role: RIFIT
    Keyword: DF_BASIS_MP2
    atoms 1   entry O          line   305 file /home/liuchw/anaconda3/envs/poltype2024/share/psi4/basis/cc-pvtz-ri.gbs 
    atoms 2-3 entry C          line   209 file /home/liuchw/anaconda3/envs/poltype2024/share/psi4/basis/cc-pvtz-ri.gbs 
    atoms 4-9 entry H          line    19 file /home/liuchw/anaconda3/envs/poltype2024/share/psi4/basis/cc-pvtz-ri.gbs 


*** tstart() called on bme-earth.bme.utexas.edu
*** at Wed Feb 19 10:38:17 2025


  //>>>>>>>>>>>>>>>>>>>>>>>>>>>>>>>>>>>//
  //               DFMP2               //
  //<<<<<<<<<<<<<<<<<<<<<<<<<<<<<<<<<<<//

	 --------------------------------------------------------
	                          DF-MP2                         
	      2nd-Order Density-Fitted Moller-Plesset Theory     
	              RMP2 Wavefunction,   8 Threads             
	                                                         
	        Rob Parrish, Justin Turney, Andy Simmonett,      
	           Ed Hohenstein, and C. David Sherrill          
	 --------------------------------------------------------

   => Auxiliary Basis Set <=

  Basis Set: (6-311G** AUX)
    Blend: CC-PVTZ-RI
    Number of shells: 129
    Number of basis functions: 423
    Number of Cartesian functions: 513
    Spherical Harmonics?: true
    Max angular momentum: 4

	 --------------------------------------------------------
	                 NBF =    90, NAUX =   423
	 --------------------------------------------------------
	   CLASS    FOCC     OCC    AOCC    AVIR     VIR    FVIR
	   PAIRS       3      13      10      77      77       0
	 --------------------------------------------------------

  DFHelper Memory: AOs need 0.029 GiB; user supplied 11.176 GiB. 
  Using in-core AOs.


         ------------------------------------------------------------
                                     CPHF                           
                                  Rob Parrish                       
         ------------------------------------------------------------

  ==> Geometry <==

    Molecular point group: c1
    Full point group: C1

    Geometry (in Angstrom), charge = 0, multiplicity = 1:

       Center              X                  Y                   Z               Mass       
    ------------   -----------------  -----------------  -----------------  -----------------
         O            0.893001817357    -0.419957253441    -0.600670073085    15.994914619570
         C            0.223045435060     0.406005244548     0.350452618072    12.000000000000
         C           -1.243994783159     0.039628303256     0.302726093727    12.000000000000
         H            0.354396903661     1.470478049790     0.110105313816     1.007825032230
         H            0.620554796313     0.244490504211     1.362420621086     1.007825032230
         H           -1.639438991752     0.212348840880    -0.700343710083     1.007825032230
         H           -1.816256990605     0.640064461710     1.015588068064     1.007825032230
         H           -1.372883010507    -1.016514635512     0.548105047626     1.007825032230
         H            1.837309398838    -0.191923163115    -0.580092406615     1.007825032230

  Nuclear repulsion =   81.813232166345927
  Reference energy  = -154.123947100439466

  ==> Basis Set <==

  Basis Set: 6-311G**
    Blend: 6-311G**
    Number of shells: 48
    Number of basis functions: 90
    Number of Cartesian functions: 93
    Spherical Harmonics?: true
    Max angular momentum: 2

  ==> CGRSolver (by Rob Parrish) <==

   Number of roots    =         1
   Preconditioning    =    JACOBI
   Convergence cutoff =     1E-06
   Maximum iterations =       100

  ==> CPHFRHamiltonian (by Rob Parrish) <== 

  ==> MemDFJK: Density-Fitted J/K Matrices <==

    J tasked:                   Yes
    K tasked:                   Yes
    wK tasked:                   No
    OpenMP threads:               8
    Memory [MiB]:             11444
    Algorithm:                 Core
    Schwarz Cutoff:           1E-12
    Mask sparsity (%):       0.2222
    Fitting Condition:        1E-10

   => Auxiliary Basis Set <=

  Basis Set: (6-311G** AUX)
    Blend: CC-PVTZ-JKFIT
    Number of shells: 135
    Number of basis functions: 417
    Number of Cartesian functions: 498
    Spherical Harmonics?: true
    Max angular momentum: 4

  ==> CPHF Iterations <==

  => Iterations <=

             Iter  Converged  Remaining    Residual
  CGR           1          0          1   5.787E-02
  CGR           2          0          1   1.183E-02
  CGR           3          0          1   4.508E-03
  CGR           4          0          1   1.067E-03
  CGR           5          0          1   2.708E-04
  CGR           6          0          1   6.845E-05
  CGR           7          0          1   1.455E-05
  CGR           8          0          1   4.656E-06
  CGR           9          1          0   7.279E-07

    CGRSolver converged.

	-----------------------------------------------------------
	 ==================> DF-MP2 Energies <==================== 
	-----------------------------------------------------------
	 Reference Energy          =    -154.1239471004394659 [Eh]
	 Singles Energy            =      -0.0000000000000000 [Eh]
	 Same-Spin Energy          =      -0.1204879551353304 [Eh]
	 Opposite-Spin Energy      =      -0.3919487371513428 [Eh]
	 Correlation Energy        =      -0.5124366922866732 [Eh]
	 Total Energy              =    -154.6363837927261500 [Eh]
	-----------------------------------------------------------
	 ================> DF-SCS-MP2 Energies <================== 
	-----------------------------------------------------------
	 SCS Same-Spin Scale       =       0.3333333333333333 [-]
	 SCS Opposite-Spin Scale   =       1.2000000000000000 [-]
	 SCS Same-Spin Energy      =      -0.0401626517117768 [Eh]
	 SCS Opposite-Spin Energy  =      -0.4703384845816113 [Eh]
	 SCS Correlation Energy    =      -0.5105011362933881 [Eh]
	 SCS Total Energy          =    -154.6344482367328510 [Eh]
	-----------------------------------------------------------



Properties will be evaluated at   0.000000,   0.000000,  -0.000000 [a0]

Properties computed using the MP2 density matrix


 Multipole Moments:

 ------------------------------------------------------------------------------------
     Multipole            Electronic (a.u.)      Nuclear  (a.u.)        Total (a.u.)
 ------------------------------------------------------------------------------------

 L = 1.  Multiply by 2.5417464519 to convert [e a0] to [Debye]
 Dipole X            :          2.1980175           -1.8859456            0.3120719
 Dipole Y            :         -0.8404159            1.2719507            0.4315348
 Dipole Z            :         -1.2882702            1.6431067            0.3548365
 Magnitude           :                                                    0.6399376

 ------------------------------------------------------------------------------------

*** tstop() called on bme-earth.bme.utexas.edu at Wed Feb 19 10:38:18 2025
Module time:
	user time   =       2.37 seconds =       0.04 minutes
	system time =       0.06 seconds =       0.00 minutes
	total time  =          1 seconds =       0.02 minutes
Total time:
	user time   =       5.26 seconds =       0.09 minutes
	system time =       0.15 seconds =       0.00 minutes
	total time  =          1 seconds =       0.02 minutes
  ==> One Electron Grid Properties (v2.0) <==

  ==> CubicScalarGrid <==

    Filepath     = .
    Total Points =           301340
    XYZ Blocking =               10
    X Points     =               76
    Y Points     =               65
    Z Points     =               61
    X Spacing    =        2.000E-01
    Y Spacing    =        2.000E-01
    Z Spacing    =        2.000E-01
    X Minimum    =       -7.480E+00
    Y Minimum    =       -5.971E+00
    Z Minimum    =       -5.374E+00
    X Maximum    =        7.520E+00
    Y Maximum    =        6.829E+00
    Z Maximum    =        6.626E+00

  Basis Set: 6-311G**
    Blend: 6-311G**
    Number of shells: 48
    Number of basis functions: 90
    Number of Cartesian functions: 93
    Spherical Harmonics?: true
    Max angular momentum: 2

*********************************************************************************************************************
When computing potential integrals with different bra and ket basis, the atom definition is taken from the bra basis.
*********************************************************************************************************************
*********************************************************************************************************************
When computing potential integrals with different bra and ket basis, the atom definition is taken from the bra basis.
*********************************************************************************************************************
*********************************************************************************************************************
When computing potential integrals with different bra and ket basis, the atom definition is taken from the bra basis.
*********************************************************************************************************************
*********************************************************************************************************************
When computing potential integrals with different bra and ket basis, the atom definition is taken from the bra basis.
*********************************************************************************************************************
*********************************************************************************************************************
When computing potential integrals with different bra and ket basis, the atom definition is taken from the bra basis.
*********************************************************************************************************************
*********************************************************************************************************************
When computing potential integrals with different bra and ket basis, the atom definition is taken from the bra basis.
*********************************************************************************************************************
*********************************************************************************************************************
When computing potential integrals with different bra and ket basis, the atom definition is taken from the bra basis.
*********************************************************************************************************************
*********************************************************************************************************************
When computing potential integrals with different bra and ket basis, the atom definition is taken from the bra basis.
*********************************************************************************************************************
   => Loading Basis Set <=

    Name: 6-311G**
    Role: ORBITAL
    Keyword: BASIS
    atoms 1   entry O          line   151 file /home/liuchw/anaconda3/envs/poltype2024/share/psi4/basis/6-311gss.gbs 
    atoms 2-3 entry C          line   113 file /home/liuchw/anaconda3/envs/poltype2024/share/psi4/basis/6-311gss.gbs 
    atoms 4-9 entry H          line    32 file /home/liuchw/anaconda3/envs/poltype2024/share/psi4/basis/6-311gss.gbs 

FCHKWriter: !WARNING! method 'MP2'' renamed to label 'MP2'.
FCHKWriter: Writing ethanol-dma.fchk with label ' MP2 Density'.

    Psi4 stopped on: Wednesday, 19 February 2025 10:38AM
    Psi4 wall time for execution: 0:00:01.80

*** Psi4 exiting successfully. Buy a developer a beer!
