Generated by Psi4
        SP                        DF-MP2                   AUG-CC-PVTZ
Number of atoms                            I                9
Charge                                     I                0
Multiplicity                               I                1
Number of electrons                        I               26
Number of alpha electrons                  I               13
Number of beta electrons                   I               13
Number of basis functions                  I              276
Number of independent functions            I              276
Atomic numbers                             I   N=           9
           8           6           6           1           1           1
           1           1           1
Nuclear charges                            R   N=           9
  8.00000000e+00  6.00000000e+00  6.00000000e+00  1.00000000e+00  1.00000000e+00
  1.00000000e+00  1.00000000e+00  1.00000000e+00  1.00000000e+00
Current cartesian coordinates              R   N=          27
  1.68752886e+00 -7.93604193e-01 -1.13510193e+00  4.21494786e-01  7.67238718e-01
  6.62259468e-01 -2.35080944e+00  7.48866400e-02  5.72069408e-01  6.69713088e-01
  2.77880079e+00  2.08068888e-01  1.17267861e+00  4.62020093e-01  2.57460184e+00
 -3.09809069e+00  4.01281152e-01 -1.32345781e+00 -3.43222829e+00  1.20954654e+00
  1.91918330e+00 -2.59437289e+00 -1.92093426e+00  1.03576843e+00  3.47201157e+00
 -3.62682215e-01 -1.09621578e+00
Integer atomic weights                     I   N=           9
          16          12          12           1           1           1
           1           1           1
Real atomic weights                        R   N=           9
  1.59949146e+01  1.20000000e+01  1.20000000e+01  1.00782503e+00  1.00782503e+00
  1.00782503e+00  1.00782503e+00  1.00782503e+00  1.00782503e+00
Number of primitive shells                 I              156
Number of contracted shells                I               96
Pure/Cartesian d shells                    I                0
Pure/Cartesian f shells                    I                0
Highest angular momentum                   I                3
Largest degree of contraction              I                8
Shell types                                I   N=          96
           0           0           0           0           1           1
           1          -2          -2          -3           0           1
          -2          -3           0           0           0           0
           1           1           1          -2          -2          -3
           0           1          -2          -3           0           0
           0           0           1           1           1          -2
          -2          -3           0           1          -2          -3
           0           0           0           1           1          -2
           0           1          -2           0           0           0
           1           1          -2           0           1          -2
           0           0           0           1           1          -2
           0           1          -2           0           0           0
           1           1          -2           0           1          -2
           0           0           0           1           1          -2
           0           1          -2           0           0           0
           1           1          -2           0           1          -2
Number of primitives per shell             I   N=          96
           8           8           1           1           3           1
           1           1           1           1           1           1
           1           1           8           8           1           1
           3           1           1           1           1           1
           1           1           1           1           8           8
           1           1           3           1           1           1
           1           1           1           1           1           1
           3           1           1           1           1           1
           1           1           1           3           1           1
           1           1           1           1           1           1
           3           1           1           1           1           1
           1           1           1           3           1           1
           1           1           1           1           1           1
           3           1           1           1           1           1
           1           1           1           3           1           1
           1           1           1           1           1           1
Shell to atom map                          I   N=          96
           1           1           1           1           1           1
           1           1           1           1           1           1
           1           1           2           2           2           2
           2           2           2           2           2           2
           2           2           2           2           3           3
           3           3           3           3           3           3
           3           3           3           3           3           3
           4           4           4           4           4           4
           4           4           4           5           5           5
           5           5           5           5           5           5
           6           6           6           6           6           6
           6           6           6           7           7           7
           7           7           7           7           7           7
           8           8           8           8           8           8
           8           8           8           9           9           9
           9           9           9           9           9           9
Primitive exponents                        R   N=         156
  1.53300000e+04  2.29900000e+03  5.22400000e+02  1.47300000e+02  4.75500000e+01
  1.67600000e+01  6.20700000e+00  6.88200000e-01  1.53300000e+04  2.29900000e+03
  5.22400000e+02  1.47300000e+02  4.75500000e+01  1.67600000e+01  6.20700000e+00
  6.88200000e-01  1.75200000e+00  2.38400000e-01  3.44600000e+01  7.74900000e+00
  2.28000000e+00  7.15600000e-01  2.14000000e-01  2.31400000e+00  6.45000000e-01
  1.42800000e+00  7.37600000e-02  5.97400000e-02  2.14000000e-01  5.00000000e-01
  8.23600000e+03  1.23500000e+03  2.80800000e+02  7.92700000e+01  2.55900000e+01
  8.99700000e+00  3.31900000e+00  3.64300000e-01  8.23600000e+03  1.23500000e+03
  2.80800000e+02  7.92700000e+01  2.55900000e+01  8.99700000e+00  3.31900000e+00
  3.64300000e-01  9.05900000e-01  1.28500000e-01  1.87100000e+01  4.13300000e+00
  1.20000000e+00  3.82700000e-01  1.20900000e-01  1.09700000e+00  3.18000000e-01
  7.61000000e-01  4.40200000e-02  3.56900000e-02  1.00000000e-01  2.68000000e-01
  8.23600000e+03  1.23500000e+03  2.80800000e+02  7.92700000e+01  2.55900000e+01
  8.99700000e+00  3.31900000e+00  3.64300000e-01  8.23600000e+03  1.23500000e+03
  2.80800000e+02  7.92700000e+01  2.55900000e+01  8.99700000e+00  3.31900000e+00
  3.64300000e-01  9.05900000e-01  1.28500000e-01  1.87100000e+01  4.13300000e+00
  1.20000000e+00  3.82700000e-01  1.20900000e-01  1.09700000e+00  3.18000000e-01
  7.61000000e-01  4.40200000e-02  3.56900000e-02  1.00000000e-01  2.68000000e-01
  3.38700000e+01  5.09500000e+00  1.15900000e+00  3.25800000e-01  1.02700000e-01
  1.40700000e+00  3.88000000e-01  1.05700000e+00  2.52600000e-02  1.02000000e-01
  2.47000000e-01  3.38700000e+01  5.09500000e+00  1.15900000e+00  3.25800000e-01
  1.02700000e-01  1.40700000e+00  3.88000000e-01  1.05700000e+00  2.52600000e-02
  1.02000000e-01  2.47000000e-01  3.38700000e+01  5.09500000e+00  1.15900000e+00
  3.25800000e-01  1.02700000e-01  1.40700000e+00  3.88000000e-01  1.05700000e+00
  2.52600000e-02  1.02000000e-01  2.47000000e-01  3.38700000e+01  5.09500000e+00
  1.15900000e+00  3.25800000e-01  1.02700000e-01  1.40700000e+00  3.88000000e-01
  1.05700000e+00  2.52600000e-02  1.02000000e-01  2.47000000e-01  3.38700000e+01
  5.09500000e+00  1.15900000e+00  3.25800000e-01  1.02700000e-01  1.40700000e+00
  3.88000000e-01  1.05700000e+00  2.52600000e-02  1.02000000e-01  2.47000000e-01
  3.38700000e+01  5.09500000e+00  1.15900000e+00  3.25800000e-01  1.02700000e-01
  1.40700000e+00  3.88000000e-01  1.05700000e+00  2.52600000e-02  1.02000000e-01
  2.47000000e-01
Contraction coefficients                   R   N=         156
  5.20198307e-04  4.02334478e-03  2.07290833e-02  8.10823271e-02  2.36226352e-01
  4.43518209e-01  3.58670589e-01 -8.34979724e-03 -1.97236012e-04 -1.53501070e-03
 -7.95118391e-03 -3.21134529e-02 -1.00269643e-01 -2.34047112e-01 -3.01410928e-01
  1.03491965e+00  1.00000000e+00  1.00000000e+00  4.11634896e-02  2.57762836e-01
  8.02419274e-01  1.00000000e+00  1.00000000e+00  1.00000000e+00  1.00000000e+00
  1.00000000e+00  1.00000000e+00  1.00000000e+00  1.00000000e+00  1.00000000e+00
  5.42430189e-04  4.19642790e-03  2.15409141e-02  8.36149496e-02  2.39871619e-01
  4.43751820e-01  3.53579696e-01 -9.17636608e-03 -1.96392234e-04 -1.52595027e-03
 -7.89044903e-03 -3.15148705e-02 -9.69100083e-02 -2.20541526e-01 -2.96069113e-01
  1.04050343e+00  1.00000000e+00  1.00000000e+00  3.94263872e-02  2.44088985e-01
  8.15492009e-01  1.00000000e+00  1.00000000e+00  1.00000000e+00  1.00000000e+00
  1.00000000e+00  1.00000000e+00  1.00000000e+00  1.00000000e+00  1.00000000e+00
  5.42430189e-04  4.19642790e-03  2.15409141e-02  8.36149496e-02  2.39871619e-01
  4.43751820e-01  3.53579696e-01 -9.17636608e-03 -1.96392234e-04 -1.52595027e-03
 -7.89044903e-03 -3.15148705e-02 -9.69100083e-02 -2.20541526e-01 -2.96069113e-01
  1.04050343e+00  1.00000000e+00  1.00000000e+00  3.94263872e-02  2.44088985e-01
  8.15492009e-01  1.00000000e+00  1.00000000e+00  1.00000000e+00  1.00000000e+00
  1.00000000e+00  1.00000000e+00  1.00000000e+00  1.00000000e+00  1.00000000e+00
  2.54948632e-02  1.90362766e-01  8.52162022e-01  1.00000000e+00  1.00000000e+00
  1.00000000e+00  1.00000000e+00  1.00000000e+00  1.00000000e+00  1.00000000e+00
  1.00000000e+00  2.54948632e-02  1.90362766e-01  8.52162022e-01  1.00000000e+00
  1.00000000e+00  1.00000000e+00  1.00000000e+00  1.00000000e+00  1.00000000e+00
  1.00000000e+00  1.00000000e+00  2.54948632e-02  1.90362766e-01  8.52162022e-01
  1.00000000e+00  1.00000000e+00  1.00000000e+00  1.00000000e+00  1.00000000e+00
  1.00000000e+00  1.00000000e+00  1.00000000e+00  2.54948632e-02  1.90362766e-01
  8.52162022e-01  1.00000000e+00  1.00000000e+00  1.00000000e+00  1.00000000e+00
  1.00000000e+00  1.00000000e+00  1.00000000e+00  1.00000000e+00  2.54948632e-02
  1.90362766e-01  8.52162022e-01  1.00000000e+00  1.00000000e+00  1.00000000e+00
  1.00000000e+00  1.00000000e+00  1.00000000e+00  1.00000000e+00  1.00000000e+00
  2.54948632e-02  1.90362766e-01  8.52162022e-01  1.00000000e+00  1.00000000e+00
  1.00000000e+00  1.00000000e+00  1.00000000e+00  1.00000000e+00  1.00000000e+00
  1.00000000e+00
Coordinates of each shell                  R   N=         288
  1.68752886e+00 -7.93604193e-01 -1.13510193e+00  1.68752886e+00 -7.93604193e-01
 -1.13510193e+00  1.68752886e+00 -7.93604193e-01 -1.13510193e+00  1.68752886e+00
 -7.93604193e-01 -1.13510193e+00  1.68752886e+00 -7.93604193e-01 -1.13510193e+00
  1.68752886e+00 -7.93604193e-01 -1.13510193e+00  1.68752886e+00 -7.93604193e-01
 -1.13510193e+00  1.68752886e+00 -7.93604193e-01 -1.13510193e+00  1.68752886e+00
 -7.93604193e-01 -1.13510193e+00  1.68752886e+00 -7.93604193e-01 -1.13510193e+00
  1.68752886e+00 -7.93604193e-01 -1.13510193e+00  1.68752886e+00 -7.93604193e-01
 -1.13510193e+00  1.68752886e+00 -7.93604193e-01 -1.13510193e+00  1.68752886e+00
 -7.93604193e-01 -1.13510193e+00  4.21494786e-01  7.67238718e-01  6.62259468e-01
  4.21494786e-01  7.67238718e-01  6.62259468e-01  4.21494786e-01  7.67238718e-01
  6.62259468e-01  4.21494786e-01  7.67238718e-01  6.62259468e-01  4.21494786e-01
  7.67238718e-01  6.62259468e-01  4.21494786e-01  7.67238718e-01  6.62259468e-01
  4.21494786e-01  7.67238718e-01  6.62259468e-01  4.21494786e-01  7.67238718e-01
  6.62259468e-01  4.21494786e-01  7.67238718e-01  6.62259468e-01  4.21494786e-01
  7.67238718e-01  6.62259468e-01  4.21494786e-01  7.67238718e-01  6.62259468e-01
  4.21494786e-01  7.67238718e-01  6.62259468e-01  4.21494786e-01  7.67238718e-01
  6.62259468e-01  4.21494786e-01  7.67238718e-01  6.62259468e-01 -2.35080944e+00
  7.48866400e-02  5.72069408e-01 -2.35080944e+00  7.48866400e-02  5.72069408e-01
 -2.35080944e+00  7.48866400e-02  5.72069408e-01 -2.35080944e+00  7.48866400e-02
  5.72069408e-01 -2.35080944e+00  7.48866400e-02  5.72069408e-01 -2.35080944e+00
  7.48866400e-02  5.72069408e-01 -2.35080944e+00  7.48866400e-02  5.72069408e-01
 -2.35080944e+00  7.48866400e-02  5.72069408e-01 -2.35080944e+00  7.48866400e-02
  5.72069408e-01 -2.35080944e+00  7.48866400e-02  5.72069408e-01 -2.35080944e+00
  7.48866400e-02  5.72069408e-01 -2.35080944e+00  7.48866400e-02  5.72069408e-01
 -2.35080944e+00  7.48866400e-02  5.72069408e-01 -2.35080944e+00  7.48866400e-02
  5.72069408e-01  6.69713088e-01  2.77880079e+00  2.08068888e-01  6.69713088e-01
  2.77880079e+00  2.08068888e-01  6.69713088e-01  2.77880079e+00  2.08068888e-01
  6.69713088e-01  2.77880079e+00  2.08068888e-01  6.69713088e-01  2.77880079e+00
  2.08068888e-01  6.69713088e-01  2.77880079e+00  2.08068888e-01  6.69713088e-01
  2.77880079e+00  2.08068888e-01  6.69713088e-01  2.77880079e+00  2.08068888e-01
  6.69713088e-01  2.77880079e+00  2.08068888e-01  1.17267861e+00  4.62020093e-01
  2.57460184e+00  1.17267861e+00  4.62020093e-01  2.57460184e+00  1.17267861e+00
  4.62020093e-01  2.57460184e+00  1.17267861e+00  4.62020093e-01  2.57460184e+00
  1.17267861e+00  4.62020093e-01  2.57460184e+00  1.17267861e+00  4.62020093e-01
  2.57460184e+00  1.17267861e+00  4.62020093e-01  2.57460184e+00  1.17267861e+00
  4.62020093e-01  2.57460184e+00  1.17267861e+00  4.62020093e-01  2.57460184e+00
 -3.09809069e+00  4.01281152e-01 -1.32345781e+00 -3.09809069e+00  4.01281152e-01
 -1.32345781e+00 -3.09809069e+00  4.01281152e-01 -1.32345781e+00 -3.09809069e+00
  4.01281152e-01 -1.32345781e+00 -3.09809069e+00  4.01281152e-01 -1.32345781e+00
 -3.09809069e+00  4.01281152e-01 -1.32345781e+00 -3.09809069e+00  4.01281152e-01
 -1.32345781e+00 -3.09809069e+00  4.01281152e-01 -1.32345781e+00 -3.09809069e+00
  4.01281152e-01 -1.32345781e+00 -3.43222829e+00  1.20954654e+00  1.91918330e+00
 -3.43222829e+00  1.20954654e+00  1.91918330e+00 -3.43222829e+00  1.20954654e+00
  1.91918330e+00 -3.43222829e+00  1.20954654e+00  1.91918330e+00 -3.43222829e+00
  1.20954654e+00  1.91918330e+00 -3.43222829e+00  1.20954654e+00  1.91918330e+00
 -3.43222829e+00  1.20954654e+00  1.91918330e+00 -3.43222829e+00  1.20954654e+00
  1.91918330e+00 -3.43222829e+00  1.20954654e+00  1.91918330e+00 -2.59437289e+00
 -1.92093426e+00  1.03576843e+00 -2.59437289e+00 -1.92093426e+00  1.03576843e+00
 -2.59437289e+00 -1.92093426e+00  1.03576843e+00 -2.59437289e+00 -1.92093426e+00
  1.03576843e+00 -2.59437289e+00 -1.92093426e+00  1.03576843e+00 -2.59437289e+00
 -1.92093426e+00  1.03576843e+00 -2.59437289e+00 -1.92093426e+00  1.03576843e+00
 -2.59437289e+00 -1.92093426e+00  1.03576843e+00 -2.59437289e+00 -1.92093426e+00
  1.03576843e+00  3.47201157e+00 -3.62682215e-01 -1.09621578e+00  3.47201157e+00
 -3.62682215e-01 -1.09621578e+00  3.47201157e+00 -3.62682215e-01 -1.09621578e+00
  3.47201157e+00 -3.62682215e-01 -1.09621578e+00  3.47201157e+00 -3.62682215e-01
 -1.09621578e+00  3.47201157e+00 -3.62682215e-01 -1.09621578e+00  3.47201157e+00
 -3.62682215e-01 -1.09621578e+00  3.47201157e+00 -3.62682215e-01 -1.09621578e+00
  3.47201157e+00 -3.62682215e-01 -1.09621578e+00
Total Energy                               R     -1.547580920735896e+02
Alpha Orbital Energies                     R   N=         276
 -2.05575257e+01 -1.12756139e+01 -1.12122161e+01 -1.35435389e+00 -1.01130642e+00
 -8.32348446e-01 -6.96702117e-01 -6.43966676e-01 -5.70197786e-01 -5.31832989e-01
 -5.24193087e-01 -4.88993111e-01 -4.42648388e-01  2.91001770e-02  3.97561051e-02
  4.26152496e-02  4.48282678e-02  6.30729884e-02  6.74904524e-02  9.86710381e-02
  1.15241088e-01  1.16945514e-01  1.21834615e-01  1.38382202e-01  1.43563656e-01
  1.46340907e-01  1.77192871e-01  1.85928511e-01  1.93228214e-01  2.13371849e-01
  2.34951965e-01  2.35924962e-01  2.48251914e-01  2.76131544e-01  2.85238435e-01
  2.87846567e-01  2.91088277e-01  3.10942382e-01  3.25478680e-01  3.33044521e-01
  3.40944449e-01  3.59838074e-01  3.60115346e-01  3.72960561e-01  3.79864709e-01
  3.87839709e-01  3.94651640e-01  3.98281785e-01  4.18140241e-01  4.25176139e-01
  4.36357230e-01  4.44875841e-01  4.50993765e-01  4.60354905e-01  4.72841043e-01
  4.74618131e-01  4.79540512e-01  4.95013370e-01  4.99724194e-01  5.13550364e-01
  5.20701164e-01  5.27773581e-01  5.43016094e-01  5.67805052e-01  5.68471378e-01
  5.83284293e-01  6.04434267e-01  6.94081571e-01  7.25183078e-01  7.36341376e-01
  7.61380125e-01  7.77263628e-01  8.05350343e-01  8.10519672e-01  8.29276835e-01
  8.30030280e-01  8.31428460e-01  8.47335561e-01  8.64277805e-01  8.79496311e-01
  8.95564043e-01  9.07032766e-01  9.08116216e-01  9.22512183e-01  9.49692631e-01
  9.54052405e-01  9.69739896e-01  9.75657103e-01  9.78691872e-01  9.84053793e-01
  1.00611163e+00  1.03817142e+00  1.04176284e+00  1.05262997e+00  1.07651086e+00
  1.08197722e+00  1.08811954e+00  1.09401575e+00  1.10325941e+00  1.12801566e+00
  1.13771495e+00  1.14566915e+00  1.15079137e+00  1.15776566e+00  1.19259744e+00
  1.19630138e+00  1.22258020e+00  1.25422079e+00  1.25759469e+00  1.26373157e+00
  1.29679227e+00  1.30733969e+00  1.35113100e+00  1.36950090e+00  1.39130641e+00
  1.40924304e+00  1.41747556e+00  1.43123604e+00  1.44822061e+00  1.49429093e+00
  1.51752121e+00  1.55048039e+00  1.56870789e+00  1.58609940e+00  1.62136248e+00
  1.63212522e+00  1.63532427e+00  1.65692903e+00  1.67339254e+00  1.68949182e+00
  1.70228297e+00  1.70643271e+00  1.71824177e+00  1.73942528e+00  1.75122246e+00
  1.76888940e+00  1.80738423e+00  1.81860775e+00  1.83369826e+00  1.88399415e+00
  1.90355292e+00  1.91876132e+00  1.94401189e+00  1.96347448e+00  2.00000029e+00
  2.03608579e+00  2.04822854e+00  2.08511910e+00  2.09442930e+00  2.11456831e+00
  2.17407241e+00  2.19628301e+00  2.22250247e+00  2.24329209e+00  2.28259489e+00
  2.29112453e+00  2.36580029e+00  2.39023196e+00  2.40785139e+00  2.47629477e+00
  2.50908852e+00  2.53503554e+00  2.55209200e+00  2.64623699e+00  2.72357973e+00
  2.79502040e+00  2.85497118e+00  2.88759414e+00  2.89410997e+00  2.93892777e+00
  2.94755471e+00  3.01066519e+00  3.02317765e+00  3.14524695e+00  3.22538347e+00
  3.28016561e+00  3.39114015e+00  3.40129028e+00  3.44325467e+00  3.44734742e+00
  3.55471458e+00  3.57068753e+00  3.59315830e+00  3.61409967e+00  3.65421135e+00
  3.66051412e+00  3.70885631e+00  3.71046107e+00  3.75861471e+00  3.77687512e+00
  3.80868302e+00  3.82602952e+00  3.91047873e+00  3.91405547e+00  3.95300175e+00
  3.96016389e+00  3.97727009e+00  3.98678115e+00  4.02801745e+00  4.07058538e+00
  4.07354268e+00  4.12466911e+00  4.13279113e+00  4.16015252e+00  4.18109317e+00
  4.21027340e+00  4.25322012e+00  4.29261634e+00  4.30258964e+00  4.33708503e+00
  4.43595839e+00  4.44744788e+00  4.47539803e+00  4.51107905e+00  4.53235252e+00
  4.54847086e+00  4.58826283e+00  4.65914467e+00  4.67728839e+00  4.68764474e+00
  4.74920492e+00  4.79120709e+00  4.82488565e+00  4.83339402e+00  4.89298029e+00
  4.90129164e+00  4.94038415e+00  5.02358255e+00  5.03301317e+00  5.05691844e+00
  5.08859345e+00  5.10994753e+00  5.12015585e+00  5.15154659e+00  5.19305558e+00
  5.26774793e+00  5.31054719e+00  5.32386535e+00  5.36794141e+00  5.41468105e+00
  5.43736211e+00  5.48351815e+00  5.53306612e+00  5.55518141e+00  5.58083521e+00
  5.69580171e+00  5.73671414e+00  5.78013571e+00  5.82414766e+00  5.94813437e+00
  6.00011053e+00  6.02079129e+00  6.08432657e+00  6.15178075e+00  6.21126862e+00
  6.23315535e+00  6.33673387e+00  6.66635120e+00  6.67234904e+00  6.75743566e+00
  6.80896615e+00  6.91467913e+00  6.93311388e+00  7.08864133e+00  7.29583017e+00
  7.33252575e+00  7.48681598e+00  7.50386463e+00  7.58098420e+00  7.79296664e+00
  7.90581984e+00  8.19552631e+00  8.52664812e+00  1.54702108e+01  1.77258826e+01
  1.80844203e+01
Alpha MO coefficients                      R   N=       76176
  9.75211909e-01 -1.80301873e-03  4.37519101e-02 -8.03361128e-04  7.85330291e-04
  1.28950630e-03  1.09250621e-03 -4.05239171e-04 -1.38383748e-03 -1.26602331e-03
 -2.13983024e-03 -6.70090656e-04 -1.99041343e-04 -3.50863454e-05 -2.00207339e-05
  1.48849312e-05  6.20916812e-05  1.05993972e-05  2.08492375e-04  4.58441793e-04
 -5.49639620e-04 -4.67264968e-04  1.48003622e-04  1.33072515e-05 -2.17206394e-05
 -1.75296416e-05 -1.25503802e-06  1.57689440e-05  3.00970777e-05  1.36371589e-05
 -2.38498062e-03 -5.29039955e-05 -1.70674306e-04 -1.56216655e-04  1.79108477e-04
  7.31549556e-05 -9.16708532e-05 -3.03902118e-04 -8.39350725e-05  1.89715865e-05
  3.24212015e-04 -5.81130052e-05  8.74199476e-05  1.55091413e-04 -3.57460405e-04
 -1.77800514e-04  3.19728595e-04  6.59895215e-04 -2.21634998e-04 -7.41474067e-03
 -4.29351282e-05  8.42762471e-05  9.15860787e-05  6.36157965e-04 -1.42161125e-03
 -1.52680834e-03  1.57173972e-03  5.59858025e-04  2.22668138e-04  3.37450885e-05
 -1.03767796e-04  1.79478335e-04 -2.62833870e-05 -8.14477573e-05  3.05521437e-04
 -1.58373086e-03  1.62053475e-03  2.33874107e-05 -1.31012599e-03  6.25836062e-05
  9.88155139e-05 -1.23448277e-04  1.36958840e-05  2.82922333e-04 -8.99467898e-05
 -3.01388145e-05  1.12291857e-03  1.55430753e-04 -1.03791007e-04 -1.34280514e-04
 -6.27264409e-05 -7.86400386e-04 -1.14295910e-03  5.09072160e-04 -8.67842721e-04
 -2.13362294e-04 -1.92478269e-04 -1.52156428e-04 -2.17295156e-05  7.76831757e-04
  1.89382873e-05  4.55186414e-04  4.67219119e-05  8.82807159e-05  2.64944949e-05
  2.06172966e-03 -1.75942840e-05  7.66245411e-06  1.12819218e-05  7.19523829e-04
  6.98328304e-05 -8.41190623e-05  1.10323249e-03  4.90639482e-04  2.42927217e-04
 -1.12493406e-05 -3.08073232e-06  3.66700730e-06  1.85462903e-05  5.89819805e-06
 -2.42720948e-04 -5.67320277e-04  1.00118389e-04  6.07429118e-04 -3.07809715e-04
  3.14672835e-05  1.75918569e-05 -1.55741167e-05 -2.95848820e-06  3.62120744e-06
  1.00251870e-06 -3.15588185e-05  1.32245607e-04 -2.67957527e-05 -4.07490679e-05
 -3.41627328e-05 -1.33353646e-04 -6.57107438e-04  3.84638146e-04  4.48699789e-04
 -4.03789581e-04  3.58626570e-05 -1.38876572e-04 -4.48491608e-05  1.42082933e-04
 -3.46352105e-04  1.71904195e-04  7.97339904e-05  1.34960330e-05  2.03208460e-03
  1.18893226e-03  4.28870482e-06 -1.76801453e-05  9.21326574e-06  1.96324972e-04
 -7.09165133e-04 -2.71611378e-04 -2.32698513e-05  1.31439111e-05  1.29057038e-05
 -3.19966074e-05 -2.36444145e-05 -3.77554279e-06  1.73868171e-04 -4.63972411e-04
  5.75738328e-04  1.47435724e-05 -6.99783334e-05  1.19311814e-04 -1.27756326e-04
 -8.47603488e-05  1.35058934e-05  2.03000286e-03  1.19186500e-03 -1.54577172e-06
  9.08833831e-06 -1.81007922e-05  9.79204399e-05 -2.55545666e-04 -7.35122394e-04
  4.53754678e-05 -1.01085983e-05  7.70943587e-06 -5.82308483e-06  1.44689617e-05
 -4.63150600e-06 -4.87744235e-05  5.79297417e-04 -4.89941519e-04  1.24433235e-04
 -5.12499417e-05  1.23229928e-04 -6.21967330e-05 -7.59634406e-05 -1.21541779e-05
  5.95921075e-04  1.65564311e-03 -1.67998624e-05 -4.48500840e-06  7.71849136e-06
  1.78782021e-04  1.53755075e-05  2.70648394e-04  1.07700477e-05  1.34398767e-05
 -1.02526734e-06  1.33899372e-05 -1.07641564e-05 -6.60626482e-05  1.87552445e-04
 -3.43834529e-06  3.87996798e-04  3.60768070e-05 -1.45641100e-07 -3.17791656e-06
  1.03006007e-04 -3.83396185e-05 -1.99733590e-05 -6.39336074e-04 -2.42583525e-03
 -4.73336077e-06 -1.24614018e-05 -1.14120089e-05  2.77980933e-04  1.79857569e-04
  1.20352057e-04 -1.13393230e-05 -1.74487067e-05 -4.90915150e-06  2.52049183e-05
 -8.40385103e-06  8.78667963e-05 -2.77384796e-05  3.02588263e-04  3.02279788e-04
 -4.44373349e-05 -5.68302718e-05  1.61655330e-05  9.12607965e-05 -1.52657787e-05
 -1.22807376e-05  5.99802190e-04  1.66033100e-03 -1.85560468e-05  3.96635737e-06
 -7.38689265e-07  1.18640053e-04  3.02600114e-04 -2.38111266e-05 -1.21063922e-05
 -1.44443278e-05 -6.97933718e-06 -1.01397667e-05  9.62507615e-06 -6.64111310e-05
  9.94464474e-05  4.18113871e-04 -4.30846188e-05 -8.54442915e-05 -7.60181953e-05
 -1.89680495e-05  6.93763483e-06  2.68836123e-06  5.39415939e-04  3.41346453e-03
  5.03588022e-04 -2.36164920e-04 -6.07319835e-05 -8.65450417e-06 -1.26754363e-03
 -4.99118247e-04 -2.16037663e-04  5.60766234e-05  4.37356656e-06  1.01211289e-05
 -9.11080496e-05 -3.47578629e-05 -8.90208830e-05 -2.27970231e-04 -4.50216137e-04
 -3.90700894e-04 -1.74072078e-04  1.28514451e-04 -3.07209025e-05  2.24214103e-04
  2.34234682e-04 -2.49220197e-05  2.45440231e-04  7.87494101e-05  7.47369732e-03
 -1.28985722e-04  1.20441531e-04  1.45413244e-04  3.05319952e-05  4.25403318e-04
  4.09419639e-04 -8.34224237e-04  2.67220787e-03  2.79332546e-03  3.14028470e-05
 -6.47951237e-05  5.97934621e-05 -2.82582168e-05 -6.85296965e-05 -2.02284376e-04
  2.04052780e-04 -5.65344235e-05  2.40228396e-04  3.16695555e-04  2.37486255e-05
 -2.09861049e-05 -5.06919520e-05  1.56698054e-05  5.81664203e-05  2.96159223e-05
  2.81282331e-05  2.72511562e-03 -5.20203457e-04  3.87299763e-04  4.91123006e-04
  1.32037194e-04  3.76193790e-04  6.26028657e-04 -4.15007635e-04  3.62939960e-04
 -7.42288928e-05  2.53376360e-04 -1.46162314e-04  1.89793496e-04  3.19193130e-04
 -3.71623345e-04  2.87137578e-05  9.79952560e-01  4.14884208e-03  4.18440924e-02
 -1.32399511e-02  6.57336143e-04 -5.72030652e-04 -6.99833791e-04 -2.32608566e-03
  4.09286527e-04  8.92018100e-04 -5.66378178e-04  1.80612050e-03  1.88072673e-03
  9.56980356e-06  7.29520455e-05 -1.07309265e-05 -4.38382469e-05  5.54223635e-05
 -5.31420969e-04 -4.38522464e-06 -4.89830514e-04  8.77474017e-04  2.83588241e-04
  3.59057820e-04  5.08675296e-04 -3.22254033e-04  2.56535834e-04  4.76708261e-05
 -3.66543402e-04 -4.35058875e-04 -2.69490324e-03  1.75759460e-04  3.11497295e-04
  2.66367416e-04  4.10306423e-04  1.23346335e-03 -7.11979271e-04 -1.08507736e-03
  6.51390176e-04 -1.23782024e-03 -1.05455215e-03  1.07433895e-03 -7.82495666e-04
  1.50793578e-04  4.81693494e-04  1.08493818e-03  5.09544662e-03  3.36238002e-04
  5.36467258e-04  6.86312444e-03  2.37128204e-04  6.63318320e-05  1.46397774e-05
  7.02277891e-04  2.04110238e-04  5.05718166e-05  1.84188334e-03 -5.41963443e-05
 -4.36154200e-04 -3.08679509e-05  2.27424896e-05 -1.62509146e-05  4.09431262e-05
  3.92853964e-05  1.04289359e-03 -6.54464438e-04  2.46524581e-04 -1.39862193e-03
 -1.28107618e-03  2.28118133e-06  2.07479256e-04  1.16548500e-04 -8.36380702e-05
 -3.05986554e-05 -2.02575655e-04 -2.20048194e-04  1.37967332e-03  5.06660593e-04
  1.93116799e-04  8.19378547e-05 -2.29114631e-05  2.35770264e-04  3.04215531e-05
 -6.52560417e-05  2.25807693e-04 -1.30625472e-04  4.26073900e-04  5.84399032e-04
 -4.37666963e-04 -2.06291042e-04 -4.51969410e-04 -5.69142267e-04  1.34030078e-04
  3.84299390e-03 -1.02348811e-03  4.80068713e-05  2.48089399e-04 -4.34993435e-05
 -1.22101591e-04 -6.82463060e-05 -1.33084477e-04  1.01265747e-04  4.01420490e-06
  8.16537259e-05  1.92550933e-04 -6.29190834e-05 -2.65433600e-04  7.70629010e-05
  3.97857661e-04  2.52265156e-05  7.36799362e-05 -1.23880801e-04  8.14336840e-05
  3.72895007e-04 -7.46224363e-05  1.33956088e-04  3.85153877e-03 -1.02222080e-03
  1.06616602e-04 -2.17971283e-05  2.32029813e-04 -1.03680368e-04 -1.53384278e-04
 -4.27476069e-05 -1.79477396e-04 -1.50789067e-04  4.82748655e-05 -2.06958966e-05
  1.39115383e-05 -2.63578829e-04  1.46151890e-04  6.03267117e-05  3.73436679e-04
 -3.03296302e-04 -2.40936056e-04  5.60893411e-05  1.25302750e-04 -5.66810069e-05
  1.28658178e-05 -5.10272845e-04 -1.90431744e-03  2.08510419e-06  6.79692320e-06
  2.45684455e-06 -7.63956970e-04 -2.77079309e-04  2.14184863e-04  8.21187779e-05
 -8.12886059e-05 -4.73782094e-05 -7.94378278e-05 -6.80354882e-06  1.78451799e-04
 -5.95739286e-04 -1.96052496e-05 -3.29121018e-04  2.31962381e-04 -8.14945395e-05
 -2.23174390e-05 -2.59941477e-04 -1.91087140e-04 -1.81576946e-05 -1.43561649e-03
  1.80438273e-03 -6.87749635e-06  2.08487335e-06  3.84970427e-06 -9.04066350e-04
 -2.64842528e-04 -7.50001901e-05  5.74882356e-05  3.92354611e-05  7.76773086e-05
 -1.12091395e-04  9.20788908e-06  2.41299027e-05  1.82710937e-04 -2.27776910e-04
 -2.62791896e-04  1.11472458e-04  1.59853007e-05  6.09495118e-05 -1.86428093e-04
 -5.35183425e-05  1.26539306e-05 -5.06324850e-04 -1.91561721e-03  2.64333673e-06
  3.01435624e-06  5.89573903e-06 -8.34439398e-04  4.29186105e-05 -9.94835285e-05
  2.34567057e-05  3.19651002e-05 -2.20384501e-05 -6.21764526e-05 -1.26763228e-04
  1.78810281e-04 -5.05405857e-04 -4.47558780e-04  1.10290290e-04  1.56270247e-04
 -6.26781642e-05 -1.70273650e-05 -2.91983462e-04 -2.25218581e-04  6.47693528e-05
 -1.60578455e-03  2.28342053e-03  1.18082772e-04 -2.37009514e-05 -4.82298822e-05
  1.01651455e-03 -5.08502536e-04 -7.13845064e-04  4.95507832e-05  1.16192036e-04
  1.16879312e-05 -1.26555315e-04  6.95213299e-05  3.21050708e-04 -5.02516507e-04
  2.07474621e-05  1.27504673e-04  1.13429054e-04  1.88698716e-04  5.04912953e-05
 -2.61431773e-04  9.44748296e-05  4.23076276e-05  8.46652478e-05 -4.15379148e-05
  1.96143144e-03  8.92961535e-06 -7.44512519e-06 -9.38757557e-06 -2.08831976e-05
  1.12218282e-04  1.15399992e-04 -8.96298484e-04 -3.32156756e-04 -1.30252344e-04
  1.73536686e-05  2.01723184e-05  2.44942997e-05 -3.76575160e-05  9.98338183e-06
 -1.43199237e-04 -1.71292647e-04 -1.12737165e-04  3.05175384e-04 -6.91326985e-05
 -4.26360351e-06 -6.96786841e-06 -1.90365268e-06  9.87008019e-06 -1.23321150e-05
  4.07039282e-06  1.01497742e-05  1.69359129e-03 -1.72258702e-04  9.92429563e-05