Generated by Psi4
        SP                        DF-MP2                      6-311G**
Number of atoms                            I                9
Charge                                     I                0
Multiplicity                               I                1
Number of electrons                        I               26
Number of alpha electrons                  I               13
Number of beta electrons                   I               13
Number of basis functions                  I               90
Number of independent functions            I               90
Atomic numbers                             I   N=           9
           8           6           6           1           1           1
           1           1           1
Nuclear charges                            R   N=           9
  8.00000000e+00  6.00000000e+00  6.00000000e+00  1.00000000e+00  1.00000000e+00
  1.00000000e+00  1.00000000e+00  1.00000000e+00  1.00000000e+00
Current cartesian coordinates              R   N=          27
  1.68752886e+00 -7.93604193e-01 -1.13510193e+00  4.21494786e-01  7.67238718e-01
  6.62259468e-01 -2.35080944e+00  7.48866400e-02  5.72069408e-01  6.69713088e-01
  2.77880079e+00  2.08068888e-01  1.17267861e+00  4.62020093e-01  2.57460184e+00
 -3.09809069e+00  4.01281152e-01 -1.32345781e+00 -3.43222829e+00  1.20954654e+00
  1.91918330e+00 -2.59437289e+00 -1.92093426e+00  1.03576843e+00  3.47201157e+00
 -3.62682215e-01 -1.09621578e+00
Integer atomic weights                     I   N=           9
          16          12          12           1           1           1
           1           1           1
Real atomic weights                        R   N=           9
  1.59949146e+01  1.20000000e+01  1.20000000e+01  1.00782503e+00  1.00782503e+00
  1.00782503e+00  1.00782503e+00  1.00782503e+00  1.00782503e+00
Number of primitive shells                 I               87
Number of contracted shells                I               48
Pure/Cartesian d shells                    I                0
Pure/Cartesian f shells                    I                0
Highest angular momentum                   I                2
Largest degree of contraction              I                6
Shell types                                I   N=          48
           0           0           1           0           1           0
           1          -2           0           0           1           0
           1           0           1          -2           0           0
           1           0           1           0           1          -2
           0           0           0           1           0           0
           0           1           0           0           0           1
           0           0           0           1           0           0
           0           1           0           0           0           1
Number of primitives per shell             I   N=          48
           6           3           3           1           1           1
           1           1           6           3           3           1
           1           1           1           1           6           3
           3           1           1           1           1           1
           3           1           1           1           3           1
           1           1           3           1           1           1
           3           1           1           1           3           1
           1           1           3           1           1           1
Shell to atom map                          I   N=          48
           1           1           1           1           1           1
           1           1           2           2           2           2
           2           2           2           2           3           3
           3           3           3           3           3           3
           4           4           4           4           5           5
           5           5           6           6           6           6
           7           7           7           7           8           8
           8           8           9           9           9           9
Primitive exponents                        R   N=          87
  8.58850000e+03  1.29723000e+03  2.99296000e+02  8.73771000e+01  2.56789000e+01
  3.74004000e+00  4.21175000e+01  9.62837000e+00  2.85332000e+00  4.21175000e+01
  9.62837000e+00  2.85332000e+00  9.05661000e-01  9.05661000e-01  2.55611000e-01
  2.55611000e-01  1.29200000e+00  4.56324000e+03  6.82024000e+02  1.54973000e+02
  4.44553000e+01  1.30290000e+01  1.82773000e+00  2.09642000e+01  4.80331000e+00
  1.45933000e+00  2.09642000e+01  4.80331000e+00  1.45933000e+00  4.83456000e-01
  4.83456000e-01  1.45585000e-01  1.45585000e-01  6.26000000e-01  4.56324000e+03
  6.82024000e+02  1.54973000e+02  4.44553000e+01  1.30290000e+01  1.82773000e+00
  2.09642000e+01  4.80331000e+00  1.45933000e+00  2.09642000e+01  4.80331000e+00
  1.45933000e+00  4.83456000e-01  4.83456000e-01  1.45585000e-01  1.45585000e-01
  6.26000000e-01  3.38650000e+01  5.09479000e+00  1.15879000e+00  3.25840000e-01
  1.02741000e-01  7.50000000e-01  3.38650000e+01  5.09479000e+00  1.15879000e+00
  3.25840000e-01  1.02741000e-01  7.50000000e-01  3.38650000e+01  5.09479000e+00
  1.15879000e+00  3.25840000e-01  1.02741000e-01  7.50000000e-01  3.38650000e+01
  5.09479000e+00  1.15879000e+00  3.25840000e-01  1.02741000e-01  7.50000000e-01
  3.38650000e+01  5.09479000e+00  1.15879000e+00  3.25840000e-01  1.02741000e-01
  7.50000000e-01  3.38650000e+01  5.09479000e+00  1.15879000e+00  3.25840000e-01
  1.02741000e-01  7.50000000e-01
Contraction coefficients                   R   N=          87
  1.89515008e-03  1.43859006e-02  7.07320031e-02  2.40001011e-01  5.94797026e-01
  2.80802012e-01  1.13889012e-01  9.20811101e-01 -3.27447036e-03  3.65113974e-02
  2.37152983e-01  8.19701941e-01  1.00000000e+00  1.00000000e+00  1.00000000e+00
  1.00000000e+00  1.00000000e+00  1.96665025e-03  1.52306019e-02  7.61269097e-02
  2.60801033e-01  6.16462078e-01  2.21006028e-01  1.14660081e-01  9.19999648e-01
 -3.03068213e-03  4.02486927e-02  2.37593957e-01  8.15853851e-01  1.00000000e+00
  1.00000000e+00  1.00000000e+00  1.00000000e+00  1.00000000e+00  1.96665025e-03
  1.52306019e-02  7.61269097e-02  2.60801033e-01  6.16462078e-01  2.21006028e-01
  1.14660081e-01  9.19999648e-01 -3.03068213e-03  4.02486927e-02  2.37593957e-01
  8.15853851e-01  1.00000000e+00  1.00000000e+00  1.00000000e+00  1.00000000e+00
  1.00000000e+00  2.54938145e-02  1.90373109e-01  8.52161486e-01  1.00000000e+00
  1.00000000e+00  1.00000000e+00  2.54938145e-02  1.90373109e-01  8.52161486e-01
  1.00000000e+00  1.00000000e+00  1.00000000e+00  2.54938145e-02  1.90373109e-01
  8.52161486e-01  1.00000000e+00  1.00000000e+00  1.00000000e+00  2.54938145e-02
  1.90373109e-01  8.52161486e-01  1.00000000e+00  1.00000000e+00  1.00000000e+00
  2.54938145e-02  1.90373109e-01  8.52161486e-01  1.00000000e+00  1.00000000e+00
  1.00000000e+00  2.54938145e-02  1.90373109e-01  8.52161486e-01  1.00000000e+00
  1.00000000e+00  1.00000000e+00
Coordinates of each shell                  R   N=         144
  1.68752886e+00 -7.93604193e-01 -1.13510193e+00  1.68752886e+00 -7.93604193e-01
 -1.13510193e+00  1.68752886e+00 -7.93604193e-01 -1.13510193e+00  1.68752886e+00
 -7.93604193e-01 -1.13510193e+00  1.68752886e+00 -7.93604193e-01 -1.13510193e+00
  1.68752886e+00 -7.93604193e-01 -1.13510193e+00  1.68752886e+00 -7.93604193e-01
 -1.13510193e+00  1.68752886e+00 -7.93604193e-01 -1.13510193e+00  4.21494786e-01
  7.67238718e-01  6.62259468e-01  4.21494786e-01  7.67238718e-01  6.62259468e-01
  4.21494786e-01  7.67238718e-01  6.62259468e-01  4.21494786e-01  7.67238718e-01
  6.62259468e-01  4.21494786e-01  7.67238718e-01  6.62259468e-01  4.21494786e-01
  7.67238718e-01  6.62259468e-01  4.21494786e-01  7.67238718e-01  6.62259468e-01
  4.21494786e-01  7.67238718e-01  6.62259468e-01 -2.35080944e+00  7.48866400e-02
  5.72069408e-01 -2.35080944e+00  7.48866400e-02  5.72069408e-01 -2.35080944e+00
  7.48866400e-02  5.72069408e-01 -2.35080944e+00  7.48866400e-02  5.72069408e-01
 -2.35080944e+00  7.48866400e-02  5.72069408e-01 -2.35080944e+00  7.48866400e-02
  5.72069408e-01 -2.35080944e+00  7.48866400e-02  5.72069408e-01 -2.35080944e+00
  7.48866400e-02  5.72069408e-01  6.69713088e-01  2.77880079e+00  2.08068888e-01
  6.69713088e-01  2.77880079e+00  2.08068888e-01  6.69713088e-01  2.77880079e+00
  2.08068888e-01  6.69713088e-01  2.77880079e+00  2.08068888e-01  1.17267861e+00
  4.62020093e-01  2.57460184e+00  1.17267861e+00  4.62020093e-01  2.57460184e+00
  1.17267861e+00  4.62020093e-01  2.57460184e+00  1.17267861e+00  4.62020093e-01
  2.57460184e+00 -3.09809069e+00  4.01281152e-01 -1.32345781e+00 -3.09809069e+00
  4.01281152e-01 -1.32345781e+00 -3.09809069e+00  4.01281152e-01 -1.32345781e+00
 -3.09809069e+00  4.01281152e-01 -1.32345781e+00 -3.43222829e+00  1.20954654e+00
  1.91918330e+00 -3.43222829e+00  1.20954654e+00  1.91918330e+00 -3.43222829e+00
  1.20954654e+00  1.91918330e+00 -3.43222829e+00  1.20954654e+00  1.91918330e+00
 -2.59437289e+00 -1.92093426e+00  1.03576843e+00 -2.59437289e+00 -1.92093426e+00
  1.03576843e+00 -2.59437289e+00 -1.92093426e+00  1.03576843e+00 -2.59437289e+00
 -1.92093426e+00  1.03576843e+00  3.47201157e+00 -3.62682215e-01 -1.09621578e+00
  3.47201157e+00 -3.62682215e-01 -1.09621578e+00  3.47201157e+00 -3.62682215e-01
 -1.09621578e+00  3.47201157e+00 -3.62682215e-01 -1.09621578e+00
Total Energy                               R     -1.546363837927261e+02
Alpha Orbital Energies                     R   N=          90
 -2.05448408e+01 -1.12739798e+01 -1.12114695e+01 -1.34897921e+00 -1.01006119e+00
 -8.31032307e-01 -6.92824990e-01 -6.41987143e-01 -5.66241579e-01 -5.30177990e-01
 -5.22018645e-01 -4.86056652e-01 -4.39084355e-01  1.52598020e-01  1.82661445e-01
  2.08144865e-01  2.09890760e-01  2.35688098e-01  2.60970669e-01  3.60733683e-01
  3.80645108e-01  4.59980923e-01  4.60199914e-01  5.26388450e-01  5.50888271e-01
  6.01396502e-01  6.90612163e-01  7.50577885e-01  7.79026377e-01  7.92250185e-01
  8.13446866e-01  8.16944991e-01  8.41245012e-01  9.41091165e-01  1.01409084e+00
  1.07939511e+00  1.09641962e+00  1.16702962e+00  1.27753081e+00  1.37873577e+00
  1.50872536e+00  1.55783418e+00  1.61696212e+00  1.62206398e+00  1.72574092e+00
  1.73369834e+00  1.74736243e+00  1.76399877e+00  1.78234234e+00  1.85302039e+00
  1.90422148e+00  1.94778246e+00  2.00733608e+00  2.02202892e+00  2.09734749e+00
  2.25452964e+00  2.25499299e+00  2.31150506e+00  2.35858533e+00  2.43811965e+00
  2.54916380e+00  2.61521555e+00  2.68634751e+00  2.70737289e+00  2.74815947e+00
  2.81251742e+00  2.81979112e+00  2.85492234e+00  2.92757889e+00  2.93311087e+00
  2.94950228e+00  3.03017637e+00  3.15990447e+00  3.30483219e+00  3.48899294e+00
  3.56867052e+00  3.59208994e+00  3.69883255e+00  4.17690189e+00  4.18075727e+00
  4.22164948e+00  4.23069123e+00  4.36111992e+00  4.64657332e+00  5.43046941e+00
  5.81304618e+00  6.19968094e+00  2.49488829e+01  2.50969058e+01  5.15885584e+01
Alpha MO coefficients                      R   N=        8100
  5.51468355e-01  4.71675591e-01  7.97019501e-04  1.17772504e-03  9.80764078e-04
  5.55159869e-03 -3.43422395e-04 -4.37919665e-04 -3.54629962e-04 -8.37668799e-04
  2.37846185e-04 -3.80075601e-05 -8.80749280e-05  3.75849530e-05  8.40462842e-05
 -1.33050935e-04 -8.18135472e-05  2.13044962e-05 -3.12776968e-06 -2.65542157e-05
 -7.47694522e-06 -2.45378461e-05 -2.24261263e-05  4.56389463e-05  1.95267820e-04
 -1.06471172e-04 -1.45769844e-04  6.98391008e-04 -1.06473874e-04 -2.03812192e-04
 -1.76458285e-04  2.05191475e-05 -9.19339544e-05  6.51698868e-05 -4.89579578e-07
 -8.35658482e-05  1.01886886e-06 -1.08186589e-06 -4.73219456e-06  1.50228320e-06
  2.46569197e-06  1.79128703e-06  9.84737164e-07 -1.18652861e-05 -1.19831240e-05
 -2.93645373e-04 -6.23350650e-05 -9.84871867e-05 -8.45486853e-05 -8.48110787e-06
  7.46007476e-06 -1.08772408e-05  1.12441546e-05  1.04654317e-05  1.14950838e-05
 -8.31661585e-05  1.11327930e-05  1.19963095e-06  1.40232061e-05  3.06080940e-05
  1.14740058e-05 -8.33004942e-05  1.10372047e-05 -2.42946422e-06  3.07563162e-05
  1.35019303e-05  1.25089835e-05 -5.83887955e-05  8.74666492e-07 -2.34329588e-05
  9.03360107e-06 -1.13782069e-06 -8.17894322e-06  1.06466563e-04  5.10794112e-05
  2.18800027e-05 -1.06782353e-05 -1.50847920e-05  1.23916554e-05 -5.78853432e-05
  1.57059386e-06 -2.01780657e-05 -5.48566957e-06  1.37354375e-05  1.99720493e-04
  1.11825985e-04  5.28186040e-05 -1.11527446e-04  1.39096892e-05  3.74985674e-05
 -6.57548567e-05 -1.14893754e-04 -3.92850002e-05  5.77800089e-05  6.49003068e-05
  2.21969923e-04 -2.44911004e-04  3.03152029e-04  3.48932696e-04  5.88797426e-04
 -9.77837887e-05  1.48729788e-04  1.66181601e-04  4.38926284e-05 -1.13614852e-04
  1.56657602e-04 -3.64048357e-05 -1.01930348e-04  5.63495621e-01  4.66564967e-01
  5.10487486e-04 -5.16988247e-04 -6.14839222e-04  3.95069824e-03 -3.67039818e-04
  4.01942140e-04  4.71390499e-04 -1.90574001e-03  3.32386197e-04  2.12862484e-05
 -4.91990832e-05 -3.49565702e-05  1.52547142e-04 -1.70945524e-04  7.73671064e-06
  1.27214122e-04  2.89564515e-03  2.34628243e-03  1.34992760e-04  4.27681202e-05
  1.32112880e-05  2.41945971e-04  2.50277943e-04  3.73655873e-05 -1.62379122e-05
  6.43550726e-04  3.13550704e-04  1.09943014e-04  4.13594147e-05 -5.46279487e-05
 -1.55294382e-05 -3.24810952e-06  9.25153419e-05  2.46509253e-05  3.21758382e-04
  2.35294214e-04  2.48187389e-04 -3.12887641e-06 -4.26699528e-05 -2.80078393e-05
  3.21748563e-04  2.35059149e-04  2.47967487e-04 -5.99034007e-06 -2.98747207e-05
 -4.10612432e-05 -3.17050014e-06 -7.69152746e-06  2.90689448e-05  1.34828613e-05
 -1.18946664e-06  6.77027946e-06  2.03334674e-06 -2.21501010e-05 -1.16569630e-07
  2.46265090e-05  3.56232104e-06 -1.76380635e-06 -3.15921552e-06 -8.05161954e-06
  2.91549691e-05  1.10744818e-05  9.21607294e-06 -3.91771716e-06 -1.19188015e-05
 -4.76758373e-05 -1.78232856e-05 -1.42450831e-05 -1.19410469e-05 -8.62882034e-06
 -3.18072571e-06 -6.18600097e-06 -3.59783672e-06  2.53908556e-06  3.26019838e-06
  2.14415841e-05 -1.90081220e-05 -4.91333632e-06 -8.25871381e-07  7.85111936e-05
  1.08115323e-04  2.48178188e-05  1.27391456e-06 -4.05254137e-06  4.88972983e-06
 -2.28661224e-06  4.56666234e-06  6.84176051e-06  2.99787298e-03  2.54390130e-03
  1.44173845e-04  3.82936459e-05  6.90851374e-06 -2.39514313e-04  2.87473526e-04
  6.90426904e-05  6.54139011e-06 -6.20861039e-04  2.79842686e-04  6.58236320e-05
  5.22494255e-06  6.79928470e-05 -1.86050625e-06  8.24083131e-06 -1.07254864e-04
 -4.87658971e-05 -5.63331470e-01 -4.66533840e-01  5.62543672e-06 -7.02992019e-05
 -6.97910315e-05 -4.47170866e-03  2.35668826e-05  6.44227250e-05  5.77475604e-05
  1.80608464e-03  2.62864528e-04  4.87977124e-07 -5.54803771e-05 -3.10380717e-05
 -1.45779783e-06  1.22071453e-05  4.90304305e-05  2.35044079e-05  4.21486439e-06
  2.80925567e-05 -8.28294042e-06  7.93964932e-06  8.80422153e-06  4.17181987e-07
  4.22669708e-06  2.82182725e-05 -8.44068621e-06  9.26194068e-06  2.44496550e-06
  6.87007653e-06 -3.41642709e-04 -2.21482603e-04 -2.44529909e-04 -2.48788520e-05
 -8.04619317e-07 -1.41393652e-05 -3.54250186e-04 -2.14139172e-04 -1.78033630e-04
 -3.75310382e-05  1.14003641e-05  1.91825790e-05 -3.41627778e-04 -2.21058352e-04
 -2.44685113e-04 -2.07659876e-05 -1.88312570e-05  4.27550316e-06  4.25765034e-06
 -1.25626914e-04 -1.86491709e-06  2.72543223e-05  5.30143597e-06 -7.34794055e-07
  1.09205716e-01  1.82444671e-01 -1.11248314e-02 -2.31618865e-02 -2.02589387e-02
 -5.17894509e-01 -1.85329535e-02 -4.14209008e-02 -3.65228066e-02 -3.98790324e-01
  2.77620107e-03 -2.53842767e-02 -2.54081840e-02  1.99180615e-03  2.88088085e-03
 -6.16136490e-03 -3.76904881e-03 -9.09962522e-05  3.78547079e-02  6.21932563e-02
 -1.88911532e-02  2.18563035e-02  2.54240783e-02 -1.59277523e-01 -3.22883318e-02
  4.62067721e-02  5.21173675e-02  4.49937693e-03 -5.21665329e-03 -6.61177402e-03
 -5.36305482e-03 -2.71026457e-03  1.55091413e-02 -1.76461837e-02 -5.27585083e-04
  1.22723816e-02  8.49851939e-03  1.40047794e-02 -7.75998980e-03 -7.41982635e-06
  1.63679933e-03 -3.49591826e-02 -2.26524475e-02 -2.35708481e-03  2.49909408e-03
 -3.01111355e-02 -9.27291975e-03 -4.10118444e-03 -2.08806711e-03  3.24660736e-03
 -7.41118287e-05  9.99756655e-04 -5.16924035e-03 -2.19820843e-03 -1.51636077e-02
 -3.22357143e-02  2.85163503e-03  6.02821734e-04  9.36562729e-03 -1.13978197e-03
 -1.51571204e-02 -3.22240057e-02  2.84891223e-03  2.76077680e-03 -5.82726093e-04
  9.02176869e-03 -4.17877176e-03 -7.30196375e-03 -9.53137492e-04 -1.65898914e-03
  8.22746974e-04 -1.73674708e-03 -3.00874928e-03 -3.16760884e-03  4.09000309e-03
 -9.21950455e-04  1.19738881e-03  1.37808414e-03 -4.19269015e-03 -7.29856395e-03
 -9.35078546e-04 -1.04550926e-03 -2.01189264e-03  1.14377779e-03 -8.48096777e-02
 -7.11341204e-02 -3.80516173e-04  2.51402881e-02  4.33895732e-03 -1.14597868e-03
  2.77518160e-02  4.65886501e-02 -4.22446034e-02  1.12776090e-02  2.00558083e-02
 -1.34358393e-01 -6.85383088e-02  1.77624918e-02  3.20158609e-02 -1.25581211e-01
 -2.95260670e-02  1.10666863e-02  1.71325202e-02  2.97414075e-03 -3.44911880e-03
  3.15792101e-03 -3.55183947e-03 -4.59930673e-03 -6.48944389e-02 -1.07809891e-01
 -4.37478987e-02  3.26923360e-03  1.24695136e-02  2.83375706e-01 -7.89008702e-02
 -6.20845682e-03  1.06446764e-02  1.58431349e-01 -1.93154894e-02  4.85460017e-03
  8.82381731e-03 -6.81659510e-03  3.46125604e-03 -8.58550490e-04  9.41473420e-03
  7.78477672e-03 -8.20746600e-02 -1.35278497e-01  2.23065926e-02  7.04832752e-03
  2.17024214e-03  3.42196925e-01  4.96792825e-02  1.58066428e-02  4.94420615e-03
  1.92917437e-01  4.82359183e-03  5.81983748e-03  4.71016424e-03 -4.95717629e-03
  1.25183510e-03  6.35283702e-04  7.25498429e-03  4.78378813e-03  4.63960781e-02
  6.29787897e-02 -4.42622953e-03 -3.27338889e-03 -1.23753519e-02  3.39410723e-03
  4.63775424e-02  6.29624324e-02 -4.42170660e-03 -6.41412396e-03  2.10190061e-03
 -1.13898785e-02  5.67129934e-02  7.71124695e-02 -2.12270748e-03  6.31816104e-03
 -2.00657420e-03  1.39874920e-02  5.92077299e-02  7.66163759e-02 -1.55227440e-03
  8.77040935e-03 -7.97652600e-03 -9.72028227e-03  5.67101832e-02  7.70921842e-02
 -2.14852462e-03  2.64391474e-03  1.49093681e-02 -3.19875454e-03 -4.83621976e-02
 -5.46430124e-02 -5.08352408e-03  1.13510489e-02  3.69399426e-03  1.17640378e-03
  2.10792577e-02  3.54936665e-02 -4.43781951e-02  4.02052036e-02  4.88665404e-02
 -1.03672679e-01 -7.12844849e-02  6.34859984e-02  7.74223939e-02 -1.10309866e-01
 -3.68003023e-02  4.29991266e-02  4.99760997e-02  4.74885401e-03 -2.35914431e-03
  7.54854405e-03 -7.16241672e-03 -4.05415150e-03 -6.82846250e-02 -1.14171266e-01
  4.25948587e-02  2.82350967e-02  1.86092244e-02  3.02683156e-01  7.75903593e-02
  3.53487390e-02  1.81517355e-02  2.02563649e-01  3.58365028e-02  2.73889318e-02
  1.91993585e-02  7.19379913e-03 -1.32603498e-03  3.07093724e-04 -1.08324555e-02
 -6.27601785e-03  6.02159548e-02  9.97163679e-02  5.16017706e-02  1.63455598e-02
  5.06420179e-03 -2.53333726e-01  8.66894433e-02  2.75676424e-02  8.61439575e-03
 -1.74506538e-01  3.58014163e-02  1.02843530e-02  2.51957859e-03 -8.05501922e-03
  1.98303607e-03  6.22578712e-04  1.18552933e-02  7.66044817e-03  7.92942901e-02
  1.13278211e-01  9.53273553e-03 -9.07488509e-04 -1.55986892e-02  5.18465242e-03
  7.93062554e-02  1.13295180e-01  9.52552293e-03 -5.20907612e-03  4.20190775e-03
 -1.50432363e-02 -6.75696479e-02 -9.41777244e-02 -1.25609049e-02 -2.66224737e-03
  2.78324467e-03 -1.27283534e-02 -6.36056739e-02 -9.12937512e-02 -1.18778604e-02
 -5.01024754e-03  7.79994853e-03  8.74144753e-03 -6.75786893e-02 -9.42086230e-02
 -1.25823258e-02  7.35131165e-04 -1.28933031e-02  3.19088369e-03 -4.49374537e-02
 -5.72332479e-02 -1.59065391e-02  8.58471639e-03  6.49948442e-03  4.51749501e-03
  1.56931734e-02  2.67694420e-02  1.87868563e-01  1.23752716e-02 -2.82213065e-02
 -8.31097123e-02  2.91501830e-01  1.67925133e-02 -4.61452844e-02 -1.22619758e-01
  1.91798801e-01  1.60654483e-02 -2.54721682e-02 -7.78309406e-03  9.53355198e-03
 -2.58451653e-03  8.56752263e-03  1.35805435e-02 -4.66302687e-03 -7.14684224e-03
  1.47215591e-02  8.05156982e-02  7.54561796e-02  1.47879718e-02  2.09174489e-02
  1.40418189e-01  1.32619239e-01  2.38208758e-02  3.53475500e-02  6.55588030e-02
  5.64334675e-02 -4.79354330e-03  8.38815088e-03 -2.91742920e-02  6.59862563e-03
  5.24521114e-03 -6.38241018e-03 -1.05629537e-02 -3.15821388e-02  3.07910834e-02
  3.66941276e-02  2.37990144e-02 -4.98877151e-02  4.78821269e-02  5.72110011e-02
  4.90246189e-02 -1.90195308e-02  2.95701194e-02  3.29074934e-02  2.44344036e-03
 -9.89732332e-04  5.89377279e-03 -3.84091235e-03 -1.42738944e-03  5.42347728e-02
  7.26700841e-02  1.92179749e-02 -3.31961205e-04 -3.50124054e-03  5.15585254e-03
  5.40172398e-02  7.23752532e-02  1.91261745e-02 -2.13286914e-03  4.82150255e-03
 -3.32560964e-03 -7.09973102e-03 -1.23954649e-02 -4.81381779e-03 -3.05073310e-03
  2.01060083e-03  6.99068705e-04  5.10260636e-02  7.12916218e-02  1.87329430e-02
  3.86761507e-03 -3.20447369e-03 -3.99658239e-03 -7.42635015e-03 -1.28814131e-02
 -4.95293394e-03 -2.66189241e-03  8.39865561e-05  2.60960356e-03  1.34587529e-01
  2.01919200e-01  4.34628227e-02 -2.76402339e-02 -6.11518290e-03 -6.09849581e-05
 -6.35185123e-06 -1.03139506e-05  1.81495082e-02 -8.23049001e-02  8.39718033e-02
  2.23827622e-05  2.84073697e-02 -1.28820627e-01  1.31429218e-01  9.38520936e-05
  2.36834118e-02 -1.07574603e-01  1.09799686e-01  9.74910577e-03  1.00449475e-03
  1.94882127e-04  5.56272282e-03  1.43632578e-03 -3.34164130e-06 -5.03664546e-06
  2.22588032e-02 -1.02243011e-01  1.04693294e-01  1.87239890e-05  3.65453412e-02
 -1.67915190e-01  1.71968557e-01 -5.14275957e-05  2.12316422e-02 -9.72989384e-02
  9.96940940e-02  7.63024192e-03  8.04703722e-03  1.69285491e-03  7.43544948e-03
 -5.65624697e-03 -1.47362901e-05 -2.44538035e-05  1.34704594e-02 -6.26202523e-02
  6.40630644e-02  5.05419022e-05  2.19280387e-02 -1.01939632e-01  1.04272864e-01
  1.78967925e-04  1.14132334e-02 -5.28164726e-02  5.39801780e-02 -9.19373532e-03
  2.46830087e-03  6.56598161e-04 -3.79046843e-03 -4.53987218e-03 -9.62138053e-02
 -1.39199919e-01 -4.80417118e-02  3.30278058e-03  9.86821987e-03  1.67601947e-04
  9.63880713e-02  1.39432114e-01  4.80867227e-02 -5.17204218e-03 -1.26149789e-03
 -8.95499620e-03 -6.04161977e-02 -9.07779176e-02 -2.58246174e-02 -3.23574097e-03
 -1.78397829e-03 -6.81696212e-03  2.89987968e-04  4.54057988e-04  1.58403941e-04
  8.10295936e-04 -3.64636778e-03  3.66536565e-03  6.02450637e-02  9.04560954e-02
  2.57235486e-02  1.98908891e-03  7.38916535e-03  1.14819312e-03  9.72787179e-05
  1.26340946e-04  6.98365815e-05  1.83484586e-03 -8.43628831e-03  8.59950084e-03
  2.38360109e-02  4.04155929e-02  3.46242224e-02  1.37708901e-01  1.27528964e-01
 -1.21682628e-01  5.13406978e-02  2.10451620e-01  1.95236667e-01 -1.92049121e-01
  4.13236830e-02  1.86640605e-01  1.74071274e-01  2.41966085e-03  2.88898539e-03
  1.39722804e-02 -6.18050399e-03  3.54145580e-03  3.06985265e-03  4.38606919e-03
  1.10782156e-01 -2.48456831e-02 -4.77876511e-02 -1.00128402e-02  1.88040653e-01
 -4.91878738e-02 -8.79966073e-02 -5.11911019e-02  1.41175937e-01 -6.03151043e-03
 -3.58890040e-02  4.45726324e-03 -1.62425212e-02  1.10043095e-02 -1.36972442e-03
 -1.54654796e-02 -4.00067565e-03 -6.73508790e-03 -7.57250318e-02 -7.38915033e-02
 -5.63498848e-02  1.28375714e-02 -1.15668243e-01 -1.19087845e-01 -9.21813342e-02
  7.99904845e-02 -6.45021266e-02 -5.67578731e-02 -4.17816880e-02  7.21464402e-03
  2.69021584e-03 -1.05932436e-02 -1.17007096e-02 -4.90606466e-03 -5.41615696e-03
 -5.82501208e-03 -3.76518105e-03  3.22191248e-03 -1.84977925e-03 -1.32133612e-03
 -5.34617769e-03 -5.70169254e-03 -3.74235316e-03  2.96847885e-03 -7.03390032e-04
 -2.50234051e-03  6.28065998e-02  1.01989475e-01  2.85846348e-02 -3.15611966e-04
 -6.09113918e-03  7.36331767e-03 -2.89514232e-02 -5.86250009e-02 -2.39637774e-02
 -7.05773190e-03 -1.09329653e-03  4.38049032e-04  6.30105251e-02  1.02257281e-01
  2.85509249e-02 -3.13899735e-03  6.92426060e-03 -5.82599104e-03  2.80515470e-02
  5.98393957e-02 -1.68322636e-02 -1.07406385e-02  1.14669146e-02  1.35448349e-02
  6.43987423e-03  1.09218246e-02  6.89895264e-02 -4.46805179e-02 -5.95417676e-02
 -3.15821085e-02  1.05495038e-01 -7.10695434e-02 -9.37474473e-02 -6.13416475e-02
  8.85382815e-02 -6.03533413e-02 -7.95408536e-02 -5.10277298e-03  1.72190260e-03
 -6.38453534e-03  7.78545666e-03  3.96567953e-03 -8.35314276e-03 -1.36097823e-02
 -6.35075991e-02  2.01070841e-02  3.28683415e-02  3.67757723e-02 -1.09020404e-01
  3.42840618e-02  5.62357987e-02  5.69944739e-02 -6.96105812e-02  1.03469120e-02
  2.43806209e-02 -6.71187172e-03  2.23725706e-02 -1.45074195e-02  2.70206749e-03
  2.20274821e-02 -2.70051191e-03 -4.64645116e-03  9.24508565e-02 -9.54083721e-02
 -1.11786246e-01  1.69502319e-02  1.48234067e-01 -1.51101169e-01 -1.77409816e-01
 -7.15248565e-03  7.94824378e-02 -1.07066340e-01 -1.20060057e-01 -4.29524189e-03
  1.93366099e-02 -2.01705622e-02  1.22686646e-05  1.61812285e-02  1.53776737e-02
  2.51032078e-02  1.11337628e-02 -2.70511718e-03 -5.10562253e-04  1.60196017e-03
  1.50558038e-02  2.46890513e-02  1.07871580e-02 -3.00269209e-03  9.83486286e-04
  9.50912699e-05  5.28911985e-02  8.37013088e-02  3.22299681e-02  8.14023009e-03
 -6.29876346e-03  1.83941939e-03 -1.60796950e-01 -2.60804312e-01 -1.19643927e-01
 -9.57485294e-03  8.90211976e-03  1.09032363e-02  5.48377925e-02  8.66257622e-02
  3.33689301e-02  6.10883800e-03  3.45733501e-03 -7.82729833e-03  4.75383294e-02
  7.45308672e-02  3.66142653e-02 -6.48306614e-03 -7.27635639e-03 -5.84197815e-03
 -2.68885695e-05 -4.61813008e-05  2.16159663e-02 -9.85083466e-02  9.96470421e-02
  1.53048674e-04  3.31567580e-02 -1.51101339e-01  1.52841835e-01  1.70957514e-04
  3.22611957e-02 -1.46844455e-01  1.48619934e-01  7.60535053e-03  3.02716411e-03
  5.97451398e-04  5.32814920e-03 -9.66577910e-04 -2.79868508e-05 -4.35790248e-05
  7.35179729e-03 -3.44915370e-02  3.58004633e-02  1.03330057e-04  1.18284435e-02
 -5.56327521e-02  5.77951325e-02  2.75477654e-04  1.23194811e-02 -5.77353392e-02
  5.92940041e-02 -2.13031859e-03  1.75577636e-02  3.67234189e-03  6.24837085e-03
 -1.66188226e-02 -6.44570289e-08 -4.06653576e-07 -2.37871996e-02  1.10714020e-01
 -1.14254002e-01  1.07638228e-05 -3.78256152e-02  1.75937822e-01 -1.81561343e-01
 -1.02222639e-04 -3.07045596e-02  1.42492723e-01 -1.46772168e-01  2.21133228e-02
  1.31170547e-02  2.45922184e-03  1.70825805e-02 -6.71308552e-03 -3.70125478e-02
 -4.73572820e-02 -3.59807010e-02  1.23702673e-03  2.15110434e-03 -2.20842492e-04
  3.74194386e-02  4.80453542e-02  3.63230735e-02 -1.70946188e-03 -9.78758067e-05
 -1.85288445e-03  1.22032854e-01  1.85018036e-01  7.31193446e-02  4.74531645e-03
  3.40529098e-03  1.14861064e-02 -1.19086959e-03 -1.92529087e-03 -9.08184268e-04
 -1.35882397e-03  5.91739404e-03 -5.88174133e-03 -1.20958200e-01 -1.83330182e-01
 -7.23008108e-02 -2.73834170e-03 -1.22784410e-02 -2.53087373e-03  6.56245940e-05
  2.53978830e-05  1.33598465e-04  2.32561394e-03 -1.05947965e-02  1.07250360e-02
  1.92306808e-02  3.26235420e-02  8.36756089e-02  9.85921833e-02  7.88861069e-02
 -9.68701904e-02  1.24558418e-01  1.46762554e-01  1.17440184e-01 -1.88716072e-01
  1.06087057e-01  1.47970340e-01  1.22613668e-01 -3.48979971e-03  4.27827171e-04
  5.47112359e-03  4.87140014e-03  3.97096769e-03 -8.78816424e-03 -1.54309526e-02
 -1.13494701e-01 -8.22999601e-02 -5.61496639e-02  5.30037023e-02 -1.86612587e-01
 -1.37771149e-01 -9.47461009e-02  7.08937528e-03 -9.67306812e-02 -7.63418941e-02
 -5.38854572e-02 -1.52704053e-02 -1.71677837e-02  7.29284068e-03  3.05043643e-02
 -2.90538037e-03 -1.13850594e-02 -1.93952917e-02  1.22284785e-01  5.26323322e-02
  2.52136693e-02  5.78603669e-02  2.08564848e-01  8.53333617e-02  3.86969488e-02
  8.00926685e-02  1.18298411e-01  7.60197489e-02  4.89938724e-02 -1.16794416e-02
 -5.20264977e-03  3.33144832e-03  2.04325567e-02  4.40979735e-03 -7.07804360e-02
 -1.17510347e-01 -6.51060097e-02 -6.07196979e-03  4.66618863e-03 -5.81495651e-03
 -7.04254240e-02 -1.16883114e-01 -6.47124325e-02 -3.61209315e-03 -6.74898547e-03
  5.80466705e-03 -4.70879626e-02 -7.11590704e-02 -5.33720690e-02  4.09413339e-03
  3.29162394e-03 -4.59774896e-03 -5.01767632e-03 -2.28913784e-02 -1.58371397e-02
  6.67326358e-03  3.93279396e-03  2.41732129e-03 -4.76591600e-02 -7.20669823e-02
 -5.39811569e-02  5.54646539e-03 -3.56421543e-03  2.30976644e-03  7.18475355e-02
  1.39944531e-01  2.96286096e-02 -1.75453664e-02  3.18644889e-03  6.92565557e-03
 -4.64868080e-06 -7.92488824e-06  3.41979940e-02 -1.56206969e-01  1.59700554e-01
  2.80447864e-05  5.13508068e-02 -2.34546999e-01  2.39794309e-01 -1.82079584e-05
  5.70145937e-02 -2.60595514e-01  2.66393418e-01  4.95803704e-03  5.01592037e-03
  1.09499180e-03  4.74613816e-03 -3.47001309e-03  2.57865401e-06  3.91714034e-06
 -1.71575565e-02  7.86509547e-02 -8.03767221e-02  4.95333824e-06 -2.64300926e-02
  1.21078139e-01 -1.23742404e-01 -1.08099876e-04 -1.06381261e-02  4.92714983e-02
 -5.04513649e-02 -3.44275222e-02 -5.33399153e-03 -1.08100341e-03 -2.02932309e-02
 -3.29062201e-03 -1.59509451e-05 -2.71868671e-05  6.89826569e-03 -3.13092503e-02
  3.20230023e-02  7.37214494e-05  1.06690926e-02 -4.82944424e-02  4.93958134e-02
  2.23650850e-04  1.22364465e-03 -4.92917302e-03  5.47100376e-03 -8.26508882e-03
 -9.92485227e-03 -2.07721512e-03 -8.52211176e-03  7.27938017e-03  1.00000151e-01
  2.10478830e-01  9.78816666e-02 -4.02543340e-03 -1.28545250e-02 -1.21337442e-03
 -1.00091916e-01 -2.10648821e-01 -9.79533903e-02  6.24631441e-03  2.57680146e-03
  1.17218345e-02 -4.10484336e-02 -8.56931098e-02 -7.38946443e-02 -4.06970173e-03
 -1.68174089e-03 -4.71421380e-03  9.52810888e-05  8.25289854e-05  1.68976851e-05
  6.71151962e-04 -3.08245032e-03  3.13035251e-03  4.08843808e-02  8.54747780e-02