11
 energy: -17.229540889287 gnorm: 0.000276726623 xtb: 6.5.0 (97a52f5)
N           -1.35640777106154        0.14538037060867        0.12089475998359
C           -0.47989357277802       -0.87708744938173       -0.03019951011875
C            0.91802528634263       -0.69504591635755        0.55378965453853
N            1.16783690914779        0.57584325508422        1.21731784547511
O           -0.80835940664008       -1.93191122973965       -0.52627198689559
H            1.63465170943108       -0.94640651105520       -0.24076306398873
H            0.96504499156978       -1.47534249666761        1.32309166632667
H           -2.24687586216257        0.03517680321210       -0.34000480651848
H           -1.05016813953944        1.08902310055776        0.27717586108515
H            2.16732243001690        0.70925447580202        1.32827645247857
H            0.84422641567347        1.35281760793698        0.64707214763394
