      -----------------------------------------------------------      
     |                   =====================                   |     
     |                           x T B                           |     
     |                   =====================                   |     
     |                         S. Grimme                         |     
     |          Mulliken Center for Theoretical Chemistry        |     
     |                    University of Bonn                     |     
      -----------------------------------------------------------      

   * xtb version 6.5.0 (97a52f5) compiled by 'conda@d2599ee0d4f4' on 2022-05-15

   xtb is free software: you can redistribute it and/or modify it under
   the terms of the GNU Lesser General Public License as published by
   the Free Software Foundation, either version 3 of the License, or
   (at your option) any later version.
   
   xtb is distributed in the hope that it will be useful,
   but WITHOUT ANY WARRANTY; without even the implied warranty of
   MERCHANTABILITY or FITNESS FOR A PARTICULAR PURPOSE.  See the
   GNU Lesser General Public License for more details.
   
   Cite this work as:
   * C. Bannwarth, E. Caldeweyher, S. Ehlert, A. Hansen, P. Pracht,
     J. Seibert, S. Spicher, S. Grimme, WIREs Comput. Mol. Sci., 2020, 11,
     e01493. DOI: 10.1002/wcms.1493
   
   for GFN2-xTB:
   * C. Bannwarth, S. Ehlert and S. Grimme., J. Chem. Theory Comput., 2019,
     15, 1652-1671. DOI: 10.1021/acs.jctc.8b01176
   for GFN1-xTB:
   * S. Grimme, C. Bannwarth, P. Shushkov, J. Chem. Theory Comput., 2017,
     13, 1989-2009. DOI: 10.1021/acs.jctc.7b00118
   for GFN0-xTB:
   * P. Pracht, E. Caldeweyher, S. Ehlert, S. Grimme, ChemRxiv, 2019, preprint.
     DOI: 10.26434/chemrxiv.8326202.v1
   for GFN-FF:
   * S. Spicher and S. Grimme, Angew. Chem. Int. Ed., 2020, 59, 15665-15673.
     DOI: 10.1002/anie.202004239
   
   for ALPB and GBSA implicit solvation:
   * S. Ehlert, M. Stahn, S. Spicher, S. Grimme, J. Chem. Theory Comput.,
     2021, 17, 4250-4261. DOI: 10.1021/acs.jctc.1c00471
   
   for DFT-D4:
   * E. Caldeweyher, C. Bannwarth and S. Grimme, J. Chem. Phys., 2017,
     147, 034112. DOI: 10.1063/1.4993215
   * E. Caldeweyher, S. Ehlert, A. Hansen, H. Neugebauer, S. Spicher,
     C. Bannwarth and S. Grimme, J. Chem. Phys., 2019, 150, 154122.
     DOI: 10.1063/1.5090222
   * E. Caldeweyher, J.-M. Mewes, S. Ehlert and S. Grimme, Phys. Chem. Chem. Phys.
     2020, 22, 8499-8512. DOI: 10.1039/D0CP00502A
   
   for sTDA-xTB:
   * S. Grimme and C. Bannwarth, J. Chem. Phys., 2016, 145, 054103.
     DOI: 10.1063/1.4959605
   
   in the mass-spec context:
   * V. Asgeirsson, C. Bauer and S. Grimme, Chem. Sci., 2017, 8, 4879.
     DOI: 10.1039/c7sc00601b
   * J. Koopman and S. Grimme, ACS Omega 2019, 4, 12, 15120-15133.
     DOI: 10.1021/acsomega.9b02011
   
   for metadynamics refer to:
   * S. Grimme, J. Chem. Theory Comput., 2019, 155, 2847-2862
     DOI: 10.1021/acs.jctc.9b00143
   
   for SPH calculations refer to:
   * S. Spicher and S. Grimme, J. Chem. Theory Comput., 2021, 17, 1701-1714
     DOI: 10.1021/acs.jctc.0c01306
   
   with help from (in alphabetical order)
   P. Atkinson, C. Bannwarth, F. Bohle, G. Brandenburg, E. Caldeweyher
   M. Checinski, S. Dohm, S. Ehlert, S. Ehrlich, I. Gerasimov, C. Hölzer
   A. Katbashev, J. Koopman, C. Lavigne, S. Lehtola, F. März, M. Müller,
   F. Musil, H. Neugebauer, J. Pisarek, C. Plett, P. Pracht, F. Pultar,
   J. Seibert, P. Shushkov, S. Spicher, M. Stahn, M. Steiner, T. Strunk,
   J. Stückrath, T. Rose, and J. Unsleber
   
 * started run on 2023/11/18 at 08:08:13.345     

           -------------------------------------------------
          |                Calculation Setup                |
           -------------------------------------------------

          program call               : /home/liuchw/anaconda3/envs/xtbenv/bin/xtb --gfn 2 --chrg 0 --uhf 0 25_27_Index_0-opt-2-3-300_preQMOPTprefit_xyzformat.xyz --opt --input xtb-opt-2-3-300_constr.txt
          hostname                   : node165.bme.utexas.edu
          coordinate file            : 25_27_Index_0-opt-2-3-300_preQMOPTprefit_xyzformat.xyz
          omp threads                :                    64

   ID    Z sym.   atoms
    1    7 N      1, 4
    2    6 C      2, 3
    3    8 O      5
    4    1 H      6-11
constraining angle 1 2 3 4 to  299.9727194°, actual value:  -60.0272806°
constraining angle 8 1 2 3 to  175.0124760°, actual value:  175.0124760°
constraining angle 8 1 2 5 to  350.0309622°, actual value:   -9.9690378°
constraining angle 9 1 2 5 to  197.9860029°, actual value: -162.0139971°
constraining angle 9 1 2 3 to   22.9675167°, actual value:   22.9675167°
constraining angle 6 3 4 11 to   78.2831269°, actual value:   78.2831269°
constraining angle 7 3 4 11 to  198.7793382°, actual value: -161.2206618°
constraining angle 6 3 4 10 to  321.7162384°, actual value:  -38.2837616°
constraining angle 7 3 4 10 to   82.2124497°, actual value:   82.2124497°

           -------------------------------------------------
          |                 G F N 2 - x T B                 |
           -------------------------------------------------

        Reference                      10.1021/acs.jctc.8b01176
      * Hamiltonian:
        H0-scaling (s, p, d)           1.850000    2.230000    2.230000
        zeta-weighting                 0.500000
      * Dispersion:
        s8                             2.700000
        a1                             0.520000
        a2                             5.000000
        s9                             5.000000
      * Repulsion:
        kExp                           1.500000    1.000000
        rExp                           1.000000
      * Coulomb:
        alpha                          2.000000
        third order                    shell-resolved
        anisotropic                    true
        a3                             3.000000
        a5                             4.000000
        cn-shift                       1.200000
        cn-exp                         4.000000
        max-rad                        5.000000

q/qsh data taken from xtbrestart
CAMM data taken from xtbrestart

          ...................................................
          :                      SETUP                      :
          :.................................................:
          :  # basis functions                  26          :
          :  # atomic orbitals                  26          :
          :  # shells                           16          :
          :  # electrons                        30          :
          :  max. iterations                   250          :
          :  Hamiltonian                  GFN2-xTB          :
          :  restarted?                       true          :
          :  GBSA solvation                  false          :
          :  PC potential                    false          :
          :  electronic temp.          300.0000000     K    :
          :  accuracy                    1.0000000          :
          :  -> integral cutoff          0.2500000E+02      :
          :  -> integral neglect         0.1000000E-07      :
          :  -> SCF convergence          0.1000000E-05 Eh   :
          :  -> wf. convergence          0.1000000E-03 e    :
          :  Broyden damping             0.4000000          :
          ...................................................

 iter      E             dE          RMSdq      gap      omega  full diag
   1    -17.4074758 -0.174075E+02  0.125E+00    4.24       0.0  T
   2    -17.4076962 -0.220396E-03  0.724E-01    4.31       1.0  T
   3    -17.4076692  0.270182E-04  0.107E-01    4.29       1.0  T
   4    -17.4077518 -0.825606E-04  0.283E-02    4.32       1.1  T
   5    -17.4077528 -0.989665E-06  0.158E-02    4.32       1.9  T
   6    -17.4077532 -0.390173E-06  0.400E-03    4.32       7.5  T
   7    -17.4077532 -0.189918E-07  0.124E-03    4.32      24.3  T
   8    -17.4077532 -0.909374E-09  0.349E-04    4.32      86.4  T
   9    -17.4077532 -0.123652E-09  0.909E-05    4.32     331.6  T

   *** convergence criteria satisfied after 9 iterations ***

         #    Occupation            Energy/Eh            Energy/eV
      -------------------------------------------------------------
         1        2.0000           -0.6966971             -18.9581
       ...           ...                  ...                  ...
         9        2.0000           -0.5178177             -14.0905
        10        2.0000           -0.5034064             -13.6984
        11        2.0000           -0.4854951             -13.2110
        12        2.0000           -0.4785143             -13.0210
        13        2.0000           -0.4239295             -11.5357
        14        2.0000           -0.3984886             -10.8434
        15        2.0000           -0.3849256             -10.4744 (HOMO)
        16                         -0.2263303              -6.1588 (LUMO)
        17                          0.0006079               0.0165
        18                          0.0335928               0.9141
        19                          0.0932440               2.5373
        20                          0.1144845               3.1153
       ...                                ...                  ...
        26                          0.5622119              15.2986
      -------------------------------------------------------------
                  HL-Gap            0.1585952 Eh            4.3156 eV
             Fermi-level           -0.3056279 Eh           -8.3166 eV

 SCC (total)                   0 d,  0 h,  0 min,  1.766 sec
 SCC setup                      ...        0 min,  0.048 sec (  2.694%)
 Dispersion                     ...        0 min,  0.082 sec (  4.641%)
 classical contributions        ...        0 min,  0.050 sec (  2.822%)
 integral evaluation            ...        0 min,  0.119 sec (  6.740%)
 iterations                     ...        0 min,  1.153 sec ( 65.287%)
 molecular gradient             ...        0 min,  0.314 sec ( 17.792%)
 printout                       ...        0 min,  0.000 sec (  0.007%)

         :::::::::::::::::::::::::::::::::::::::::::::::::::::
         ::                     SUMMARY                     ::
         :::::::::::::::::::::::::::::::::::::::::::::::::::::
         :: total energy             -17.230879704726 Eh    ::
         :: gradient norm              0.054481240491 Eh/a0 ::
         :: HOMO-LUMO gap              4.315596242241 eV    ::
         ::.................................................::
         :: SCC energy               -17.407753183573 Eh    ::
         :: -> isotropic ES            0.050766975123 Eh    ::
         :: -> anisotropic ES          0.002811572153 Eh    ::
         :: -> anisotropic XC          0.009103898036 Eh    ::
         :: -> dispersion             -0.005188487734 Eh    ::
         :: repulsion energy           0.176869562960 Eh    ::
         :: add. restraining           0.000000000000 Eh    ::
         :: total charge               0.000000000000 e     ::
         :::::::::::::::::::::::::::::::::::::::::::::::::::::

      ----------------------------------------------------------- 
     |                   =====================                   |
     |                        A N C O P T                        |
     |                   =====================                   |
     |               Approximate Normal Coordinate               |
     |                Rational Function Optimizer                |
      ----------------------------------------------------------- 

          ...................................................
          :                      SETUP                      :
          :.................................................:
          :   optimization level            normal          :
          :   max. optcycles                   200          :
          :   ANC micro-cycles                  20          :
          :   degrees of freedom                27          :
          :.................................................:
          :   RF solver                   davidson          :
          :   write xtbopt.log                true          :
          :   linear?                        false          :
          :   energy convergence         0.5000000E-05 Eh   :
          :   grad. convergence          0.1000000E-02 Eh/α :
          :   maximium RF displ.         1.0000000          :
          :   Hlow (freq-cutoff)         0.1000000E-01      :
          :   Hmax (freq-cutoff)         5.0000000          :
          :   S6 in model hess.         20.0000000          :
          ...................................................

generating ANC from model Hessian ...
Using Lindh-Hessian (1995)
 Shifting diagonal of input Hessian by    0.0000000000000000     
 Lowest  eigenvalues of input Hessian
    0.000000    0.000000    0.000000    0.000000    0.000000    0.000000
    0.013854    0.021520    0.048126    0.060396    0.070850    0.099548
    0.116801    0.133614    0.223378    0.270072    0.363126    0.421392
 Highest eigenvalues
    6.031800    8.243204    8.917879   11.348579   14.143306   24.668053


........................................................................
.............................. CYCLE    1 ..............................
........................................................................
   1    -17.4077532 -0.174078E+02  0.235E-05    4.32       0.0  T
   2    -17.4077532 -0.319744E-12  0.125E-05    4.32    2408.8  T
   3    -17.4077532 -0.461853E-13  0.285E-06    4.32   10575.6  T
     SCC iter.                  ...        0 min,  0.281 sec
     gradient                   ...        0 min,  0.191 sec
 * total energy  :   -17.2308797 Eh     change       -0.1416112E-10 Eh
   gradient norm :     0.0544810 Eh/α   predicted     0.0000000E+00 (-100.00%)
   displ. norm   :     0.2299938 α      lambda       -0.5298397E-02
   maximum displ.:     0.1402241 α      in ANC's #2, #5, #6, ...

........................................................................
.............................. CYCLE    2 ..............................
........................................................................
   1    -17.4215247 -0.174215E+02  0.282E-01    4.58       0.0  T
   2    -17.4215683 -0.436321E-04  0.164E-01    4.53       1.0  T
   3    -17.4215638  0.453861E-05  0.490E-02    4.54       1.0  T
   4    -17.4215750 -0.112790E-04  0.747E-03    4.52       4.0  T
   5    -17.4215752 -0.133589E-06  0.370E-03    4.53       8.1  T
   6    -17.4215752 -0.208397E-07  0.998E-04    4.53      30.2  T
   7    -17.4215752 -0.784873E-09  0.230E-04    4.53     131.2  T
     SCC iter.                  ...        0 min,  0.590 sec
     gradient                   ...        0 min,  0.209 sec
 * total energy  :   -17.2340301 Eh     change       -0.3150400E-02 Eh
   gradient norm :     0.0411180 Eh/α   predicted    -0.2789339E-02 ( -11.46%)
   displ. norm   :     0.1387201 α      lambda       -0.9348998E-03
   maximum displ.:     0.1147394 α      in ANC's #2, #1, #3, ...

........................................................................
.............................. CYCLE    3 ..............................
........................................................................
   1    -17.4252925 -0.174253E+02  0.844E-02    4.63       0.0  T
   2    -17.4253023 -0.984031E-05  0.483E-02    4.61       1.0  T
   3    -17.4253027 -0.359180E-06  0.189E-02    4.61       1.6  T
   4    -17.4253032 -0.534629E-06  0.325E-03    4.61       9.3  T
   5    -17.4253033 -0.298396E-07  0.152E-03    4.61      19.9  T
   6    -17.4253033 -0.521186E-08  0.394E-04    4.61      76.6  T
   7    -17.4253033 -0.105288E-09  0.139E-04    4.61     217.5  T
     SCC iter.                  ...        0 min,  0.585 sec
     gradient                   ...        0 min,  0.211 sec
 * total energy  :   -17.2336704 Eh     change        0.3596984E-03 Eh
   gradient norm :     0.1793966 Eh/α   predicted    -0.4764462E-03 (-232.46%)
   displ. norm   :     0.0660847 α      lambda       -0.1522945E-02
   maximum displ.:     0.0498137 α      in ANC's #2, #1, #3, ...

........................................................................
.............................. CYCLE    4 ..............................
........................................................................
   1    -17.4255382 -0.174255E+02  0.353E-02    4.63       0.0  T
   2    -17.4255390 -0.787681E-06  0.202E-02    4.63       1.5  T
   3    -17.4255390 -0.304811E-07  0.556E-03    4.63       5.4  T
   4    -17.4255391 -0.370249E-07  0.879E-04    4.63      34.3  T
   5    -17.4255391 -0.409898E-09  0.296E-04    4.63     101.7  T
     SCC iter.                  ...        0 min,  0.401 sec
     gradient                   ...        0 min,  0.211 sec
 * total energy  :   -17.2343538 Eh     change       -0.6833856E-03 Eh
   gradient norm :     0.0274143 Eh/α   predicted    -0.7647995E-03 (  11.91%)
   displ. norm   :     0.0336707 α      lambda       -0.1473734E-03
   maximum displ.:     0.0237549 α      in ANC's #2, #5, #4, ...

........................................................................
.............................. CYCLE    5 ..............................
........................................................................
   1    -17.4244449 -0.174244E+02  0.314E-02    4.59       0.0  T
   2    -17.4244459 -0.942678E-06  0.186E-02    4.60       1.6  T
   3    -17.4244459  0.227259E-07  0.728E-03    4.60       4.1  T
   4    -17.4244460 -0.185555E-06  0.102E-03    4.60      29.6  T
   5    -17.4244460 -0.195256E-08  0.521E-04    4.60      57.9  T
   6    -17.4244460 -0.352763E-09  0.157E-04    4.60     192.2  T
     SCC iter.                  ...        0 min,  0.448 sec
     gradient                   ...        0 min,  0.199 sec
 * total energy  :   -17.2343641 Eh     change       -0.1026905E-04 Eh
   gradient norm :     0.0305997 Eh/α   predicted    -0.7377043E-04 ( 618.38%)
   displ. norm   :     0.0183396 α      lambda       -0.9096718E-04
   maximum displ.:     0.0142481 α      in ANC's #1, #2, #4, ...

........................................................................
.............................. CYCLE    6 ..............................
........................................................................
   1    -17.4245269 -0.174245E+02  0.127E-02    4.60       0.0  T
   2    -17.4245270 -0.849547E-07  0.714E-03    4.60       4.2  T
   3    -17.4245270 -0.171976E-08  0.184E-03    4.60      16.4  T
   4    -17.4245270 -0.450974E-08  0.349E-04    4.60      86.4  T
   5    -17.4245270 -0.223643E-09  0.162E-04    4.60     185.7  T
     SCC iter.                  ...        0 min,  0.483 sec
     gradient                   ...        0 min,  0.267 sec
 * total energy  :   -17.2344015 Eh     change       -0.3742268E-04 Eh
   gradient norm :     0.0095501 Eh/α   predicted    -0.4549812E-04 (  21.58%)
   displ. norm   :     0.0234626 α      lambda       -0.1966489E-04
   maximum displ.:     0.0171469 α      in ANC's #2, #1, #3, ...

........................................................................
.............................. CYCLE    7 ..............................
........................................................................
   1    -17.4248575 -0.174249E+02  0.126E-02    4.62       0.0  T
   2    -17.4248577 -0.241889E-06  0.734E-03    4.61       4.1  T
   3    -17.4248577 -0.982214E-08  0.302E-03    4.61      10.0  T
   4    -17.4248577 -0.107044E-07  0.457E-04    4.61      65.9  T
   5    -17.4248577 -0.835488E-09  0.225E-04    4.61     134.1  T
     SCC iter.                  ...        0 min,  0.627 sec
     gradient                   ...        0 min,  0.345 sec
 * total energy  :   -17.2344058 Eh     change       -0.4268607E-05 Eh
   gradient norm :     0.0066919 Eh/α   predicted    -0.9838387E-05 ( 130.48%)
   displ. norm   :     0.0048836 α      lambda       -0.7221788E-05
   maximum displ.:     0.0028214 α      in ANC's #2, #4, #5, ...

........................................................................
.............................. CYCLE    8 ..............................
........................................................................
   1    -17.4248734 -0.174249E+02  0.449E-03    4.61       0.0  T
   2    -17.4248734 -0.917368E-08  0.262E-03    4.61      11.5  T
   3    -17.4248734  0.180655E-08  0.817E-04    4.61      36.9  T
   4    -17.4248734 -0.376846E-08  0.120E-04    4.61     252.0  T
     SCC iter.                  ...        0 min,  0.522 sec
     gradient                   ...        0 min,  0.361 sec
 * total energy  :   -17.2344096 Eh     change       -0.3831840E-05 Eh
   gradient norm :     0.0012349 Eh/α   predicted    -0.3611028E-05 (  -5.76%)
   displ. norm   :     0.0060421 α      lambda       -0.1073976E-05
   maximum displ.:     0.0042313 α      in ANC's #1, #8, #3, ...

........................................................................
.............................. CYCLE    9 ..............................
........................................................................
   1    -17.4247805 -0.174248E+02  0.468E-03    4.61       0.0  T
   2    -17.4247805 -0.120906E-07  0.273E-03    4.61      11.0  T
   3    -17.4247805  0.172425E-08  0.941E-04    4.61      32.0  T
   4    -17.4247805 -0.446767E-08  0.134E-04    4.61     224.3  T
     SCC iter.                  ...        0 min,  0.453 sec
     gradient                   ...        0 min,  0.277 sec
 * total energy  :   -17.2344101 Eh     change       -0.5046375E-06 Eh
   gradient norm :     0.0022004 Eh/α   predicted    -0.5365607E-06 (   6.33%)
   displ. norm   :     0.0036954 α      lambda       -0.7412500E-06
   maximum displ.:     0.0020173 α      in ANC's #3, #1, #2, ...

........................................................................
.............................. CYCLE   10 ..............................
........................................................................
   1    -17.4248098 -0.174248E+02  0.198E-03    4.61       0.0  T
   2    -17.4248098 -0.319736E-08  0.113E-03    4.61      26.6  T
   3    -17.4248098 -0.126821E-09  0.331E-04    4.61      91.0  T
   4    -17.4248098 -0.204121E-09  0.553E-05    4.61     545.5  T
     SCC iter.                  ...        0 min,  0.411 sec
     gradient                   ...        0 min,  0.299 sec
 * total energy  :   -17.2344105 Eh     change       -0.3856967E-06 Eh
   gradient norm :     0.0005313 Eh/α   predicted    -0.3718872E-06 (  -3.58%)
   displ. norm   :     0.0019582 α      lambda       -0.1357421E-06
   maximum displ.:     0.0010786 α      in ANC's #3, #2, #4, ...

   *** GEOMETRY OPTIMIZATION CONVERGED AFTER 10 ITERATIONS ***

------------------------------------------------------------------------
 total energy gain   :        -0.0035308 Eh       -2.2156 kcal/mol
 total RMSD          :         0.1204723 a0        0.0638 Å
 total power (kW/mol):        -0.9270034 (step)   -0.9692 (real)
------------------------------------------------------------------------

 ANCopt (total)                0 d,  0 h,  0 min,  9.565 sec
 optimizer setup                ...        0 min,  0.000 sec (  0.002%)
 model hessian                  ...        0 min,  0.016 sec (  0.170%)
 ANC generation                 ...        0 min,  0.013 sec (  0.138%)
 coordinate transformation      ...        0 min,  0.000 sec (  0.002%)
 single point calculation       ...        0 min,  9.255 sec ( 96.765%)
 optimization log               ...        0 min,  0.011 sec (  0.118%)
 hessian update                 ...        0 min,  0.265 sec (  2.774%)
 rational function              ...        0 min,  0.002 sec (  0.017%)

================
 final structure:
================
11
 xtb: 6.5.0 (97a52f5)
N           -1.45068922276342       -0.07223911166881        0.31031674726891
C           -0.39651858247106       -0.74324584250373       -0.21318515163562
C            0.82831867793465       -0.69114433178415        0.69294929732589
N            1.22994180828079        0.70332480033513        0.89052101896732
O           -0.45297678250148       -1.38728535146790       -1.23445457908451
H            1.61566265491119       -1.32818166742274        0.26976260303110
H            0.53968583922439       -1.09880243473009        1.66816829777533
H           -2.28174248797492        0.01333560353311       -0.25424441293912
H           -1.27006858494476        0.64817122145359        0.98970532685555
H            2.19123615333544        0.74584594609282        1.21168003190917
H            1.20255351696923        1.19192315816269       -0.00083917947397

 Bond Distances (Angstroems)
 ---------------------------
N1-C2=1.3548         N1-H8=1.0083         N1-H9=1.0066         C2-N1=1.3548         C2-C3=1.5245         C2-O5=1.2087         
C3-C2=1.5245         C3-N4=1.4645         C3-H6=1.0976         C3-H7=1.0957         N4-C3=1.4645         N4-H10=1.0144        
N4-H11=1.0169        O5-C2=1.2087         H6-C3=1.0976         H7-C3=1.0957         H8-N1=1.0083         H9-N1=1.0066         
H10-N4=1.0144        H11-N4=1.0169        
 C  H  Rav=1.0967 sigma=0.0010  Rmin=1.0957  Rmax=1.0976     2
 C  C  Rav=1.5245 sigma=0.0000  Rmin=1.5245  Rmax=1.5245     1
 N  H  Rav=1.0115 sigma=0.0042  Rmin=1.0066  Rmax=1.0169     4
 N  C  Rav=1.4097 sigma=0.0549  Rmin=1.3548  Rmax=1.4645     2
 O  C  Rav=1.2087 sigma=0.0000  Rmin=1.2087  Rmax=1.2087     1

 selected bond angles (degree)
 --------------------
H8-N1-C2=117.84                H9-N1-C2=118.40                H9-N1-H8=117.71                C3-C2-N1=112.24                
O5-C2-N1=123.64                O5-C2-C3=123.91                N4-C3-C2=109.45                H6-C3-C2=109.11                
H6-C3-N4=114.07                H7-C3-C2=107.74                H7-C3-N4=107.84                H7-C3-H6=108.43                
H10-N4-C3=110.03               H11-N4-C3=109.38               H11-N4-H10=106.43              

 selected dihedral angles (degree)
 ---------------------------------
C3-C2-N1-H8=174.99            C3-C2-N1-H9= 22.92            O5-C2-N1-H8=350.05            O5-C2-N1-H9=197.99            
N4-C3-C2-N1=300.00            N4-C3-C2-O5=124.95            H6-C3-C2-N1=174.54            H6-C3-C2-O5=359.49            
H7-C3-C2-N1= 57.02            H7-C3-C2-O5=241.97            H10-N4-C3-C2=199.14           H10-N4-C3-H6=321.69           
H10-N4-C3-H7= 82.19           H11-N4-C3-C2=315.72           H11-N4-C3-H6= 78.27           H11-N4-C3-H7=198.77           
           -------------------------------------------------
          |                Final Singlepoint                |
           -------------------------------------------------

          ...................................................
          :                      SETUP                      :
          :.................................................:
          :  # basis functions                  26          :
          :  # atomic orbitals                  26          :
          :  # shells                           16          :
          :  # electrons                        30          :
          :  max. iterations                   250          :
          :  Hamiltonian                  GFN2-xTB          :
          :  restarted?                      false          :
          :  GBSA solvation                  false          :
          :  PC potential                    false          :
          :  electronic temp.          300.0000000     K    :
          :  accuracy                    1.0000000          :
          :  -> integral cutoff          0.2500000E+02      :
          :  -> integral neglect         0.1000000E-07      :
          :  -> SCF convergence          0.1000000E-05 Eh   :
          :  -> wf. convergence          0.1000000E-03 e    :
          :  Broyden damping             0.4000000          :
          ...................................................

 iter      E             dE          RMSdq      gap      omega  full diag
   1    -17.4248098 -0.174248E+02  0.261E-05    4.61       0.0  T
   2    -17.4248098 -0.133227E-11  0.144E-05    4.61    2092.9  T
   3    -17.4248098 -0.152767E-12  0.806E-06    4.61    3740.5  T

   *** convergence criteria satisfied after 3 iterations ***

         #    Occupation            Energy/Eh            Energy/eV
      -------------------------------------------------------------
         1        2.0000           -0.7027388             -19.1225
       ...           ...                  ...                  ...
         9        2.0000           -0.5188849             -14.1196
        10        2.0000           -0.5063457             -13.7784
        11        2.0000           -0.4860603             -13.2264
        12        2.0000           -0.4784616             -13.0196
        13        2.0000           -0.4246585             -11.5555
        14        2.0000           -0.3979554             -10.8289
        15        2.0000           -0.3857606             -10.4971 (HOMO)
        16                         -0.2163530              -5.8873 (LUMO)
        17                          0.0138079               0.3757
        18                          0.0509908               1.3875
        19                          0.0980669               2.6685
        20                          0.1218518               3.3158
       ...                                ...                  ...
        26                          0.6488799              17.6569
      -------------------------------------------------------------
                  HL-Gap            0.1694076 Eh            4.6098 eV
             Fermi-level           -0.3010568 Eh           -8.1922 eV

 SCC (total)                   0 d,  0 h,  0 min,  0.881 sec
 SCC setup                      ...        0 min,  0.017 sec (  1.917%)
 Dispersion                     ...        0 min,  0.072 sec (  8.156%)
 classical contributions        ...        0 min,  0.040 sec (  4.573%)
 integral evaluation            ...        0 min,  0.097 sec ( 11.046%)
 iterations                     ...        0 min,  0.366 sec ( 41.570%)
 molecular gradient             ...        0 min,  0.288 sec ( 32.687%)
 printout                       ...        0 min,  0.000 sec (  0.021%)

         :::::::::::::::::::::::::::::::::::::::::::::::::::::
         ::                     SUMMARY                     ::
         :::::::::::::::::::::::::::::::::::::::::::::::::::::
         :: total energy             -17.234410474217 Eh    ::
         :: gradient norm              0.000531249848 Eh/a0 ::
         :: HOMO-LUMO gap              4.609815294758 eV    ::
         ::.................................................::
         :: SCC energy               -17.424809756726 Eh    ::
         :: -> isotropic ES            0.049732820122 Eh    ::
         :: -> anisotropic ES          0.002271745608 Eh    ::
         :: -> anisotropic XC          0.008747851762 Eh    ::
         :: -> dispersion             -0.005219579416 Eh    ::
         :: repulsion energy           0.190391437783 Eh    ::
         :: add. restraining           0.000004248175 Eh    ::
         :: total charge               0.000000000000 e     ::
         :::::::::::::::::::::::::::::::::::::::::::::::::::::

           -------------------------------------------------
          |                Property Printout                |
           -------------------------------------------------

    * Orbital Energies and Occupations

         #    Occupation            Energy/Eh            Energy/eV
      -------------------------------------------------------------
         1        2.0000           -0.7027388             -19.1225
       ...           ...                  ...                  ...
         3        2.0000           -0.6441225             -17.5275
         4        2.0000           -0.6072871             -16.5251
         5        2.0000           -0.5838349             -15.8870
         6        2.0000           -0.5662619             -15.4088
         7        2.0000           -0.5503760             -14.9765
         8        2.0000           -0.5405241             -14.7084
         9        2.0000           -0.5188849             -14.1196
        10        2.0000           -0.5063457             -13.7784
        11        2.0000           -0.4860603             -13.2264
        12        2.0000           -0.4784616             -13.0196
        13        2.0000           -0.4246585             -11.5555
        14        2.0000           -0.3979554             -10.8289
        15        2.0000           -0.3857606             -10.4971 (HOMO)
        16                         -0.2163530              -5.8873 (LUMO)
        17                          0.0138079               0.3757
        18                          0.0509908               1.3875
        19                          0.0980669               2.6685
        20                          0.1218518               3.3158
        21                          0.1612870               4.3888
        22                          0.1913346               5.2065
        23                          0.2230631               6.0699
        24                          0.2356277               6.4118
        25                          0.3423919               9.3170
        26                          0.6488799              17.6569
      -------------------------------------------------------------
                  HL-Gap            0.1694076 Eh            4.6098 eV
             Fermi-level           -0.3010568 Eh           -8.1922 eV

     #   Z          covCN         q      C6AA      α(0)
     1   7 N        2.640    -0.271    27.026     7.721
     2   6 C        2.744     0.282    22.230     7.720
     3   6 C        3.736    -0.014    20.908     6.525
     4   7 N        2.630    -0.344    28.856     7.978
     5   8 O        0.858    -0.419    22.074     6.299
     6   1 H        0.924     0.038     2.474     2.460
     7   1 H        0.924     0.055     2.262     2.352
     8   1 H        0.860     0.191     1.155     1.683
     9   1 H        0.860     0.198     1.118     1.656
    10   1 H        0.860     0.146     1.428     1.872
    11   1 H        0.860     0.140     1.474     1.902

 Mol. C6AA /au·bohr⁶  :       1030.272207
 Mol. C8AA /au·bohr⁸  :      21568.682240
 Mol. α(0) /au        :         48.167709


Wiberg/Mayer (AO) data.
largest (>0.10) Wiberg bond orders for each atom

 ---------------------------------------------------------------------------
     #   Z sym  total        # sym  WBO       # sym  WBO       # sym  WBO
 ---------------------------------------------------------------------------
     1   7 N    3.359 --     2 C    1.249     8 H    0.943     9 H    0.940
                             5 O    0.198
     2   6 C    3.948 --     5 O    1.722     1 N    1.249     3 C    0.955
     3   6 C    3.985 --     4 N    1.015     6 H    0.972     7 H    0.960
                             2 C    0.955
     4   7 N    2.995 --     3 C    1.015    11 H    0.967    10 H    0.965
     5   8 O    2.022 --     2 C    1.722     1 N    0.198
     6   1 H    0.999 --     3 C    0.972
     7   1 H    0.997 --     3 C    0.960
     8   1 H    0.964 --     1 N    0.943
     9   1 H    0.961 --     1 N    0.940
    10   1 H    0.979 --     4 N    0.965
    11   1 H    0.980 --     4 N    0.967
 ---------------------------------------------------------------------------

Topologies differ in total number of bonds
Writing topology from bond orders to xtbtopo.mol

molecular dipole:
                 x           y           z       tot (Debye)
 q only:       -0.131       0.860       0.913
   full:        0.115       1.004       0.810       3.292
molecular quadrupole (traceless):
                xx          xy          yy          xz          yz          zz
 q only:        5.475      -1.835      -2.677      -0.843      -3.922      -2.798
  q+dip:        8.461      -2.749      -4.219      -0.721      -5.745      -4.242
   full:        8.161      -2.303      -3.610      -0.638      -6.114      -4.551

           -------------------------------------------------
          |                Geometry Summary                 |
           -------------------------------------------------

      molecular mass/u    :       74.0819276
   center of mass at/Å    :       -0.0423839      -0.4105014       0.0910699
  moments of inertia/u·Å² :        0.5678511E+02   0.1247813E+03   0.1605949E+03
rotational constants/cm⁻¹ :        0.2968671E+00   0.1350974E+00   0.1049699E+00

 * 9 selected distances

     #   Z          #   Z                                           value/Å
     1   7 N        2   6 C                                       1.3548359
     3   6 C        4   7 N                                       1.4645410 (max)
     2   6 C        5   8 O                                       1.2087042
     3   6 C        6   1 H                                       1.0976403
     3   6 C        7   1 H                                       1.0956945
     1   7 N        8   1 H                                       1.0083164
     1   7 N        9   1 H                                       1.0065704 (min)
     4   7 N       10   1 H                                       1.0144152
     4   7 N       11   1 H                                       1.0168587

 * 4 distinct bonds (by element types)

   Z      Z             #   av. dist./Å        max./Å        min./Å
   1 H    6 C           2     1.0966674     1.0976403     1.0956945
   1 H    7 N           4     1.0115402     1.0168587     1.0065704
   6 C    7 N           2     1.4096884     1.4645410     1.3548359
   6 C    8 O           1     1.2087042     1.2087042     1.2087042


optimized geometry written to: xtbopt.xyz


           -------------------------------------------------
          | TOTAL ENERGY              -17.234410474217 Eh   |
          | GRADIENT NORM               0.000531249848 Eh/α |
          | HOMO-LUMO GAP               4.609815294758 eV   |
           -------------------------------------------------
########################################################################
[WARNING] Runtime exception occurred
-1- restart_readRestart: Number of electron missmatch in restart file.
########################################################################

------------------------------------------------------------------------
 * finished run on 2023/11/18 at 08:08:25.958     
------------------------------------------------------------------------
 total:
 * wall-time:     0 d,  0 h,  0 min, 12.612 sec
 *  cpu-time:     0 d,  0 h,  4 min, 29.047 sec
 * ratio c/w:    21.332 speedup
 SCF:
 * wall-time:     0 d,  0 h,  0 min,  1.766 sec
 *  cpu-time:     0 d,  0 h,  0 min, 32.541 sec
 * ratio c/w:    18.425 speedup
 ANC optimizer:
 * wall-time:     0 d,  0 h,  0 min, 10.482 sec
 *  cpu-time:     0 d,  0 h,  3 min, 51.335 sec
 * ratio c/w:    22.071 speedup

