Generated by Psi4
        SP                           RHF                         MINIX
Number of atoms                            I               24
Charge                                     I                0
Multiplicity                               I                1
Number of electrons                        I              106
Number of alpha electrons                  I               53
Number of beta electrons                   I               53
Number of basis functions                  I               84
Number of independent functions            I               84
Atomic numbers                             I   N=          24
           6           6           6           8           6           8
           6           7           6           6           6           1
           6           1           6           1           6           8
           1           1           1           1           1           1
Nuclear charges                            R   N=          24
  6.00000000e+00  6.00000000e+00  6.00000000e+00  8.00000000e+00  6.00000000e+00
  8.00000000e+00  6.00000000e+00  7.00000000e+00  6.00000000e+00  6.00000000e+00
  6.00000000e+00  1.00000000e+00  6.00000000e+00  1.00000000e+00  6.00000000e+00
  1.00000000e+00  6.00000000e+00  8.00000000e+00  1.00000000e+00  1.00000000e+00
  1.00000000e+00  1.00000000e+00  1.00000000e+00  1.00000000e+00
Current cartesian coordinates              R   N=          72
 -3.74537723e-01 -1.58810298e+00 -3.63085459e-01 -2.41619783e+00 -3.01010515e-01
  7.61301586e-01 -4.80840213e+00 -1.73191114e+00  1.16608092e+00 -6.62046051e+00
 -2.05390373e-01  2.14269138e+00 -2.16165172e+00  2.25559996e+00  1.47845265e+00
 -5.05387756e+00 -3.97010276e+00  6.67571170e-01  1.87877171e+00 -3.10270173e-01
 -7.66353014e-01  4.46127143e+00  3.16134569e+00 -5.15208412e-01  4.37283225e+00
 -9.93973085e-01 -1.84822122e+00  5.99591802e+00  1.36440512e+00 -1.63638292e+00
  2.07133480e+00  2.21610468e+00 -1.06515361e-02 -6.08296845e-01 -3.55663068e+00
 -8.85027814e-01  1.10554973e-01  3.53910194e+00  1.09521619e+00 -3.73012440e+00
  3.26074529e+00  2.34923845e+00 -8.98148433e+00 -1.44334996e+00  2.57165921e+00
  5.06088153e+00  4.93655441e+00 -1.67876750e-01  5.19920948e+00 -3.18322080e+00
 -2.88114552e+00  8.15908751e+00  1.73460247e+00 -2.31706227e+00  3.13133614e-01
  5.50007074e+00  1.65495307e+00 -8.75717384e+00 -2.97497298e+00  3.94360038e+00
 -1.02991904e+01 -5.51571462e-02  3.35022638e+00 -9.75835074e+00 -2.15804438e+00
  7.92860012e-01  4.01113867e+00 -4.72693807e+00 -2.97468696e+00  7.01750396e+00
 -3.30869862e+00 -3.57505295e+00
Integer atomic weights                     I   N=          24
          12          12          12          16          12          16
          12          14          12          12          12           1
          12           1          12           1          12          16
           1           1           1           1           1           1
Real atomic weights                        R   N=          24
  1.20000000e+01  1.20000000e+01  1.20000000e+01  1.59949146e+01  1.20000000e+01
  1.59949146e+01  1.20000000e+01  1.40030740e+01  1.20000000e+01  1.20000000e+01
  1.20000000e+01  1.00782503e+00  1.20000000e+01  1.00782503e+00  1.20000000e+01
  1.00782503e+00  1.20000000e+01  1.59949146e+01  1.00782503e+00  1.00782503e+00
  1.00782503e+00  1.00782503e+00  1.00782503e+00  1.00782503e+00
Number of primitive shells                 I              162
Number of contracted shells                I               54
Pure/Cartesian d shells                    I                0
Pure/Cartesian f shells                    I                0
Highest angular momentum                   I                1
Largest degree of contraction              I                3
Shell types                                I   N=          54
           0           0           1           0           0           1
           0           0           1           0           0           1
           0           0           1           0           0           1
           0           0           1           0           0           1
           0           0           1           0           0           1
           0           0           1           0           0           0
           1           0           0           0           1           0
           0           0           1           0           0           1
           0           0           0           0           0           0
Number of primitives per shell             I   N=          54
           3           3           3           3           3           3
           3           3           3           3           3           3
           3           3           3           3           3           3
           3           3           3           3           3           3
           3           3           3           3           3           3
           3           3           3           3           3           3
           3           3           3           3           3           3
           3           3           3           3           3           3
           3           3           3           3           3           3
Shell to atom map                          I   N=          54
           1           1           1           2           2           2
           3           3           3           4           4           4
           5           5           5           6           6           6
           7           7           7           8           8           8
           9           9           9          10          10          10
          11          11          11          12          13          13
          13          14          15          15          15          16
          17          17          17          18          18          18
          19          20          21          22          23          24
Primitive exponents                        R   N=         162
  1.53172260e+02  2.30730300e+01  4.92329000e+00  6.61661200e+00  5.25856000e-01
  1.69958000e-01  4.91292000e+00  9.97616000e-01  2.32685000e-01  1.53172260e+02
  2.30730300e+01  4.92329000e+00  6.61661200e+00  5.25856000e-01  1.69958000e-01
  4.91292000e+00  9.97616000e-01  2.32685000e-01  1.53172260e+02  2.30730300e+01
  4.92329000e+00  6.61661200e+00  5.25856000e-01  1.69958000e-01  4.91292000e+00
  9.97616000e-01  2.32685000e-01  2.81866580e+02  4.24160000e+01  9.09562000e+00
  1.17893260e+01  9.12894000e-01  2.86661000e-01  8.27414000e+00  1.71546300e+00
  3.83013000e-01  1.53172260e+02  2.30730300e+01  4.92329000e+00  6.61661200e+00
  5.25856000e-01  1.69958000e-01  4.91292000e+00  9.97616000e-01  2.32685000e-01
  2.81866580e+02  4.24160000e+01  9.09562000e+00  1.17893260e+01  9.12894000e-01
  2.86661000e-01  8.27414000e+00  1.71546300e+00  3.83013000e-01  1.53172260e+02
  2.30730300e+01  4.92329000e+00  6.61661200e+00  5.25856000e-01  1.69958000e-01
  4.91292000e+00  9.97616000e-01  2.32685000e-01  2.18364490e+02  3.25988900e+01
  6.91739000e+00  8.91942600e+00  7.06141000e-01  2.25054000e-01  6.55627200e+00
  1.34907900e+00  3.12209000e-01  1.53172260e+02  2.30730300e+01  4.92329000e+00
  6.61661200e+00  5.25856000e-01  1.69958000e-01  4.91292000e+00  9.97616000e-01
  2.32685000e-01  1.53172260e+02  2.30730300e+01  4.92329000e+00  6.61661200e+00
  5.25856000e-01  1.69958000e-01  4.91292000e+00  9.97616000e-01  2.32685000e-01
  1.53172260e+02  2.30730300e+01  4.92329000e+00  6.61661200e+00  5.25856000e-01
  1.69958000e-01  4.91292000e+00  9.97616000e-01  2.32685000e-01  7.03406300e+00
  1.06475600e+00  2.36559000e-01  1.53172260e+02  2.30730300e+01  4.92329000e+00
  6.61661200e+00  5.25856000e-01  1.69958000e-01  4.91292000e+00  9.97616000e-01
  2.32685000e-01  7.03406300e+00  1.06475600e+00  2.36559000e-01  1.53172260e+02
  2.30730300e+01  4.92329000e+00  6.61661200e+00  5.25856000e-01  1.69958000e-01
  4.91292000e+00  9.97616000e-01  2.32685000e-01  7.03406300e+00  1.06475600e+00
  2.36559000e-01  1.53172260e+02  2.30730300e+01  4.92329000e+00  6.61661200e+00
  5.25856000e-01  1.69958000e-01  4.91292000e+00  9.97616000e-01  2.32685000e-01
  2.81866580e+02  4.24160000e+01  9.09562000e+00  1.17893260e+01  9.12894000e-01
  2.86661000e-01  8.27414000e+00  1.71546300e+00  3.83013000e-01  7.03406300e+00
  1.06475600e+00  2.36559000e-01  7.03406300e+00  1.06475600e+00  2.36559000e-01
  7.03406300e+00  1.06475600e+00  2.36559000e-01  7.03406300e+00  1.06475600e+00
  2.36559000e-01  7.03406300e+00  1.06475600e+00  2.36559000e-01  7.03406300e+00
  1.06475600e+00  2.36559000e-01
Contraction coefficients                   R   N=         162
  7.07400095e-02  3.95380053e-01  6.63311089e-01 -8.13799884e-02  5.74852918e-01
  5.02412928e-01  1.09930928e-01  4.62712695e-01  6.27513586e-01  7.07400095e-02
  3.95380053e-01  6.63311089e-01 -8.13799884e-02  5.74852918e-01  5.02412928e-01
  1.09930928e-01  4.62712695e-01  6.27513586e-01  7.07400095e-02  3.95380053e-01
  6.63311089e-01 -8.13799884e-02  5.74852918e-01  5.02412928e-01  1.09930928e-01
  4.62712695e-01  6.27513586e-01  6.90600291e-02  3.93159166e-01  6.65669281e-01
 -8.08199297e-02  5.82089494e-01  4.97159568e-01  1.24271003e-01  4.76594010e-01
  6.13044013e-01  7.07400095e-02  3.95380053e-01  6.63311089e-01 -8.13799884e-02
  5.74852918e-01  5.02412928e-01  1.09930928e-01  4.62712695e-01  6.27513586e-01
  6.90600291e-02  3.93159166e-01  6.65669281e-01 -8.08199297e-02  5.82089494e-01
  4.97159568e-01  1.24271003e-01  4.76594010e-01  6.13044013e-01  7.07400095e-02
  3.95380053e-01  6.63311089e-01 -8.13799884e-02  5.74852918e-01  5.02412928e-01
  1.09930928e-01  4.62712695e-01  6.27513586e-01  6.78700100e-02  3.90202057e-01
  6.70083099e-01 -8.08899713e-02  5.67201799e-01  5.11091818e-01  1.15918975e-01
  4.69957900e-01  6.18447868e-01  7.07400095e-02  3.95380053e-01  6.63311089e-01
 -8.13799884e-02  5.74852918e-01  5.02412928e-01  1.09930928e-01  4.62712695e-01
  6.27513586e-01  7.07400095e-02  3.95380053e-01  6.63311089e-01 -8.13799884e-02
  5.74852918e-01  5.02412928e-01  1.09930928e-01  4.62712695e-01  6.27513586e-01
  7.07400095e-02  3.95380053e-01  6.63311089e-01 -8.13799884e-02  5.74852918e-01
  5.02412928e-01  1.09930928e-01  4.62712695e-01  6.27513586e-01  7.04520124e-02
  4.07826072e-01  6.47752114e-01  7.07400095e-02  3.95380053e-01  6.63311089e-01
 -8.13799884e-02  5.74852918e-01  5.02412928e-01  1.09930928e-01  4.62712695e-01
  6.27513586e-01  7.04520124e-02  4.07826072e-01  6.47752114e-01  7.07400095e-02
  3.95380053e-01  6.63311089e-01 -8.13799884e-02  5.74852918e-01  5.02412928e-01
  1.09930928e-01  4.62712695e-01  6.27513586e-01  7.04520124e-02  4.07826072e-01
  6.47752114e-01  7.07400095e-02  3.95380053e-01  6.63311089e-01 -8.13799884e-02
  5.74852918e-01  5.02412928e-01  1.09930928e-01  4.62712695e-01  6.27513586e-01
  6.90600291e-02  3.93159166e-01  6.65669281e-01 -8.08199297e-02  5.82089494e-01
  4.97159568e-01  1.24271003e-01  4.76594010e-01  6.13044013e-01  7.04520124e-02
  4.07826072e-01  6.47752114e-01  7.04520124e-02  4.07826072e-01  6.47752114e-01
  7.04520124e-02  4.07826072e-01  6.47752114e-01  7.04520124e-02  4.07826072e-01
  6.47752114e-01  7.04520124e-02  4.07826072e-01  6.47752114e-01  7.04520124e-02
  4.07826072e-01  6.47752114e-01
Coordinates of each shell                  R   N=         162
 -3.74537723e-01 -1.58810298e+00 -3.63085459e-01 -3.74537723e-01 -1.58810298e+00
 -3.63085459e-01 -3.74537723e-01 -1.58810298e+00 -3.63085459e-01 -2.41619783e+00
 -3.01010515e-01  7.61301586e-01 -2.41619783e+00 -3.01010515e-01  7.61301586e-01
 -2.41619783e+00 -3.01010515e-01  7.61301586e-01 -4.80840213e+00 -1.73191114e+00
  1.16608092e+00 -4.80840213e+00 -1.73191114e+00  1.16608092e+00 -4.80840213e+00
 -1.73191114e+00  1.16608092e+00 -6.62046051e+00 -2.05390373e-01  2.14269138e+00
 -6.62046051e+00 -2.05390373e-01  2.14269138e+00 -6.62046051e+00 -2.05390373e-01
  2.14269138e+00 -2.16165172e+00  2.25559996e+00  1.47845265e+00 -2.16165172e+00
  2.25559996e+00  1.47845265e+00 -2.16165172e+00  2.25559996e+00  1.47845265e+00
 -5.05387756e+00 -3.97010276e+00  6.67571170e-01 -5.05387756e+00 -3.97010276e+00
  6.67571170e-01 -5.05387756e+00 -3.97010276e+00  6.67571170e-01  1.87877171e+00
 -3.10270173e-01 -7.66353014e-01  1.87877171e+00 -3.10270173e-01 -7.66353014e-01
  1.87877171e+00 -3.10270173e-01 -7.66353014e-01  4.46127143e+00  3.16134569e+00
 -5.15208412e-01  4.46127143e+00  3.16134569e+00 -5.15208412e-01  4.46127143e+00
  3.16134569e+00 -5.15208412e-01  4.37283225e+00 -9.93973085e-01 -1.84822122e+00
  4.37283225e+00 -9.93973085e-01 -1.84822122e+00  4.37283225e+00 -9.93973085e-01
 -1.84822122e+00  5.99591802e+00  1.36440512e+00 -1.63638292e+00  5.99591802e+00
  1.36440512e+00 -1.63638292e+00  5.99591802e+00  1.36440512e+00 -1.63638292e+00
  2.07133480e+00  2.21610468e+00 -1.06515361e-02  2.07133480e+00  2.21610468e+00
 -1.06515361e-02  2.07133480e+00  2.21610468e+00 -1.06515361e-02 -6.08296845e-01
 -3.55663068e+00 -8.85027814e-01  1.10554973e-01  3.53910194e+00  1.09521619e+00
  1.10554973e-01  3.53910194e+00  1.09521619e+00  1.10554973e-01  3.53910194e+00
  1.09521619e+00 -3.73012440e+00  3.26074529e+00  2.34923845e+00 -8.98148433e+00
 -1.44334996e+00  2.57165921e+00 -8.98148433e+00 -1.44334996e+00  2.57165921e+00
 -8.98148433e+00 -1.44334996e+00  2.57165921e+00  5.06088153e+00  4.93655441e+00
 -1.67876750e-01  5.19920948e+00 -3.18322080e+00 -2.88114552e+00  5.19920948e+00
 -3.18322080e+00 -2.88114552e+00  5.19920948e+00 -3.18322080e+00 -2.88114552e+00
  8.15908751e+00  1.73460247e+00 -2.31706227e+00  8.15908751e+00  1.73460247e+00
 -2.31706227e+00  8.15908751e+00  1.73460247e+00 -2.31706227e+00  3.13133614e-01
  5.50007074e+00  1.65495307e+00 -8.75717384e+00 -2.97497298e+00  3.94360038e+00
 -1.02991904e+01 -5.51571462e-02  3.35022638e+00 -9.75835074e+00 -2.15804438e+00
  7.92860012e-01  4.01113867e+00 -4.72693807e+00 -2.97468696e+00  7.01750396e+00
 -3.30869862e+00 -3.57505295e+00
Total Energy                               R     -6.959903892431805e+02
Alpha Orbital Energies                     R   N=          84
 -2.03807467e+01 -2.03309519e+01 -2.03300585e+01 -1.54739006e+01 -1.13640491e+01
 -1.13451844e+01 -1.12690277e+01 -1.12398529e+01 -1.12162465e+01 -1.12148222e+01
 -1.12114999e+01 -1.12073214e+01 -1.12020290e+01 -1.12019393e+01 -1.11935197e+01
 -1.45872663e+00 -1.40632549e+00 -1.35432313e+00 -1.29432081e+00 -1.17138846e+00
 -1.10828981e+00 -1.05022635e+00 -1.03040644e+00 -9.72763146e-01 -9.31799136e-01
 -8.73307194e-01 -8.29736217e-01 -7.87409432e-01 -7.64539091e-01 -7.38791416e-01
 -7.18402918e-01 -6.78532685e-01 -6.76503314e-01 -6.60756393e-01 -6.41528722e-01
 -6.33600931e-01 -6.18856076e-01 -6.17671118e-01 -5.99905284e-01 -5.95238328e-01
 -5.70227821e-01 -5.60157563e-01 -5.57393070e-01 -5.28219670e-01 -5.12176834e-01
 -4.95297094e-01 -4.63910675e-01 -4.38596557e-01 -4.31174363e-01 -4.25664765e-01
 -4.13794308e-01 -3.55231353e-01 -3.12833738e-01  9.11544469e-02  1.29994918e-01
  1.85780531e-01  2.77796864e-01  3.32530525e-01  4.39193157e-01  4.45535102e-01
  4.98584857e-01  5.17595033e-01  5.35304490e-01  5.58893862e-01  5.98576651e-01
  6.00139978e-01  6.30171306e-01  6.44749761e-01  6.75071828e-01  6.75134671e-01
  6.85085110e-01  7.08056844e-01  7.20861585e-01  7.38495914e-01  7.89183611e-01
  8.02513031e-01  8.09954342e-01  8.80052040e-01  8.92065296e-01  9.36673764e-01
  9.73265878e-01  1.03879866e+00  1.05700481e+00  1.09863987e+00
Alpha MO coefficients                      R   N=        7056
 -2.31387806e-05 -6.65563785e-05 -3.16817932e-04 -2.02625336e-04  5.59132047e-05
  9.67937154e-06 -3.42568214e-04  3.17858071e-04 -6.71558183e-04 -2.80005215e-04
 -7.50440808e-04  9.93071536e-03 -7.51619221e-03  6.43898095e-03  4.07967954e-03
 -9.90130460e-01 -5.00002855e-02  5.28539019e-06  7.25048725e-03  1.88896988e-03
 -1.06579528e-05  4.62409326e-05 -2.32040197e-04 -3.85788308e-04 -6.82262771e-05
 -1.68038735e-04  3.04188302e-04  1.36448422e-03 -1.45102825e-04 -4.75311035e-04
 -4.83213011e-06  1.58025978e-04 -8.66701862e-05 -5.30390970e-05  1.17942377e-05
 -1.47116292e-07 -1.46631585e-07 -2.00152718e-06 -9.06848193e-07  4.53730465e-07
  2.97149282e-07  1.05402916e-06  1.01922988e-06  4.04079995e-06  1.31665134e-06
 -1.32803112e-07 -2.33745751e-07 -2.14453752e-06  3.76506770e-07  8.61044625e-07
  2.37412174e-07 -3.90781352e-06  5.13301277e-06  5.40071016e-07 -2.32123038e-06
  3.56407870e-05 -4.85123884e-06  1.51246017e-04 -7.92873536e-05 -4.86229527e-05
  1.76314707e-05  5.46280385e-04 -7.59638488e-04  8.60427678e-03  7.29665398e-03
  4.04716606e-03 -1.26762867e-03  8.62927674e-07  1.70618212e-08  6.55424184e-07
 -2.24517383e-07 -1.12377834e-07 -1.32989059e-08  4.11528669e-06  1.12247199e-06
 -4.61679037e-07 -8.74576593e-08  1.56594944e-07  1.42491779e-06 -3.08340035e-04
 -4.33284490e-04 -3.09143421e-04 -8.18919436e-07  1.31007134e-08 -6.61358290e-06
  1.91854251e-04  1.12489192e-04  4.80951230e-05 -2.83363929e-05  8.11384482e-08
  3.77685020e-06 -6.02536064e-07 -4.84082192e-06 -8.59433788e-07 -2.23379649e-07
  3.69192783e-07  1.99495636e-06 -2.14129581e-06 -1.32720873e-06 -4.23329361e-06
  6.91573653e-07  3.78107778e-07 -4.47135765e-07 -2.20172889e-07  2.49443670e-07
 -4.44655487e-06 -3.55049512e-06  2.31209515e-06  2.19952458e-06 -8.34201001e-06
 -1.13828105e-06  4.07913194e-07 -4.81923496e-07 -2.61000997e-07 -1.76878594e-05
 -3.25231520e-04  2.32609722e-04  3.14079286e-04  2.27082693e-05  3.06806420e-05
  2.09975160e-04 -9.90957899e-04 -8.85255165e-04  9.29887970e-05  3.59074981e-05
  6.41284999e-04 -7.35193766e-04  9.80007061e-04  6.18936852e-04 -7.60838054e-04
  1.53740718e-02  1.45107420e-02  2.67977318e-03 -4.50014796e-03 -2.86055499e-05
 -1.70745986e-04  3.13773034e-04 -3.56198545e-04 -2.19862528e-04 -1.73448051e-06
 -6.85604718e-06  2.32974975e-04  1.04325245e-04 -7.46832229e-05 -6.20787647e-05
  1.01331020e-06 -1.73161032e-08  1.25829109e-07  1.92723113e-07 -6.10250804e-09
 -6.10885175e-08  1.70169031e-04  9.23685088e-06  2.45543148e-04 -1.69537290e-04
  3.60371795e-05  6.73553152e-05 -9.90324817e-01 -4.99921497e-02  1.08474343e-02
  1.82190974e-03 -3.42751843e-03  1.39889978e-06  1.26747254e-08  4.40252081e-08
  9.73297746e-09 -6.78297541e-05  6.60629138e-05  4.93102020e-06  1.35030530e-04
 -1.66296302e-04  2.07892259e-04  1.44967854e-04  2.26958055e-05  3.37218531e-04
 -8.14172053e-04  1.06717989e-03  5.46593090e-04 -7.80106911e-04  1.53443345e-02
 -1.66071963e-03 -1.46597635e-02 -3.24917784e-03  2.01304486e-04  3.34182452e-04
  8.98494050e-04  1.08494610e-03 -9.13266169e-06 -1.55216036e-05 -3.10324869e-04
 -3.04158961e-04 -8.77532283e-07  1.10195076e-04 -9.90333883e-01 -4.97869522e-02
 -1.15716801e-03 -1.10450699e-02 -2.47559102e-03 -1.23053856e-06  1.92031606e-05
 -1.42791982e-05 -1.47271227e-05 -3.11400243e-06 -9.52648243e-08  5.17488808e-07
 -1.68566774e-06  2.90861577e-07  5.56768939e-07 -1.76934510e-07  1.67358923e-06
 -2.34367066e-06 -1.67283874e-07  1.10245038e-06 -6.89123477e-08  9.66049517e-07
 -6.40330462e-07 -2.86704450e-07  1.63663150e-07 -1.25344673e-07 -5.71862101e-07
  1.20612642e-06  1.44697009e-06  8.77301250e-07  3.88768488e-04 -5.82421876e-06
  1.57484918e-04 -8.53033647e-05 -5.72719371e-05  1.20386213e-05 -2.13390394e-05
 -1.77257266e-05  1.21809907e-04  1.91129962e-04 -1.62913026e-04 -1.01949571e-04
  4.59361146e-07 -3.95014464e-08  1.89540748e-06  3.29190522e-07 -1.46013767e-06
 -7.25328510e-07  8.32549659e-06  4.47183630e-07 -8.96417904e-08  9.21437150e-09
  2.63633246e-08  1.21143663e-06 -5.00649027e-05  9.88071603e-05 -5.05851349e-05
 -5.32536314e-06 -4.54992999e-07  1.59426844e-05  5.64489982e-05 -4.12454377e-07
 -2.53304853e-04 -7.98780663e-05  8.62718234e-06  7.53652212e-05 -1.19337154e-04
 -6.17336487e-05  2.27061244e-05  2.84873368e-06 -6.86018152e-05 -4.44136047e-05
 -2.65921366e-05  7.63177655e-06  3.39575822e-07 -4.04003840e-07 -1.68523232e-06
 -1.02413982e-06  2.40353835e-07  1.53770990e-05  1.34409854e-04 -1.69990656e-04
  1.99844254e-04  1.24297599e-04  2.70808022e-07 -1.35973817e-06  2.22163891e-06
  3.00501499e-07 -6.63836200e-07  1.35236296e-06  2.61202892e-05  5.77884578e-04
  1.94329120e-05 -1.90865676e-04  9.88850956e-01  6.07152096e-02 -4.92926404e-04
 -2.10130871e-03 -6.69573148e-04  7.89772855e-06  1.18771236e-04 -2.95021306e-04
  1.87432823e-04  1.58932987e-04  5.91407417e-04 -1.14549721e-02  5.64077245e-03
 -7.25333740e-03 -4.31832346e-03  5.75172191e-04 -1.09929610e-02 -9.40171937e-03
 -3.91483097e-03  1.93238609e-03 -1.22382078e-04 -1.16425338e-05 -4.04364838e-04
  3.54214803e-04  7.97197043e-04  1.38108485e-04 -1.37246135e-04  1.47142961e-07
 -1.62135453e-06 -2.20143776e-06  1.09165110e-06  9.84939715e-07 -1.21795394e-02
  1.36638001e-05  3.10949349e-05 -1.46864658e-04 -1.97095821e-04 -1.43489182e-05
 -1.88673559e-05 -3.50673313e-05 -3.20438187e-04  9.15644011e-04  4.03559717e-04
 -1.27948297e-04  2.24980689e-07 -6.78933507e-07  2.35612214e-07 -1.22920080e-04
 -3.80943526e-05  8.56988851e-04  3.11449229e-04 -5.16479876e-04  1.02614560e-04
  2.05688134e-04  5.91491774e-03  1.05241908e-02 -7.25299190e-03 -4.57257569e-03
  1.16446510e-03 -9.89283815e-01 -5.42060222e-02 -9.73635932e-04 -2.39549102e-04
  2.66620802e-04 -7.71425017e-04  7.97202639e-03  4.02436736e-03 -2.49032952e-03
 -1.93449589e-03  7.14967484e-04  5.52896030e-04  6.94097601e-05 -4.45085102e-04
 -1.57532536e-04 -6.06219507e-04  1.04043927e-02  3.96372988e-04  3.78662545e-03
  8.49311740e-04  2.05524839e-04  2.14875039e-04 -2.64855632e-04  3.96395153e-05
  1.07833586e-04 -5.82472091e-06  4.95899944e-05 -3.86062008e-05 -1.21282440e-05
  8.86937944e-06  3.96609188e-05  7.35298322e-05 -4.64841323e-05  1.00333545e-05
  1.88113830e-05  5.29248021e-05  6.88284351e-06 -4.89618494e-06  1.92649524e-06
  2.30363164e-06  1.32480049e-04 -5.75842785e-05 -9.97425372e-05 -4.62267776e-05
  2.00384723e-05  3.85268126e-04  1.22779907e-04  4.69756345e-05 -3.42720987e-05
 -1.87236438e-04 -5.07707569e-05  2.05641389e-04  3.14098835e-03  1.68500959e-03
  2.31186429e-03 -4.79234474e-04 -8.61536823e-04  5.58237877e-06  3.25489558e-07
  1.33424545e-06  2.12420431e-06 -1.31843191e-07 -6.44588025e-07 -1.72641719e-07
  9.25629610e-07 -6.62253677e-07 -6.77739022e-07  6.85629858e-08  8.12993354e-05
  2.48993994e-04  5.47913523e-04  2.52346445e-04 -4.98545316e-06  1.60627998e-07
  1.17283184e-04  6.16641922e-05  9.17827495e-05 -5.94653681e-06 -3.49674607e-05
  3.12461232e-05  3.21231503e-05  3.50205685e-05 -2.83735476e-06 -1.30853548e-05
 -5.26758639e-05  5.15480307e-06  5.49962762e-06  3.36575264e-06 -9.14401883e-07
 -1.71562976e-07  8.98505345e-07  1.09427212e-06  1.17696766e-07 -2.92224506e-07
  2.51199090e-05  3.35899219e-06  2.53810416e-05 -1.24256411e-05 -1.33745087e-05
 -1.30576217e-07  8.88032750e-07  1.73736475e-07  2.04013373e-07 -2.14884622e-08
  8.63950240e-04  1.66215995e-04  2.84197423e-04 -1.92667296e-04 -1.61246217e-04
 -9.53882892e-04  9.58871226e-03  4.69321091e-03 -4.18807469e-03 -3.01648533e-03
  7.65849866e-03  1.01140249e-02  4.92730907e-03  6.49281129e-03  3.99811211e-04
 -9.89184024e-01 -5.51602726e-02  1.62090161e-03 -6.06031731e-04 -5.76578291e-04
  3.15067053e-03  1.21150211e-03  1.12911741e-03 -7.86779296e-05 -4.18283099e-04
 -2.38359149e-06  1.24170341e-04  2.01783478e-04  7.22187764e-05 -7.89270662e-05
 -4.86236064e-05  1.32606475e-05  6.21782007e-07  4.30299176e-07  4.48109127e-07
 -1.31507880e-07 -1.79725062e-07  9.66532466e-04  7.51709257e-04  2.75251296e-04
 -3.11603136e-04  2.52806185e-04  1.98080457e-04 -5.77818150e-04  1.01653965e-02
 -3.49112768e-03 -4.13881264e-04  1.12564654e-03 -8.31773566e-06 -2.73927300e-08
  1.06650912e-07 -2.97690633e-08  1.44297877e-04  3.76964619e-04  2.12728640e-03
  2.60023634e-04  3.30255376e-04  4.58417802e-06 -1.10761074e-04  1.16289351e-03
  2.16184443e-04  3.95399052e-04  2.04624244e-04 -6.99145476e-05 -1.32916165e-04
  1.24621814e-04  7.62279942e-05  5.43147764e-05 -1.18887541e-05 -1.50660015e-08
 -2.83824950e-06  2.27004083e-06  7.51501831e-08 -6.08886230e-07  2.47607077e-03
  5.22192081e-04  4.10164907e-04  2.50884279e-04 -6.20853093e-05 -1.43955185e-07
  3.32581641e-06 -4.45249918e-06  1.66539696e-06  1.91890228e-06  1.23299589e-02
  1.30517336e-02  4.25086338e-04  8.69075351e-03  2.68008651e-03 -9.43476486e-04
  9.46927127e-03 -6.35484949e-03 -1.97670738e-03  1.52962458e-03  3.03901614e-03
  4.07196685e-04 -3.07344436e-04  3.54515513e-04  2.20591620e-04 -3.39523818e-03
  7.39681075e-04 -1.00130249e-03  4.31474534e-04  4.84619500e-04 -9.88447290e-01
 -6.17768358e-02  6.25212010e-04  1.36926898e-03  1.99384672e-04  8.99977108e-05
  9.65459809e-03  1.27980987e-02  6.96707233e-03 -4.34401259e-03 -3.81125124e-03
  1.50155643e-04  1.40149662e-05  3.02052915e-06  2.95221080e-06 -1.68160733e-06
 -1.35290786e-06  8.45264943e-04  4.00961350e-04  1.62763510e-04 -1.30363346e-04
  7.70551727e-05  7.38752104e-05 -2.58811524e-05  2.79735544e-04 -1.08483798e-04
 -6.94335905e-05  2.28084884e-05  3.58910854e-04 -4.22165361e-07  8.33077299e-07
 -4.55651834e-07 -4.04303200e-06  6.14085005e-05  2.31161759e-04 -5.89745948e-06
 -4.47074654e-05 -2.10294741e-05  1.06532748e-05  1.33774973e-03  5.31623658e-04
 -2.76483868e-04 -2.47585414e-04  2.68562784e-05 -3.65144757e-03  1.70694855e-03
 -2.25619661e-03 -1.53673952e-04  6.81621040e-04 -8.96840695e-04  7.80866735e-03
 -5.39112102e-03 -1.71391341e-03  1.26953226e-03  1.96410646e-04 -5.35863352e-06
 -3.53361125e-05 -5.00863044e-05 -7.32743073e-06 -4.09621061e-05 -1.92727611e-05
 -3.23312233e-04 -1.76305193e-04  5.75922225e-05  6.57170618e-05  2.55914961e-05
 -1.72572113e-05 -3.04592372e-06  4.72495015e-06 -2.60826182e-07  1.76934288e-06
 -1.67827491e-06 -4.91792274e-07  4.30714468e-07  7.51061705e-06  2.69338935e-06
 -1.27677582e-06  7.56581957e-07  7.37774598e-07 -3.12472834e-07 -4.01857408e-08
 -2.57238307e-07  2.51259249e-07  1.75946152e-07 -9.83846230e-06 -5.39242828e-06
 -1.90369699e-06 -8.20958901e-07  2.65437537e-07  1.45808704e-05  5.65570678e-05
  2.91357898e-05 -1.40924437e-05 -1.57424528e-05  6.52062962e-07  6.97083874e-05
 -9.88488717e-01 -6.07725076e-02  8.85336543e-04  2.30533730e-04 -2.21834429e-04
  2.93131990e-07 -2.61481910e-07  2.62076353e-08  8.47514743e-08 -7.24543001e-08
 -5.25721010e-08 -1.60097799e-08  1.30397820e-07 -9.43397870e-08 -6.40789324e-08
  1.17354278e-08  2.71663511e-06  1.26394456e-02  1.27188160e-02  1.26388180e-02
 -2.81902097e-07  1.24146003e-08  8.78001571e-03  1.28828732e-03  7.91205495e-04
 -5.98087132e-05 -3.02018401e-04 -4.35727861e-04  1.02810570e-05 -1.57910762e-04
 -1.22090676e-04  1.92077215e-05  2.33805066e-05 -5.76350982e-05 -2.01508287e-05
 -4.08556178e-05 -5.30255785e-06 -7.45026298e-07  8.72118576e-06  3.43943703e-06
 -3.96596209e-06 -1.87046272e-06 -6.07475190e-04  5.88263992e-05 -2.71403891e-05
  2.29891619e-05  1.68484211e-05  2.51189403e-09 -7.15152351e-06  5.22061286e-06
 -3.79621743e-06 -2.66586511e-06 -1.11842526e-01 -1.72811027e-02 -7.20241250e-03
  2.35795426e-03  3.25096014e-03  5.25230899e-05 -1.11934826e-04 -2.73255226e-04
 -1.36646679e-05  8.72163287e-05  9.80960076e-01  6.22293464e-02 -2.98961784e-04
 -6.91095920e-04 -2.61418930e-04  9.08303494e-03 -9.78074815e-03  4.06236653e-03
  6.89407913e-03  8.70009889e-04  1.60758564e-03  1.06002219e-03 -2.71172187e-04
 -5.71771063e-04 -8.86453880e-05 -1.68248288e-04 -7.16219995e-04 -1.59395296e-04
  8.00602169e-06  2.11629716e-04  6.47745333e-05 -3.19946411e-05  1.19667074e-06
 -2.39566895e-07 -3.78438901e-07  5.92682907e-07  2.74244084e-07 -1.07572807e-04
 -4.45817637e-02 -1.57112903e-02  3.10055548e-03 -7.80730528e-03 -3.72221281e-03
  2.46905456e-06 -2.42478940e-04 -1.65942595e-04 -6.24369997e-04 -1.51939035e-04
 -5.52901515e-05  2.29010658e-07 -1.01933426e-07  1.98365371e-07  8.70004172e-05
  3.48120086e-05  9.80977268e-01  6.30658060e-02  8.15733147e-04  3.44009515e-03
  7.95094165e-04 -6.26249188e-02 -1.57167926e-02 -7.11107199e-03  4.46144058e-03
  3.90848444e-03  4.76221316e-04  1.61522053e-04  4.42491272e-05  1.67630646e-04
  3.12495354e-05  2.42389970e-05 -1.24024925e-04 -2.13012033e-04 -4.48246679e-05
  4.99643364e-05 -1.81168323e-02 -7.59553722e-04  1.77292818e-04 -1.09438353e-04
 -9.93362251e-05  5.81196505e-06  3.18022026e-05 -9.37823846e-05  4.04935893e-05
  4.20484587e-05 -9.99062943e-02 -1.86186457e-02  8.37841045e-03  4.35408884e-03
 -1.63624275e-03  2.04046186e-05 -7.01387043e-05  1.25444269e-04  2.00816383e-04
  2.64348867e-05 -2.04503966e-02 -9.11895554e-04 -4.97451584e-04 -2.09714669e-04
  1.15315868e-04 -1.51680088e-04  2.86059721e-04  9.65372734e-05 -1.82158147e-04
 -9.16632628e-05  6.28919208e-04  9.40244817e-04 -5.20266986e-05 -4.65379448e-04
 -1.36337070e-04 -1.13873651e-02 -1.25486895e-03  9.72606299e-05 -8.05085882e-05
  1.97592321e-04  8.83665260e-05  1.68604917e-04  1.36040035e-04 -3.67590872e-05
 -2.30495722e-05 -2.50412409e-05  1.58033944e-06 -6.58548757e-05  4.94514449e-04
  3.00932704e-04  4.63864164e-05  2.10431223e-04  5.13371367e-05  7.67091689e-06
 -8.48462840e-05  4.54001025e-05  2.09600208e-05 -1.17015704e-05 -8.21771237e-05
  1.36561823e-06  6.55339091e-06  1.86000921e-06 -4.17768123e-06 -2.79821626e-05
  1.06094069e-02  1.53470946e-03 -1.62696030e-05  4.40490995e-04  1.45756063e-04
 -8.86648883e-02 -1.75722632e-02 -1.12777252e-03 -8.76805728e-03 -2.37819481e-03
  1.46391353e-04  4.05753632e-04  2.19860661e-04  2.60908785e-04  6.46048008e-07
  2.63989336e-05 -1.07400809e-04 -1.91999304e-04 -1.51818455e-04  1.84976565e-05
  9.83258824e-01  6.24528502e-02  2.46213364e-03 -1.45467793e-03 -1.27495898e-03
  1.24808407e-05 -1.39206708e-05 -1.22318956e-04 -5.22525352e-05  3.06894178e-05
 -1.63881795e-02 -1.29681592e-03  3.97100835e-04 -1.71162655e-04 -1.96491209e-04
  2.08724605e-05 -7.01018005e-05  1.53063250e-04 -6.15353993e-05 -7.14449371e-05
 -1.44042102e-03 -4.55305167e-05 -5.70525095e-05  2.36031214e-05  2.79953131e-05
 -2.07603141e-06 -2.86314126e-05  2.64053312e-06 -4.36257575e-05 -1.55188583e-05