Generated by Psi4
        SP                        DF-MP2                   AUG-CC-PVTZ
Number of atoms                            I                5
Charge                                     I                0
Multiplicity                               I                1
Number of electrons                        I               58
Number of alpha electrons                  I               29
Number of beta electrons                   I               29
Number of basis functions                  I              219
Number of independent functions            I              219
Atomic numbers                             I   N=           5
          17          17          17           6           1
Nuclear charges                            R   N=           5
  1.70000000e+01  1.70000000e+01  1.70000000e+01  6.00000000e+00  1.00000000e+00
Current cartesian coordinates              R   N=          15
 -1.58542959e+00  2.75684106e+00 -8.02691131e-02  3.17891396e+00 -2.32896615e-03
 -1.28987842e-01 -1.59293880e+00 -2.74766923e+00 -1.77508185e-01 -1.64601467e-03
 -1.55903496e-02  8.80769673e-01  6.69136792e-04 -5.17974967e-02  2.93254984e+00
Integer atomic weights                     I   N=           5
          34          34          34          12           1
Real atomic weights                        R   N=           5
  3.49688527e+01  3.49688527e+01  3.49688527e+01  1.20000000e+01  1.00782503e+00
Number of primitive shells                 I              233
Number of contracted shells                I               71
Pure/Cartesian d shells                    I                0
Pure/Cartesian f shells                    I                0
Highest angular momentum                   I                3
Largest degree of contraction              I               13
Shell types                                I   N=          71
           0           0           0           0           0           1
           1           1           1          -2          -2          -3
           0           1          -2          -3           0           0
           0           0           0           1           1           1
           1          -2          -2          -3           0           1
          -2          -3           0           0           0           0
           0           1           1           1           1          -2
          -2          -3           0           1          -2          -3
           0           0           0           0           1           1
           1          -2          -2          -3           0           1
          -2          -3           0           0           0           1
           1          -2           0           1          -2
Number of primitives per shell             I   N=          71
          13          13          13           1           1           7
           7           1           1           1           1           1
           1           1           1           1          13          13
          13           1           1           7           7           1
           1           1           1           1           1           1
           1           1          13          13          13           1
           1           7           7           1           1           1
           1           1           1           1           1           1
           8           8           1           1           3           1
           1           1           1           1           1           1
           1           1           3           1           1           1
           1           1           1           1           1
Shell to atom map                          I   N=          71
           1           1           1           1           1           1
           1           1           1           1           1           1
           1           1           1           1           2           2
           2           2           2           2           2           2
           2           2           2           2           2           2
           2           2           3           3           3           3
           3           3           3           3           3           3
           3           3           3           3           3           3
           4           4           4           4           4           4
           4           4           4           4           4           4
           4           4           5           5           5           5
           5           5           5           5           5
Primitive exponents                        R   N=         233
  4.56100000e+05  6.83300000e+04  1.55500000e+04  4.40500000e+03  1.43900000e+03
  5.20400000e+02  2.03100000e+02  8.39600000e+01  3.62000000e+01  1.58300000e+01
  6.33400000e+00  2.69400000e+00  4.31300000e-01  4.56100000e+05  6.83300000e+04
  1.55500000e+04  4.40500000e+03  1.43900000e+03  5.20400000e+02  2.03100000e+02
  8.39600000e+01  3.62000000e+01  1.58300000e+01  6.33400000e+00  2.69400000e+00
  4.31300000e-01  4.56100000e+05  6.83300000e+04  1.55500000e+04  4.40500000e+03
  1.43900000e+03  5.20400000e+02  2.03100000e+02  8.39600000e+01  3.62000000e+01
  1.58300000e+01  6.33400000e+00  2.69400000e+00  4.31300000e-01  9.76800000e-01
  1.62500000e-01  6.63300000e+02  1.56800000e+02  4.99800000e+01  1.84200000e+01
  7.24000000e+00  2.92200000e+00  3.81800000e-01  6.63300000e+02  1.56800000e+02
  4.99800000e+01  1.84200000e+01  7.24000000e+00  2.92200000e+00  3.81800000e-01
  1.02200000e+00  1.30100000e-01  1.04600000e+00  3.44000000e-01  7.06000000e-01
  5.91000000e-02  4.19000000e-02  1.35000000e-01  3.12000000e-01  4.56100000e+05
  6.83300000e+04  1.55500000e+04  4.40500000e+03  1.43900000e+03  5.20400000e+02
  2.03100000e+02  8.39600000e+01  3.62000000e+01  1.58300000e+01  6.33400000e+00
  2.69400000e+00  4.31300000e-01  4.56100000e+05  6.83300000e+04  1.55500000e+04
  4.40500000e+03  1.43900000e+03  5.20400000e+02  2.03100000e+02  8.39600000e+01
  3.62000000e+01  1.58300000e+01  6.33400000e+00  2.69400000e+00  4.31300000e-01
  4.56100000e+05  6.83300000e+04  1.55500000e+04  4.40500000e+03  1.43900000e+03
  5.20400000e+02  2.03100000e+02  8.39600000e+01  3.62000000e+01  1.58300000e+01
  6.33400000e+00  2.69400000e+00  4.31300000e-01  9.76800000e-01  1.62500000e-01
  6.63300000e+02  1.56800000e+02  4.99800000e+01  1.84200000e+01  7.24000000e+00
  2.92200000e+00  3.81800000e-01  6.63300000e+02  1.56800000e+02  4.99800000e+01
  1.84200000e+01  7.24000000e+00  2.92200000e+00  3.81800000e-01  1.02200000e+00
  1.30100000e-01  1.04600000e+00  3.44000000e-01  7.06000000e-01  5.91000000e-02
  4.19000000e-02  1.35000000e-01  3.12000000e-01  4.56100000e+05  6.83300000e+04
  1.55500000e+04  4.40500000e+03  1.43900000e+03  5.20400000e+02  2.03100000e+02
  8.39600000e+01  3.62000000e+01  1.58300000e+01  6.33400000e+00  2.69400000e+00
  4.31300000e-01  4.56100000e+05  6.83300000e+04  1.55500000e+04  4.40500000e+03
  1.43900000e+03  5.20400000e+02  2.03100000e+02  8.39600000e+01  3.62000000e+01
  1.58300000e+01  6.33400000e+00  2.69400000e+00  4.31300000e-01  4.56100000e+05
  6.83300000e+04  1.55500000e+04  4.40500000e+03  1.43900000e+03  5.20400000e+02
  2.03100000e+02  8.39600000e+01  3.62000000e+01  1.58300000e+01  6.33400000e+00
  2.69400000e+00  4.31300000e-01  9.76800000e-01  1.62500000e-01  6.63300000e+02
  1.56800000e+02  4.99800000e+01  1.84200000e+01  7.24000000e+00  2.92200000e+00
  3.81800000e-01  6.63300000e+02  1.56800000e+02  4.99800000e+01  1.84200000e+01
  7.24000000e+00  2.92200000e+00  3.81800000e-01  1.02200000e+00  1.30100000e-01
  1.04600000e+00  3.44000000e-01  7.06000000e-01  5.91000000e-02  4.19000000e-02
  1.35000000e-01  3.12000000e-01  8.23600000e+03  1.23500000e+03  2.80800000e+02
  7.92700000e+01  2.55900000e+01  8.99700000e+00  3.31900000e+00  3.64300000e-01
  8.23600000e+03  1.23500000e+03  2.80800000e+02  7.92700000e+01  2.55900000e+01
  8.99700000e+00  3.31900000e+00  3.64300000e-01  9.05900000e-01  1.28500000e-01
  1.87100000e+01  4.13300000e+00  1.20000000e+00  3.82700000e-01  1.20900000e-01
  1.09700000e+00  3.18000000e-01  7.61000000e-01  4.40200000e-02  3.56900000e-02
  1.00000000e-01  2.68000000e-01  3.38700000e+01  5.09500000e+00  1.15900000e+00
  3.25800000e-01  1.02700000e-01  1.40700000e+00  3.88000000e-01  1.05700000e+00
  2.52600000e-02  1.02000000e-01  2.47000000e-01
Contraction coefficients                   R   N=         233
  4.92941786e-05  3.83007078e-04  2.00842505e-03  8.38510007e-03  2.94686133e-02
  8.78274731e-02  2.11460897e-01  3.65343089e-01  3.40864490e-01  1.02127155e-01
  3.11657162e-03  1.05744948e-03  1.56127064e-04 -1.47034206e-05 -1.14050805e-04
 -6.00752909e-04 -2.51040623e-03 -8.99281123e-03 -2.76027210e-02 -7.29687441e-02
 -1.50829556e-01 -2.11900675e-01 -2.08012833e-02  5.31286306e-01  5.99320882e-01
 -8.87804707e-03  6.49541842e-06  5.03428836e-05  2.65537974e-04  1.10833025e-03
  3.98380676e-03  1.22375442e-02  3.27244651e-02  6.86349823e-02  1.01132715e-01
  9.35814761e-03 -3.20459741e-01 -6.29871500e-01  1.12615383e+00  1.00000000e+00
  1.00000000e+00  2.47384091e-03  1.97690804e-02  9.10628980e-02  2.63405289e-01
  4.49530829e-01  3.60439921e-01 -4.71646914e-03 -1.11774970e-03 -8.90307363e-03
 -4.23241575e-02 -1.24804829e-01 -2.29721907e-01 -1.62439080e-01  9.67816011e-01
  1.00000000e+00  1.00000000e+00  1.00000000e+00  1.00000000e+00  1.00000000e+00
  1.00000000e+00  1.00000000e+00  1.00000000e+00  1.00000000e+00  4.92941786e-05
  3.83007078e-04  2.00842505e-03  8.38510007e-03  2.94686133e-02  8.78274731e-02
  2.11460897e-01  3.65343089e-01  3.40864490e-01  1.02127155e-01  3.11657162e-03
  1.05744948e-03  1.56127064e-04 -1.47034206e-05 -1.14050805e-04 -6.00752909e-04
 -2.51040623e-03 -8.99281123e-03 -2.76027210e-02 -7.29687441e-02 -1.50829556e-01
 -2.11900675e-01 -2.08012833e-02  5.31286306e-01  5.99320882e-01 -8.87804707e-03
  6.49541842e-06  5.03428836e-05  2.65537974e-04  1.10833025e-03  3.98380676e-03
  1.22375442e-02  3.27244651e-02  6.86349823e-02  1.01132715e-01  9.35814761e-03
 -3.20459741e-01 -6.29871500e-01  1.12615383e+00  1.00000000e+00  1.00000000e+00
  2.47384091e-03  1.97690804e-02  9.10628980e-02  2.63405289e-01  4.49530829e-01
  3.60439921e-01 -4.71646914e-03 -1.11774970e-03 -8.90307363e-03 -4.23241575e-02
 -1.24804829e-01 -2.29721907e-01 -1.62439080e-01  9.67816011e-01  1.00000000e+00
  1.00000000e+00  1.00000000e+00  1.00000000e+00  1.00000000e+00  1.00000000e+00
  1.00000000e+00  1.00000000e+00  1.00000000e+00  4.92941786e-05  3.83007078e-04
  2.00842505e-03  8.38510007e-03  2.94686133e-02  8.78274731e-02  2.11460897e-01
  3.65343089e-01  3.40864490e-01  1.02127155e-01  3.11657162e-03  1.05744948e-03
  1.56127064e-04 -1.47034206e-05 -1.14050805e-04 -6.00752909e-04 -2.51040623e-03
 -8.99281123e-03 -2.76027210e-02 -7.29687441e-02 -1.50829556e-01 -2.11900675e-01
 -2.08012833e-02  5.31286306e-01  5.99320882e-01 -8.87804707e-03  6.49541842e-06
  5.03428836e-05  2.65537974e-04  1.10833025e-03  3.98380676e-03  1.22375442e-02
  3.27244651e-02  6.86349823e-02  1.01132715e-01  9.35814761e-03 -3.20459741e-01
 -6.29871500e-01  1.12615383e+00  1.00000000e+00  1.00000000e+00  2.47384091e-03
  1.97690804e-02  9.10628980e-02  2.63405289e-01  4.49530829e-01  3.60439921e-01
 -4.71646914e-03 -1.11774970e-03 -8.90307363e-03 -4.23241575e-02 -1.24804829e-01
 -2.29721907e-01 -1.62439080e-01  9.67816011e-01  1.00000000e+00  1.00000000e+00
  1.00000000e+00  1.00000000e+00  1.00000000e+00  1.00000000e+00  1.00000000e+00
  1.00000000e+00  1.00000000e+00  5.42430189e-04  4.19642790e-03  2.15409141e-02
  8.36149496e-02  2.39871619e-01  4.43751820e-01  3.53579696e-01 -9.17636608e-03
 -1.96392234e-04 -1.52595027e-03 -7.89044903e-03 -3.15148705e-02 -9.69100083e-02
 -2.20541526e-01 -2.96069113e-01  1.04050343e+00  1.00000000e+00  1.00000000e+00
  3.94263872e-02  2.44088985e-01  8.15492009e-01  1.00000000e+00  1.00000000e+00
  1.00000000e+00  1.00000000e+00  1.00000000e+00  1.00000000e+00  1.00000000e+00
  1.00000000e+00  1.00000000e+00  2.54948632e-02  1.90362766e-01  8.52162022e-01
  1.00000000e+00  1.00000000e+00  1.00000000e+00  1.00000000e+00  1.00000000e+00
  1.00000000e+00  1.00000000e+00  1.00000000e+00
Coordinates of each shell                  R   N=         213
 -1.58542959e+00  2.75684106e+00 -8.02691131e-02 -1.58542959e+00  2.75684106e+00
 -8.02691131e-02 -1.58542959e+00  2.75684106e+00 -8.02691131e-02 -1.58542959e+00
  2.75684106e+00 -8.02691131e-02 -1.58542959e+00  2.75684106e+00 -8.02691131e-02
 -1.58542959e+00  2.75684106e+00 -8.02691131e-02 -1.58542959e+00  2.75684106e+00
 -8.02691131e-02 -1.58542959e+00  2.75684106e+00 -8.02691131e-02 -1.58542959e+00
  2.75684106e+00 -8.02691131e-02 -1.58542959e+00  2.75684106e+00 -8.02691131e-02
 -1.58542959e+00  2.75684106e+00 -8.02691131e-02 -1.58542959e+00  2.75684106e+00
 -8.02691131e-02 -1.58542959e+00  2.75684106e+00 -8.02691131e-02 -1.58542959e+00
  2.75684106e+00 -8.02691131e-02 -1.58542959e+00  2.75684106e+00 -8.02691131e-02
 -1.58542959e+00  2.75684106e+00 -8.02691131e-02  3.17891396e+00 -2.32896615e-03
 -1.28987842e-01  3.17891396e+00 -2.32896615e-03 -1.28987842e-01  3.17891396e+00
 -2.32896615e-03 -1.28987842e-01  3.17891396e+00 -2.32896615e-03 -1.28987842e-01
  3.17891396e+00 -2.32896615e-03 -1.28987842e-01  3.17891396e+00 -2.32896615e-03
 -1.28987842e-01  3.17891396e+00 -2.32896615e-03 -1.28987842e-01  3.17891396e+00
 -2.32896615e-03 -1.28987842e-01  3.17891396e+00 -2.32896615e-03 -1.28987842e-01
  3.17891396e+00 -2.32896615e-03 -1.28987842e-01  3.17891396e+00 -2.32896615e-03
 -1.28987842e-01  3.17891396e+00 -2.32896615e-03 -1.28987842e-01  3.17891396e+00
 -2.32896615e-03 -1.28987842e-01  3.17891396e+00 -2.32896615e-03 -1.28987842e-01
  3.17891396e+00 -2.32896615e-03 -1.28987842e-01  3.17891396e+00 -2.32896615e-03
 -1.28987842e-01 -1.59293880e+00 -2.74766923e+00 -1.77508185e-01 -1.59293880e+00
 -2.74766923e+00 -1.77508185e-01 -1.59293880e+00 -2.74766923e+00 -1.77508185e-01
 -1.59293880e+00 -2.74766923e+00 -1.77508185e-01 -1.59293880e+00 -2.74766923e+00
 -1.77508185e-01 -1.59293880e+00 -2.74766923e+00 -1.77508185e-01 -1.59293880e+00
 -2.74766923e+00 -1.77508185e-01 -1.59293880e+00 -2.74766923e+00 -1.77508185e-01
 -1.59293880e+00 -2.74766923e+00 -1.77508185e-01 -1.59293880e+00 -2.74766923e+00
 -1.77508185e-01 -1.59293880e+00 -2.74766923e+00 -1.77508185e-01 -1.59293880e+00
 -2.74766923e+00 -1.77508185e-01 -1.59293880e+00 -2.74766923e+00 -1.77508185e-01
 -1.59293880e+00 -2.74766923e+00 -1.77508185e-01 -1.59293880e+00 -2.74766923e+00
 -1.77508185e-01 -1.59293880e+00 -2.74766923e+00 -1.77508185e-01 -1.64601467e-03
 -1.55903496e-02  8.80769673e-01 -1.64601467e-03 -1.55903496e-02  8.80769673e-01
 -1.64601467e-03 -1.55903496e-02  8.80769673e-01 -1.64601467e-03 -1.55903496e-02
  8.80769673e-01 -1.64601467e-03 -1.55903496e-02  8.80769673e-01 -1.64601467e-03
 -1.55903496e-02  8.80769673e-01 -1.64601467e-03 -1.55903496e-02  8.80769673e-01
 -1.64601467e-03 -1.55903496e-02  8.80769673e-01 -1.64601467e-03 -1.55903496e-02
  8.80769673e-01 -1.64601467e-03 -1.55903496e-02  8.80769673e-01 -1.64601467e-03
 -1.55903496e-02  8.80769673e-01 -1.64601467e-03 -1.55903496e-02  8.80769673e-01
 -1.64601467e-03 -1.55903496e-02  8.80769673e-01 -1.64601467e-03 -1.55903496e-02
  8.80769673e-01  6.69136792e-04 -5.17974967e-02  2.93254984e+00  6.69136792e-04
 -5.17974967e-02  2.93254984e+00  6.69136792e-04 -5.17974967e-02  2.93254984e+00
  6.69136792e-04 -5.17974967e-02  2.93254984e+00  6.69136792e-04 -5.17974967e-02
  2.93254984e+00  6.69136792e-04 -5.17974967e-02  2.93254984e+00  6.69136792e-04
 -5.17974967e-02  2.93254984e+00  6.69136792e-04 -5.17974967e-02  2.93254984e+00
  6.69136792e-04 -5.17974967e-02  2.93254984e+00
Total Energy                               R     -1.417758481276649e+03
Alpha Orbital Energies                     R   N=         219
 -6.54902265e-06 -4.93161444e-06 -4.92833680e-06 -1.19154069e-06 -1.18949930e-06
 -6.37533242e-07 -2.96928534e-07 -2.96685018e-07  1.90625875e-08  2.76363346e-07
  8.72899788e-07  8.74306847e-07  8.98289030e-07  1.12335221e-06  1.13014328e-06
  1.13098496e-06  1.16852619e-06  1.82045747e-06  2.06775811e-06  2.07082103e-06
  2.69113441e-06  3.43108736e-06  3.43449527e-06  3.45457374e-06  3.85268204e-06
  3.85317991e-06  4.90421275e-06  6.12908502e-06  6.44217548e-06  6.44367891e-06
  7.52292160e-06  7.52561016e-06  8.63234974e-06  8.75209194e-06  8.75759989e-06
  9.05903608e-06  1.10648058e-05  1.14046728e-05  1.14090910e-05  1.28241929e-05
  1.28305062e-05  1.38005135e-05  1.38018740e-05  1.81392074e-05  2.04180220e-05
  2.04342566e-05  2.13626610e-05  2.20709719e-05  2.20780955e-05  2.38414700e-05
  2.43713535e-05  2.43781901e-05  2.66017166e-05  2.71650259e-05  2.71668240e-05
  2.77805039e-05  2.89075970e-05  3.02223336e-05  3.02340553e-05  3.21707927e-05
  3.21732041e-05  3.49663993e-05  3.49703732e-05  3.65280946e-05  3.69003333e-05
  3.80059213e-05  3.90067518e-05  3.91712746e-05  3.91722186e-05  4.12663395e-05
  4.12680989e-05  4.12737736e-05  4.30257081e-05  4.30291375e-05  4.53014369e-05
  4.54458255e-05  4.54474947e-05  4.91904535e-05  5.29474979e-05  5.42085260e-05
  5.42347901e-05  5.46049044e-05  5.46094863e-05  5.65788808e-05  6.30102354e-05
  6.44370425e-05  6.44458869e-05  7.01197765e-05  7.01584138e-05  7.47697084e-05
  7.73563528e-05  7.73643306e-05  7.91414066e-05  7.92358222e-05  8.04752796e-05
  9.03583236e-05  9.81729302e-05  9.81967879e-05  1.03485402e-04  1.03570264e-04
  1.06400584e-04  1.43638948e-04  1.49872189e-04  1.51948910e-04  1.53288330e-04
  1.53336111e-04  1.74350185e-04  1.74453187e-04  1.93899933e-04  1.93924212e-04
  1.95720457e-04  2.04319491e-04  2.04349615e-04  2.07373671e-04  2.24971028e-04
  2.24997238e-04  2.34122497e-04  2.56510682e-04  2.56520541e-04  2.82438157e-04
  2.87803227e-04  2.87960827e-04  3.01337529e-04  3.28231912e-04  3.28332322e-04
  3.37228058e-04  3.55407500e-04  3.65824050e-04  3.65877816e-04  3.91469879e-04
  4.03287914e-04  4.03388196e-04  4.31633494e-04  4.31662890e-04  4.39960682e-04
  5.37481715e-04  5.37554549e-04  5.37878259e-04  5.98165424e-04  6.13713040e-04
  6.13736429e-04  6.18960879e-04  6.19005907e-04  6.19778243e-04  6.45680070e-04
  6.45714215e-04  6.51826763e-04  6.60143961e-04  7.07162775e-04  7.42197797e-04
  7.42509157e-04  7.63560521e-04  7.63813002e-04  9.82126199e-04  1.19650206e-03
  1.19778266e-03  1.38789588e-03  1.38936793e-03  1.66254174e-03  1.78996212e-03
  1.96414558e-03  1.96539106e-03  2.93939583e-03  2.93953163e-03  3.14661502e-03
  3.17704259e-03  3.88097268e-03  3.88304642e-03  4.54672914e-03  4.54899999e-03
  4.55003310e-03  5.23074310e-03  5.39331009e-03  5.39339925e-03  7.61535391e-03
  7.84261414e-03  8.42810326e-03  8.53536222e-03  8.53556662e-03  8.68865720e-03
  8.68975792e-03  9.14844455e-03  9.34926446e-03  9.34958813e-03  1.05504111e-02
  1.06346042e-02  1.06376450e-02  1.94075735e-02  1.94316755e-02  2.17809068e-02
  9.69510461e-01  9.69535031e-01  9.74077931e-01  9.75867880e-01  9.77062789e-01
  9.77063144e-01  9.77863797e-01  9.77864267e-01  9.78070007e-01  9.84605317e-01
  9.90345973e-01  9.90348273e-01  9.91910507e-01  1.00000000e+00  1.00000000e+00
  1.00000000e+00  1.00000047e+00  1.00000222e+00  1.00000322e+00  1.00000322e+00
  1.00001123e+00  1.00001129e+00  1.00001130e+00  1.00002055e+00  1.00002055e+00
  1.00002082e+00  1.00002114e+00  1.00002115e+00  1.00002124e+00
Alpha MO coefficients                      R   N=       47961
  2.89841037e-02  1.75842801e-01  2.24429181e-01 -2.64550397e-02 -3.88935550e-01
  8.34544754e-02 -1.48335192e-01  1.64806354e-01  1.64748736e-01 -2.92623954e-01
  3.12851522e-01 -3.97010524e-02  7.08139286e-02 -9.55601839e-02 -4.59018036e-01
  8.19216436e-01 -8.58681912e-01  4.24581864e-02  3.49377079e-02 -6.11070171e-02
  2.45295064e-02  4.30537371e-02 -1.63134440e-01 -9.07680054e-02  1.59681984e-01
 -8.52725401e-02 -1.48463775e-01  9.44629268e-03  3.06391277e-03 -6.59754222e-03
 -1.61160225e-02 -2.72206250e-02 -1.28795090e-02  4.65133938e-04  1.37825922e+00
  2.91161036e-01 -5.23722273e-01  1.03547388e+00  2.44694802e-01 -8.00905208e-02
  1.41958572e-01  2.83579172e-01  4.80886190e-01  2.35253026e-02 -1.66840963e-02
  3.13925512e-02  6.16305188e-02  1.03578885e-01  6.32238936e-02 -1.66542077e-03
  2.91522585e-02  1.76772460e-01  2.25402549e-01 -2.70467858e-02 -3.89504884e-01
 -1.67376196e-01 -2.72576697e-03  1.67525827e-01 -3.30439950e-01 -5.16034462e-03
  3.18186618e-01  7.95168439e-02  1.59846953e-03 -9.68944709e-02  9.19678395e-01
  1.43139021e-02 -8.77480588e-01  4.42776101e-02 -6.86302136e-02 -3.66391012e-04
 -5.05169406e-02  1.36090561e-03 -1.68106909e-01  1.77337153e-01  1.83120267e-03
  1.73831556e-01 -3.62793495e-03  9.70717965e-03 -7.61823356e-03 -1.28874764e-03
  3.16460654e-02  3.77272966e-04 -1.22911987e-02 -6.38209552e-04  1.38074987e+00
 -5.83977167e-01 -1.75995883e-02  1.04370131e+00  2.38163859e-01  1.78188126e-01
  2.20022124e-03 -5.53437286e-01 -1.64473662e-03  2.21166282e-02  3.95389001e-02
  2.35091214e-03 -1.20793707e-01 -2.05218816e-03  6.07630207e-02  2.36615812e-03
  2.89969733e-02  1.75922455e-01  2.24533831e-01 -2.64549967e-02 -3.89601506e-01
  8.38637306e-02  1.42183447e-01  1.69913095e-01  1.65559256e-01  2.80924104e-01
  3.22937354e-01 -3.98914285e-02 -6.72785505e-02 -9.79806146e-02 -4.61692365e-01
 -7.87584750e-01 -8.87004290e-01  4.60868474e-02  3.35606026e-02  5.74014216e-02
  2.63829807e-02 -4.44040868e-02 -1.72495338e-01 -8.59022092e-02 -1.46073281e-01
 -8.98303010e-02  1.52067662e-01  1.00310734e-02  4.61103074e-03  6.63479916e-03
 -1.56038598e-02  2.76186406e-02 -1.16845140e-02  3.30090890e-04  1.37786672e+00
  2.92473785e-01  4.85844889e-01  1.05337366e+00  2.35347953e-01 -9.74602361e-02
 -1.66306765e-01  2.75450344e-01 -4.79470984e-01  2.05606464e-02 -2.26126023e-02
 -3.66357615e-02  5.91653145e-02 -1.05442696e-01  5.86888430e-02 -1.47282413e-03
  1.71979156e-01  3.41347357e-01  7.90697868e-02  5.34732417e+00 -1.17113726e-04
  6.89687727e-04 -3.92880903e-02  8.49707249e-04 -3.31711029e-03  1.90103583e-01
  4.82781473e-05 -3.67614366e-02  2.06065589e+00 -1.64349498e-02 -2.15956807e-04
  4.87147193e-04  9.96674143e-05 -2.93839911e-06  1.39646633e-01  1.36561418e-03
 -4.23284235e-03  4.51726507e-05 -2.46439688e-05 -7.64428160e-02  3.47284135e-04
  3.33963293e-03 -2.44557434e-04  5.22256601e-04 -2.40320454e-02  1.07501654e-04
 -5.85078815e+00  2.59302040e-04  1.91924394e-02 -1.07921066e+00  9.57320835e-01
  7.19479180e-03 -2.89891132e-02  5.60220811e-03 -2.04011923e-04  2.47299231e-02
 -2.88120485e-05 -1.10222802e-03  1.18192906e-03  1.65810557e-03 -7.85091481e-02
  3.05641966e-04  1.77187771e-02 -1.29976482e+00 -1.74739801e+00 -1.89705147e-04
  3.88069690e-03 -2.19878473e-01 -1.07495526e-04 -1.05198971e-02  5.93630279e-01
  3.54438286e-02  5.99950112e-04 -1.06873579e-03  1.76790310e-04 -1.85018885e-05
  2.04456378e-01 -3.10723397e-03  3.92538839e-03 -2.36598510e-01 -9.95375997e-02
 -5.16341095e-04  3.08124832e-03 -1.14745550e-03  4.83911903e-05 -1.14894469e-03
 -8.63097610e-03 -1.57686505e-02 -5.26608302e-03  7.92367819e-02 -1.27910316e-01
 -1.93376482e-02  1.38161015e-02 -2.34348393e-01 -3.15537621e-02  2.18324680e-02
  9.24385028e-02  1.67836825e-02 -1.50721383e-02  5.45485155e-01  3.15629366e-01
 -1.23220024e-01 -1.20055491e-04 -2.36507790e-03 -3.45291036e-02 -1.04120591e-01
  5.77944251e-02 -4.95976642e-03 -4.05367466e-02  9.33686183e-02  3.22990268e-01
 -1.80726529e-01  7.97245795e-03 -3.29357650e-02 -1.80648548e-02 -5.27471428e-03
  1.24462101e-02 -1.07443964e-03 -1.46178640e-02 -1.32414879e+00 -2.39751069e-01
  3.22953141e-01 -2.89260264e-02 -2.01842029e-02  1.35529054e-01 -1.79390362e-02
 -2.33990101e-01  1.03866141e-01 -1.29769541e-02  3.40000754e-02  3.74507320e-02
  1.94225623e-02 -2.27332806e-02 -1.68339205e-02 -5.42627655e-03  4.66835210e-03
  3.36952180e-02  5.83845000e-02  1.62879181e-02 -2.80868082e-01 -1.57558996e-01
 -2.72257732e-02 -4.73780676e-02 -2.99739731e-01 -4.96287524e-02 -7.49652356e-02
  1.05759266e-01  1.97029365e-02  5.14328820e-02  2.13381898e-02  1.38843608e-01
  4.23379371e-01 -3.35028492e-03  9.93774308e-02 -4.84008345e-03 -7.07150326e-03
  2.60638667e-02  2.67908065e-02 -3.47082778e-01  3.37751761e-03  1.47314905e-02
 -8.04105364e-02 -2.96122158e-02 -3.88038556e-03 -8.27420178e-03  2.54774215e-02
  2.18627471e-03  4.55590780e-03  2.89710298e-03  4.37267809e+00 -1.32726481e+00
 -1.23412778e-02  1.20793150e-01  6.81214190e-02  2.91207448e-01  2.33531077e-02
 -8.77742861e-02  5.57109194e-02  4.97914135e-02 -5.04850540e-02  1.02787842e-02
 -3.32554253e-02 -5.98190174e-03  5.39886904e-02  1.59960728e-03 -2.90671992e-03
 -2.14656867e-02 -3.83500337e-02 -1.19815476e-02  1.88928219e-01 -1.34886286e-01
 -4.94412864e-02  3.16840708e-02 -2.49737507e-01 -9.78361167e-02  4.96616933e-02
  9.55732419e-02  3.06091114e-02 -3.49681694e-02  4.22421202e-01 -2.28848993e-01
 -3.01181482e-01  4.32536491e-03  1.99505042e-02  6.92529953e-02 -7.99479047e-02
 -4.12656868e-02 -2.52116037e-02 -1.07628753e-01 -2.19522258e-01  2.46452964e-01
  1.33370427e-01  2.08776412e-02 -2.68794053e-02  1.12142076e-02  3.04193446e-03
 -1.83709604e-02 -3.44061913e-03  1.12020263e-02 -3.06412156e+00 -4.94940620e-01
 -7.82070072e-01 -9.67762831e-02 -4.27376067e-02  1.69562202e-01  1.38779086e-01
 -1.97250019e-01 -4.70942343e-02 -3.62827720e-02  1.54374778e-02 -4.78875445e-02
  5.30574297e-03  3.07815669e-02 -3.71928356e-02  3.94745985e-03  5.54473692e-04
  1.01142430e-03 -3.57660541e-04  1.89421991e-02  4.93864607e-02  1.12759869e-02
  6.31975708e-05 -8.97663206e-02 -2.05432286e-02  1.24839316e-03 -9.61400720e-01
 -2.18186583e-01 -3.00118605e-03  1.79474015e-05  1.15704214e-02  2.50943281e-03
  1.06981074e-02 -2.60993221e-03 -6.24801971e-04 -1.69367216e-01 -3.78711851e-02
 -7.18986279e-02  1.94872697e-02 -2.16491967e-04 -1.29498487e-02 -4.03968334e-03
  4.01546200e-02 -9.00666967e-03 -2.34741063e-05 -8.56448372e-04  8.34544004e-03
 -2.24745723e+00 -5.11930880e-01 -1.41356420e-02  2.16150818e-03  4.39463213e-01
  1.00718807e-01 -1.10552373e-01  2.02410283e-02  2.12718688e-03  1.31288048e-01
  3.62148364e-02 -2.37130311e-01  5.16908631e-02  8.42358049e-04  5.22166104e-03
  3.41212497e-05 -4.12058965e-03 -2.15455185e-03 -7.01782242e-02 -1.59920694e-02
 -6.12001808e-04  3.60100006e-01  8.21935167e-02  3.22823980e-03  6.18803815e-05
  7.43565278e-03  1.94512364e-03 -1.77395336e-02  3.99806924e-03  3.96890769e-04
 -7.42536572e-01 -1.68391035e-01 -2.76477959e-03 -7.14312445e-04 -6.46541945e-02
 -1.71355351e-02  1.35959331e-01 -3.06620372e-02  4.32074335e-03  3.15516551e-02
  5.55295309e-02  1.64990906e-02 -2.69671883e-01  4.50404623e-02 -1.51252660e-01
 -4.81785867e-02  8.84413837e-02 -2.86408361e-01 -7.68288428e-02 -2.82301375e-02
  1.02421987e-01  5.15491000e-02  1.56086641e-01  1.03707430e-01  4.16124407e-01
 -6.38039706e-04 -5.35161851e-02  8.13928503e-02 -2.65120934e-02  2.52358190e-02
  1.72778029e-02  1.72382123e-01 -2.93529912e-01  8.54931315e-02 -7.26776418e-02
 -2.90074749e-02 -8.68767411e-03 -7.37082045e-03 -1.54075609e-02 -2.00934409e-02
  3.98489896e-03 -4.27837689e-03  4.29410740e+00  6.35256734e-01 -1.13715527e+00
  9.85025417e-02  7.45218369e-02 -1.12155933e-01  2.59719865e-01 -2.05533370e-02
  1.17060750e-01  4.66749261e-02  3.82626024e-02 -3.82822136e-02  2.23541743e-02
  2.19261258e-02  5.35838514e-02 -2.19779042e-03 -1.06684201e-03 -7.70380819e-03
 -1.33602788e-02 -3.72838361e-03  6.41155223e-02  3.59872940e-02 -1.23264085e-01
  8.58733554e-03  6.84750314e-02 -2.23852527e-01  1.30499489e-02 -2.41516400e-02
  9.05341301e-02 -1.01306491e-02 -3.17439230e-03  6.39661161e-01 -8.51344233e-02
  8.03631139e-05 -2.06138728e-02 -2.14196337e-02  1.58668651e-03  1.21292617e-01
 -5.58206589e-03  7.27570204e-02  1.73381404e-02 -4.19343732e-03 -3.77658287e-01
  5.05285603e-03  1.11768490e-03 -3.85507321e-02 -6.60592473e-03  9.76232298e-03
 -7.69130711e-04  1.52114254e-02 -1.00541192e+00  3.04938500e-01 -5.22100010e-02
 -2.85222848e-02 -1.20728989e-02 -6.19249184e-02  1.05804927e-01  2.26654984e-02
  2.63964327e-01 -9.17941035e-03  1.08437397e-02  4.98590371e-02  9.11995727e-03
 -2.74867689e-02 -1.29616923e-02  4.82826056e-03 -3.36507575e-03 -2.44981341e-02
 -4.29356338e-02 -1.25753633e-02  2.07443162e-01  1.48231019e-02 -1.45803469e-01
  3.21387298e-02  2.18082663e-02 -2.73476499e-01  4.98746964e-02 -1.46179102e-02
  1.00860636e-01 -3.62333255e-02 -3.78293355e-01  2.43156174e-01 -3.12403906e-01
  4.09979681e-03  5.09965698e-02  5.53898609e-02  7.15406173e-02  4.57475440e-02
 -2.67391645e-02 -1.43035028e-01 -2.13924305e-01 -2.26347557e-01 -1.38062394e-01
  2.12405989e-02  2.14087918e-02 -1.73295374e-02  1.47257402e-02 -1.38068021e-02
 -3.79541030e-03 -1.08583087e-02 -3.28605301e+00 -4.69334143e-01 -8.77412774e-01
 -1.06864959e-01 -4.45054442e-02  4.76934340e-02  2.24379838e-01  1.29249885e-01
  1.48174452e-01 -3.76736091e-02 -4.86292326e-02 -1.31555129e-02 -2.94999212e-02
  1.44560348e-02 -4.03247959e-02 -2.77620060e-03 -1.25414120e-04 -2.31919223e-04
  5.61075033e-05 -2.33022335e-03 -1.12683215e-02  4.93857758e-02  8.96953287e-04
  2.04734531e-02 -8.98267687e-02 -1.89007687e-03  2.19563697e-01 -9.56618598e-01
 -1.72251989e-02  3.68387467e-04 -2.83041026e-03  1.18430404e-02 -2.27336454e-03
 -1.03058123e-02 -5.36986324e-03  3.99268521e-02 -1.71485100e-01  1.34964089e-02
  6.99953067e-02 -5.44135483e-04  1.77058633e-03 -1.25189955e-02 -9.71265125e-03
 -4.02809859e-02 -9.05886033e-04  3.08068707e-04 -1.73206785e-03  5.13003590e-01
 -2.24394006e+00 -3.90613697e-02  1.36490927e-02 -9.89823304e-02  4.36004313e-01
  3.35613092e-02  1.20927755e-01  5.46739661e-03 -2.29342830e-02  1.27997199e-01
  5.89787153e-02  2.38487172e-01  5.22088470e-03 -1.01284354e-03 -3.23669893e-06
  7.15969785e-04  2.34353585e-05  1.60169859e-02 -7.01037143e-02 -1.18666438e-03
 -8.21724844e-02  3.60252868e-01  6.04330340e-03  2.20756632e-04 -1.37126663e-03