Generated by Psi4
        SP                        DF-MP2                      6-311G**
Number of atoms                            I                5
Charge                                     I                0
Multiplicity                               I                1
Number of electrons                        I               58
Number of alpha electrons                  I               29
Number of beta electrons                   I               29
Number of basis functions                  I              102
Number of independent functions            I              102
Atomic numbers                             I   N=           5
          17          17          17           6           1
Nuclear charges                            R   N=           5
  1.70000000e+01  1.70000000e+01  1.70000000e+01  6.00000000e+00  1.00000000e+00
Current cartesian coordinates              R   N=          15
 -1.58542959e+00  2.75684106e+00 -8.02691131e-02  3.17891396e+00 -2.32896615e-03
 -1.28987842e-01 -1.59293880e+00 -2.74766923e+00 -1.77508185e-01 -1.64601467e-03
 -1.55903496e-02  8.80769673e-01  6.69136792e-04 -5.17974967e-02  2.93254984e+00
Integer atomic weights                     I   N=           5
          34          34          34          12           1
Real atomic weights                        R   N=           5
  3.49688527e+01  3.49688527e+01  3.49688527e+01  1.20000000e+01  1.00782503e+00
Number of primitive shells                 I               95
Number of contracted shells                I               48
Pure/Cartesian d shells                    I                0
Pure/Cartesian f shells                    I                0
Highest angular momentum                   I                2
Largest degree of contraction              I                6
Shell types                                I   N=          48
           0           0           0           0           0           0
           1           1           1           1           1          -2
           0           0           0           0           0           0
           1           1           1           1           1          -2
           0           0           0           0           0           0
           1           1           1           1           1          -2
           0           0           1           0           1           0
           1          -2           0           0           0           1
Number of primitives per shell             I   N=          48
           6           3           1           1           1           1
           5           2           1           1           1           1
           6           3           1           1           1           1
           5           2           1           1           1           1
           6           3           1           1           1           1
           5           2           1           1           1           1
           6           3           3           1           1           1
           1           1           3           1           1           1
Shell to atom map                          I   N=          48
           1           1           1           1           1           1
           1           1           1           1           1           1
           2           2           2           2           2           2
           2           2           2           2           2           2
           3           3           3           3           3           3
           3           3           3           3           3           3
           4           4           4           4           4           4
           4           4           5           5           5           5
Primitive exponents                        R   N=          95
  1.05819000e+05  1.58720000e+04  3.61965000e+03  1.03080000e+03  3.39908000e+02
  1.24538000e+02  1.24538000e+02  4.95135000e+01  2.08056000e+01  6.58346000e+00
  2.56468000e+00  5.59763000e-01  1.83273000e-01  5.89776000e+02  1.39849000e+02
  4.51413000e+01  1.68733000e+01  6.74110000e+00  6.74110000e+00  2.77152000e+00
  1.02387000e+00  3.81368000e-01  1.09437000e-01  7.50000000e-01  1.05819000e+05
  1.58720000e+04  3.61965000e+03  1.03080000e+03  3.39908000e+02  1.24538000e+02
  1.24538000e+02  4.95135000e+01  2.08056000e+01  6.58346000e+00  2.56468000e+00
  5.59763000e-01  1.83273000e-01  5.89776000e+02  1.39849000e+02  4.51413000e+01
  1.68733000e+01  6.74110000e+00  6.74110000e+00  2.77152000e+00  1.02387000e+00
  3.81368000e-01  1.09437000e-01  7.50000000e-01  1.05819000e+05  1.58720000e+04
  3.61965000e+03  1.03080000e+03  3.39908000e+02  1.24538000e+02  1.24538000e+02
  4.95135000e+01  2.08056000e+01  6.58346000e+00  2.56468000e+00  5.59763000e-01
  1.83273000e-01  5.89776000e+02  1.39849000e+02  4.51413000e+01  1.68733000e+01
  6.74110000e+00  6.74110000e+00  2.77152000e+00  1.02387000e+00  3.81368000e-01
  1.09437000e-01  7.50000000e-01  4.56324000e+03  6.82024000e+02  1.54973000e+02
  4.44553000e+01  1.30290000e+01  1.82773000e+00  2.09642000e+01  4.80331000e+00
  1.45933000e+00  2.09642000e+01  4.80331000e+00  1.45933000e+00  4.83456000e-01
  4.83456000e-01  1.45585000e-01  1.45585000e-01  6.26000000e-01  3.38650000e+01
  5.09479000e+00  1.15879000e+00  3.25840000e-01  1.02741000e-01  7.50000000e-01
Contraction coefficients                   R   N=          95
  7.38000247e-04  5.71800191e-03  2.94950099e-02  1.17286039e-01  3.62949121e-01
  5.84149195e-01  1.34176973e-01  6.24249876e-01  2.91755942e-01  1.00000000e+00
  1.00000000e+00  1.00000000e+00  1.00000000e+00  2.39099969e-03  1.85039976e-02
  8.13769893e-02  2.21551971e-01  7.72568898e-01 -1.57224381e+00  9.92388882e-01
  1.00000000e+00  1.00000000e+00  1.00000000e+00  1.00000000e+00  7.38000247e-04
  5.71800191e-03  2.94950099e-02  1.17286039e-01  3.62949121e-01  5.84149195e-01
  1.34176973e-01  6.24249876e-01  2.91755942e-01  1.00000000e+00  1.00000000e+00
  1.00000000e+00  1.00000000e+00  2.39099969e-03  1.85039976e-02  8.13769893e-02
  2.21551971e-01  7.72568898e-01 -1.57224381e+00  9.92388882e-01  1.00000000e+00
  1.00000000e+00  1.00000000e+00  1.00000000e+00  7.38000247e-04  5.71800191e-03
  2.94950099e-02  1.17286039e-01  3.62949121e-01  5.84149195e-01  1.34176973e-01
  6.24249876e-01  2.91755942e-01  1.00000000e+00  1.00000000e+00  1.00000000e+00
  1.00000000e+00  2.39099969e-03  1.85039976e-02  8.13769893e-02  2.21551971e-01
  7.72568898e-01 -1.57224381e+00  9.92388882e-01  1.00000000e+00  1.00000000e+00
  1.00000000e+00  1.00000000e+00  1.96665025e-03  1.52306019e-02  7.61269097e-02
  2.60801033e-01  6.16462078e-01  2.21006028e-01  1.14660081e-01  9.19999648e-01
 -3.03068213e-03  4.02486927e-02  2.37593957e-01  8.15853851e-01  1.00000000e+00
  1.00000000e+00  1.00000000e+00  1.00000000e+00  1.00000000e+00  2.54938145e-02
  1.90373109e-01  8.52161486e-01  1.00000000e+00  1.00000000e+00  1.00000000e+00
Coordinates of each shell                  R   N=         144
 -1.58542959e+00  2.75684106e+00 -8.02691131e-02 -1.58542959e+00  2.75684106e+00
 -8.02691131e-02 -1.58542959e+00  2.75684106e+00 -8.02691131e-02 -1.58542959e+00
  2.75684106e+00 -8.02691131e-02 -1.58542959e+00  2.75684106e+00 -8.02691131e-02
 -1.58542959e+00  2.75684106e+00 -8.02691131e-02 -1.58542959e+00  2.75684106e+00
 -8.02691131e-02 -1.58542959e+00  2.75684106e+00 -8.02691131e-02 -1.58542959e+00
  2.75684106e+00 -8.02691131e-02 -1.58542959e+00  2.75684106e+00 -8.02691131e-02
 -1.58542959e+00  2.75684106e+00 -8.02691131e-02 -1.58542959e+00  2.75684106e+00
 -8.02691131e-02  3.17891396e+00 -2.32896615e-03 -1.28987842e-01  3.17891396e+00
 -2.32896615e-03 -1.28987842e-01  3.17891396e+00 -2.32896615e-03 -1.28987842e-01
  3.17891396e+00 -2.32896615e-03 -1.28987842e-01  3.17891396e+00 -2.32896615e-03
 -1.28987842e-01  3.17891396e+00 -2.32896615e-03 -1.28987842e-01  3.17891396e+00
 -2.32896615e-03 -1.28987842e-01  3.17891396e+00 -2.32896615e-03 -1.28987842e-01
  3.17891396e+00 -2.32896615e-03 -1.28987842e-01  3.17891396e+00 -2.32896615e-03
 -1.28987842e-01  3.17891396e+00 -2.32896615e-03 -1.28987842e-01  3.17891396e+00
 -2.32896615e-03 -1.28987842e-01 -1.59293880e+00 -2.74766923e+00 -1.77508185e-01
 -1.59293880e+00 -2.74766923e+00 -1.77508185e-01 -1.59293880e+00 -2.74766923e+00
 -1.77508185e-01 -1.59293880e+00 -2.74766923e+00 -1.77508185e-01 -1.59293880e+00
 -2.74766923e+00 -1.77508185e-01 -1.59293880e+00 -2.74766923e+00 -1.77508185e-01
 -1.59293880e+00 -2.74766923e+00 -1.77508185e-01 -1.59293880e+00 -2.74766923e+00
 -1.77508185e-01 -1.59293880e+00 -2.74766923e+00 -1.77508185e-01 -1.59293880e+00
 -2.74766923e+00 -1.77508185e-01 -1.59293880e+00 -2.74766923e+00 -1.77508185e-01
 -1.59293880e+00 -2.74766923e+00 -1.77508185e-01 -1.64601467e-03 -1.55903496e-02
  8.80769673e-01 -1.64601467e-03 -1.55903496e-02  8.80769673e-01 -1.64601467e-03
 -1.55903496e-02  8.80769673e-01 -1.64601467e-03 -1.55903496e-02  8.80769673e-01
 -1.64601467e-03 -1.55903496e-02  8.80769673e-01 -1.64601467e-03 -1.55903496e-02
  8.80769673e-01 -1.64601467e-03 -1.55903496e-02  8.80769673e-01 -1.64601467e-03
 -1.55903496e-02  8.80769673e-01  6.69136792e-04 -5.17974967e-02  2.93254984e+00
  6.69136792e-04 -5.17974967e-02  2.93254984e+00  6.69136792e-04 -5.17974967e-02
  2.93254984e+00  6.69136792e-04 -5.17974967e-02  2.93254984e+00
Total Energy                               R     -1.417517971400548e+03
Alpha Orbital Energies                     R   N=         102
  9.11600245e-09  9.11603720e-09  9.13219999e-09  3.25212949e-07  4.14888690e-07
  4.15016678e-07  7.22743620e-07  7.25061253e-07  7.25080715e-07  7.49553389e-07
  7.49667153e-07  7.88571174e-07  1.92642450e-06  1.54380602e-05  2.25045023e-05
  2.25256692e-05  4.26649090e-05  6.72437871e-05  8.55909648e-05  8.56159116e-05
  8.79061011e-05  1.18369494e-04  1.31275323e-04  1.31283424e-04  1.47583226e-04
  1.47684573e-04  1.60086090e-04  1.77835417e-04  1.77849073e-04  1.85405867e-04
  1.91507694e-04  2.00945041e-04  2.00959006e-04  2.88759364e-04  3.23634372e-04
  3.23646612e-04  5.69221680e-04  9.48621417e-04  9.49757128e-04  1.04250326e-03
  1.04339398e-03  1.37507591e-03  1.58819595e-03  1.60539888e-03  1.60659526e-03
  2.61740740e-03  2.61756640e-03  2.87818274e-03  3.01145727e-03  3.46758679e-03
  3.46918365e-03  3.75071651e-03  4.30278469e-03  4.30391609e-03  4.77215657e-03
  4.77459706e-03  4.77540223e-03  5.15436314e-03  5.32674229e-03  5.32692485e-03
  5.33063351e-03  5.45048446e-03  5.45053663e-03  5.50466626e-03  6.31629628e-03
  6.31895771e-03  7.41083231e-03  7.82484671e-03  7.82625546e-03  8.87284785e-03
  1.77328462e-02  1.77555057e-02  2.01542676e-02  9.74790399e-01  9.74809049e-01
  9.78338705e-01  9.83512573e-01  9.84612019e-01  9.84636189e-01  9.84638282e-01
  9.85444777e-01  9.85447535e-01  9.87191699e-01  9.92933480e-01  9.92935101e-01
  9.94053958e-01  1.00000000e+00  1.00000000e+00  1.00000000e+00  1.00000005e+00
  1.00000020e+00  1.00000020e+00  1.00000044e+00  1.00000383e+00  1.00000383e+00
  1.00000389e+00  1.00001166e+00  1.00001211e+00  1.00001211e+00  1.00001226e+00
  1.00001251e+00  1.00001251e+00
Alpha MO coefficients                      R   N=       10404
  1.18726646e+00 -1.47542269e+00  1.11271789e+00 -7.49974007e-01  3.12470136e-01
 -1.92942026e-01  4.23036703e-03 -8.69213329e-03  3.12586146e-03  4.24356355e-03
 -8.43779833e-03  3.16205035e-03 -3.77122789e-03  9.32004770e-03 -2.47997427e-03
  3.60310231e-03 -1.27077354e-02  1.51194005e-03 -2.65622273e-02  4.92572507e-02
 -1.54543462e-02  7.36223421e-04 -1.13803601e-03  3.84279837e-04 -2.44535830e-04
  2.38172275e-04 -2.25919158e-01  2.80751049e-01 -2.11734566e-01  1.42711434e-01
 -5.94637178e-02  3.66845611e-02  1.82514174e-03 -1.86403570e-03 -6.59672837e-04
  1.78352898e-03 -1.45807466e-03 -6.58564013e-04 -1.88971568e-03  3.96449924e-03
  5.74422003e-04  2.44113462e-03 -9.36809381e-03 -4.94392677e-04 -1.05998868e-02
  4.06931168e-03  3.16737959e-03 -2.12488112e-04 -1.63857512e-04 -2.30295015e-03
 -2.46766817e-05  9.52531082e-04 -9.57534901e-01  1.18993677e+00 -8.97428942e-01
  6.04889115e-01 -2.52050798e-01  1.55631695e-01 -2.82371939e-03 -7.29318657e-03
 -2.78009856e-03 -2.96781861e-03 -7.00717520e-03 -2.80095845e-03  1.76079918e-03
  8.23048417e-03  2.28246267e-03  1.49193191e-04 -1.20546433e-02 -1.61595765e-03
  2.01899475e-02  4.00231840e-02  1.38727657e-02 -5.84667555e-04  1.69332711e-03
 -1.17993974e-04  5.25650646e-04  3.14123397e-04 -8.10575506e-06  1.13391624e-05
 -2.24328353e-03  1.23778820e-02  1.99681931e-04 -3.08941288e-05  4.42990000e-03
 -2.44841736e-02 -3.53806131e-04  2.84911496e-04 -1.43970173e-02  7.92315757e-02
  1.34396624e-03  1.97202175e-04 -7.87284727e-04  5.21659024e-03  1.70170200e-03
  8.71586479e-03 -1.95156247e-07 -1.14790377e-04  6.88926405e-05  2.41989596e-04
 -1.36715424e-03  1.88277094e-05  4.23742892e-01 -5.26586616e-01  3.97129209e-01
 -2.67658046e-01  1.11507449e-01 -6.88376222e-02  3.26591846e-03 -2.09262249e-03
  1.14131978e-03  2.89061059e-03 -2.22120768e-03  1.14992086e-03 -5.06472586e-03
  1.18004637e-03 -9.30375637e-04  1.00574395e-02  5.31758025e-04  6.36141825e-04
 -1.33082422e-02  1.53605860e-02 -5.55074209e-03  3.05683993e-04  1.74653295e-03
  1.36554358e-03  8.26778457e-04 -4.63128736e-04 -1.23695299e+00  1.53716417e+00
 -1.15926038e+00  7.81320721e-01 -3.25509015e-01  2.00865582e-01  9.93536965e-03
  3.89026867e-04 -3.40765556e-03  9.71019319e-03  3.15573770e-04 -3.44137140e-03
 -1.02862396e-02 -7.61446629e-04  2.73833960e-03  1.32872175e-02  1.73090196e-03
 -1.76795936e-03 -5.79976431e-02 -9.71240350e-04  1.69439040e-02 -7.65672476e-04
 -9.77153201e-04  4.46943334e-04  1.03282660e-04 -1.56561325e-04  8.17252384e-01
 -1.01560413e+00  7.65936843e-01 -5.16242613e-01  2.15089879e-01 -1.32802982e-01
  4.56972206e-03  4.95478571e-03  2.35607660e-03  4.22367164e-03  4.98481430e-03
  2.37799332e-03 -6.08711297e-03 -4.33614617e-03 -1.90736731e-03  1.06980107e-02
  3.95200363e-03  1.27544474e-03 -2.19581128e-02 -3.13820438e-02 -1.17890272e-02
  4.58027813e-04  1.23799998e-03 -1.46827089e-03  6.33709675e-04  3.04600159e-04
 -2.06727252e-05  3.01741567e-05 -1.23332926e-02 -2.25377636e-03 -8.20106371e-05
 -1.47567486e-05  2.43613505e-02  4.45753966e-03  2.53302759e-04  4.07525525e-04
 -7.91048400e-02 -1.44209859e-02 -3.44497955e-04  6.50641466e-05 -5.20954119e-03
 -1.11262054e-03  8.63142510e-03 -1.53277379e-03 -1.81266620e-05 -1.66050582e-04
  8.77112721e-05  1.32895544e-03  2.46920517e-04  1.02240993e-04  8.87666622e-01
 -1.10225593e+00  8.26405643e-01 -5.50543957e-01  2.19370171e-01 -1.41092625e-01
 -2.09549341e-04  3.76282561e-04 -6.81041393e-04  7.27492205e-05 -1.12795172e-04
 -7.27815552e-04  1.72330159e-03 -2.99370991e-03  2.10501434e-04 -6.04489751e-03
  1.04884010e-02  7.58155906e-05 -1.44624669e-02  2.54168681e-02 -1.39281518e-02
  3.53873178e-04 -8.37968949e-04  1.50933554e-03  1.91831057e-03  3.26732023e-03
  8.92197555e-01 -1.10788177e+00  8.30623473e-01 -5.53357217e-01  2.20507160e-01
 -1.41737736e-01  4.30181994e-04  1.09146257e-05 -7.00899234e-04 -1.35252055e-04
  1.20942091e-05 -7.38013039e-04 -3.46371471e-03 -1.51427511e-06  2.81410082e-04
  1.21266429e-02 -6.88007499e-06 -1.39728343e-04  2.91826839e-02  2.07305874e-04
 -1.44122842e-02  3.23804223e-04  1.81782683e-03  5.71347993e-05 -3.78940925e-03
 -2.14290442e-05  8.90133421e-01 -1.10532181e+00  8.28719724e-01 -5.52105752e-01
  2.20021890e-01 -1.41502105e-01 -1.95314624e-04 -3.26924181e-04 -6.84214246e-04
  8.82040276e-05  1.61888698e-04 -7.13700629e-04  1.71783421e-03  2.95288085e-03
  3.07610045e-04 -6.06259568e-03 -1.04317885e-02 -2.87525083e-04 -1.45886696e-02
 -2.49757573e-02 -1.48549594e-02  2.58294855e-04 -9.59555587e-04 -1.59053999e-03
  1.84358855e-03 -3.24334919e-03 -5.05593320e-03  7.04177833e-03 -3.11962309e-06
  1.86578464e-04 -1.14936341e-02 -2.30510545e-02  3.79339821e-05 -7.98020352e-04
  4.70746659e-02  1.88518647e-01  1.58267249e-04  5.04262062e-04 -3.38574339e-02
  2.14554690e-02  2.52142373e-05 -6.64709747e-04  2.07110295e-05 -1.38721758e-05
  1.28971165e-03 -7.70589497e-02  4.71153466e-02  3.57175591e-05 -4.40159434e-04
  2.50071545e-02  3.76207702e-03  6.44550010e-03 -4.46434157e-02  4.73539357e-02
  5.92615959e-02 -3.13203872e-01 -9.71338001e-01  1.69798221e+00 -5.06751218e-01
 -9.67099328e-01  1.69059542e+00 -5.05265015e-01  7.45657211e-01 -1.30333930e+00
  3.84584819e-01 -4.78106405e-01  8.35444356e-01 -2.38897500e-01  9.51662363e-02
 -1.66619753e-01  6.36120323e-02  2.67498762e-02 -9.98452865e-03  1.73351168e-02
  2.26395754e-02  3.86024934e-02  3.72816411e-03  6.46795680e-03 -4.45911321e-02
  4.72830266e-02  5.93085406e-02 -3.13216228e-01  1.95101089e+00  6.56271586e-03
 -5.37252842e-01  1.94252474e+00  6.54637274e-03 -5.35633216e-01 -1.49755777e+00
 -4.96453679e-03  4.08000021e-01  9.59889355e-01  3.06233744e-03 -2.53898988e-01
 -1.91191466e-01 -8.94832359e-04  6.66426995e-02  2.62124160e-02  2.14124371e-02
 -4.44989772e-05 -4.44748818e-02 -2.49054057e-04  3.76838410e-03  6.44263760e-03
 -4.46611793e-02  4.73809825e-02  5.92414020e-02 -3.13271111e-01 -9.75734737e-01
 -1.67604190e+00 -5.66206977e-01 -9.71474950e-01 -1.66872280e+00 -5.64460446e-01
  7.49046542e-01  1.28666845e+00  4.30232315e-01 -4.80323024e-01 -8.25072714e-01
 -2.68182346e-01  9.55961832e-02  1.63966660e-01  6.94176040e-02  2.56132548e-02
 -1.13989029e-02 -1.96934339e-02  2.17704067e-02 -3.83449031e-02  1.22319174e-01
 -1.53469135e-01 -2.01172272e-04 -6.32900950e-05  2.68738944e-03 -9.56535551e-02
  7.13311946e-05  6.76734969e-04 -3.82837543e-02  8.64959748e-01  6.05357652e-04
  4.62370617e-04 -2.83976431e-02 -4.67280127e-02  1.95127123e-05  1.43034904e-03
  1.19131931e-04 -2.17498557e-05  1.45638859e-02 -2.04955601e-01 -1.92675461e-01
 -7.77519486e-05 -8.99885033e-04  5.08476584e-02 -4.51062472e-03 -6.28940491e-03
  5.14094031e-02 -6.70172027e-02  3.62938284e-02  2.03034853e-02  6.20434710e-01
 -1.17125892e+00  3.81108663e-01  6.22864412e-01 -1.17042173e+00  3.80937661e-01
 -4.47880583e-01  8.77578970e-01 -2.85095008e-01  2.31047318e-01 -5.17730075e-01
  1.66951431e-01 -1.10252363e-01  1.42888742e-01 -4.01382382e-02 -7.07862323e-03
  4.48479140e-03 -1.56775604e-02 -2.81914505e-02 -6.58296472e-03  9.16340960e-03
  1.28305644e-02 -1.04701259e-01  1.36504146e-01 -7.42063172e-02 -4.00501448e-02
  2.68981774e+00  1.00655046e-02 -8.16880861e-01  2.69085394e+00  1.00919334e-02
 -8.16500689e-01 -1.99785101e+00 -7.34641896e-03  6.11142758e-01  1.14422620e+00
  3.93586234e-03 -3.57979996e-01 -3.63726734e-01 -1.35631713e-03  8.66397697e-02
  1.33541481e-02  3.35670327e-02  1.89570846e-04 -3.99014683e-02 -1.91617252e-04
 -4.70596200e-03 -6.55777456e-03  5.36159793e-02 -6.98933228e-02  3.78601520e-02
  2.11254923e-02  6.52260703e-01  1.20335084e+00  4.40085234e-01  6.54668109e-01
  1.20254898e+00  4.39876954e-01 -4.71720869e-01 -9.01272732e-01 -3.29261597e-01
  2.45092992e-01  5.31034178e-01  1.92951378e-01 -1.14154006e-01 -1.47792162e-01
 -4.70870678e-02 -6.33876355e-03  5.17898286e-03  1.76445002e-02 -2.77335490e-02
  7.43410163e-03 -1.32903530e-04  2.18883863e-04 -6.41628657e-03 -5.36712798e-05
  1.57073608e-04 -4.97105660e-04  1.66738245e-01  1.77680398e-03 -3.95300410e-04
 -1.10395292e-03  1.47004838e-01  1.54665933e-03  3.47022613e-04 -3.13643391e-04
 -4.92550103e-02 -2.08642461e-03  8.94842125e-02 -4.48296245e-04  2.74772062e-05
  5.91938898e-04  5.06506837e-06 -4.71596507e-02 -4.91055586e-04 -4.07908581e-04
  8.03658583e-03  1.12008532e-02 -9.15758076e-02  1.19393396e-01 -6.48523409e-02
 -3.55520927e-02 -1.18956586e+00  2.03490453e+00 -6.78085139e-01 -1.18878028e+00
  2.03637851e+00 -6.77725205e-01  8.90910582e-01 -1.50736375e+00  5.07583473e-01
 -5.24845758e-01  8.55453630e-01 -2.97880508e-01  1.45998470e-01 -2.83304788e-01
  7.07033907e-02  1.23923150e-02 -1.60300827e-02  2.37741557e-02  7.85491300e-03
  3.63177581e-02 -1.10750563e-04 -1.55215455e-04  1.26666888e-03 -1.65198436e-03
  8.86095491e-04  5.62509254e-04 -3.25955426e-02 -4.78708472e-02  9.16030563e-03
 -3.26027877e-02 -4.49750547e-02  9.20672305e-03  2.42451884e-02  5.27902262e-02
 -6.55344052e-03 -1.39685373e-02 -6.42008458e-02  3.25249109e-03  4.34345874e-03
 -2.84208240e-02 -1.55627730e-03 -3.10644557e-04  4.77385197e-06 -4.81606835e-03
  4.73821790e-04  2.39234383e-02 -7.93164270e-03 -1.10482844e-02  9.03497409e-02
 -1.17794953e-01  6.39701018e-02  3.51622329e-02  1.18006730e+00  1.97816074e+00
  7.39334302e-01  1.17922577e+00  1.97966573e+00  7.39030674e-01 -8.84164837e-01
 -1.46489749e+00 -5.52880053e-01  5.21601062e-01  8.30536264e-01  3.23456372e-01
 -1.44096208e-01 -2.76762656e-01 -7.95734840e-02 -1.07653949e-02  1.72594015e-02
  2.42949214e-02 -6.13876402e-03  3.56178729e-02  1.50555821e-05 -1.19231658e-05
  8.24525122e-05 -6.12207087e-03 -9.73625785e-05 -4.15541144e-06 -1.77693992e-03
  1.66696574e-01  2.91764643e-03 -1.97979392e-04 -1.58070209e-03  1.47559708e-01
  2.60081883e-03 -1.52116029e-03 -1.04442393e-03 -4.90526378e-02 -2.20424762e-03
 -8.92122646e-02  9.14882156e-07  8.52799553e-05  2.62747692e-05  5.06170655e-04
 -4.72685341e-02 -8.68348171e-04 -9.72876870e-04  2.53829975e-04  2.24411619e-03
 -1.09473459e-04 -1.97205976e-02  6.04950154e-02  2.38558006e-01 -4.42536848e-01
 -1.89911944e+00  2.39337590e-01 -4.44039762e-01 -1.91065702e+00 -1.74843990e-01
  3.23956318e-01  1.35528402e+00  9.88007591e-02 -1.82170353e-01 -6.80546074e-01
 -1.53463394e-02  2.94796083e-02  1.63158730e-01 -7.33942872e-03 -7.50558621e-03
  1.29425811e-02 -5.75437712e-03 -9.64425913e-03 -9.81475851e-04  1.73161570e-04
  2.73734989e-03 -9.34957242e-04 -1.77585118e-02  5.55257522e-02 -5.28454921e-01
  4.54677261e-02 -1.88407368e+00 -5.30408045e-01  4.57398204e-02 -1.89553364e+00
  3.85798957e-01 -3.24779117e-02  1.34445600e+00 -2.14481993e-01  1.63859942e-02
 -6.74931838e-01  3.61123291e-02 -3.96767567e-03  1.61226760e-01 -7.43739223e-03
  1.47780815e-02  2.94703586e-05  1.12849348e-02 -3.78964264e-04 -9.77120377e-04
  2.28601215e-04  2.40373559e-03 -3.68532628e-04 -1.91780177e-02  5.92505680e-02
  2.29764832e-01  5.13924521e-01 -1.87937643e+00  2.30502956e-01  5.15884846e-01
 -1.89083276e+00 -1.68492880e-01 -3.74752790e-01  1.34092604e+00  9.54343861e-02
  2.07337631e-01 -6.72693707e-01 -1.45837693e-02 -3.58277458e-02  1.61508581e-01
 -8.04538692e-03 -7.23936736e-03 -1.22698402e-02 -6.20630819e-03  9.87187482e-03
  8.30568037e-02 -9.61623431e-02 -3.31402931e-04  5.88128700e-04 -2.89146170e-02
  6.13107996e-02  7.20231518e-04 -2.09905301e-03  1.10871995e-01  6.87762338e-02
  2.28797189e-03 -3.38175364e-03  1.61887106e-01  3.40878927e-02 -5.25350235e-04
 -8.80232594e-04 -4.08213387e-04 -1.20351858e-04  1.72881601e-03 -2.00365620e-01
 -9.98016204e-02 -2.38787383e-04 -1.21679675e-03  7.36080014e-02  3.75787433e-05
  1.86863046e-04 -1.20153941e-03  1.92268293e-03 -3.93675941e-03  9.06136767e-03
 -2.37980734e+00 -1.36696777e+00 -2.49718965e-02 -2.39387290e+00 -1.37482894e+00
 -2.51288348e-02  1.70172575e+00  9.78856963e-01  1.77978579e-02 -8.63994784e-01
 -5.00177691e-01 -8.86845761e-03  2.23469341e-01  1.26917567e-01  4.26557143e-03
 -5.60495223e-04 -4.22430818e-03 -2.79660160e-03 -1.77813927e-02  1.02639648e-02
 -3.41161884e-04 -2.91490156e-03  1.77911136e-02 -2.92716795e-02  6.49284828e-02
 -1.54166079e-01  8.40325314e-02 -1.24278170e+00  3.31547492e-01  8.12872973e-02
 -1.25008114e+00  3.33846704e-01 -8.07407855e-02  8.88961049e-01 -2.34849711e-01
  8.89684729e-02 -4.51994978e-01  1.13397296e-01  1.35273272e-02  1.16860266e-01
 -5.87759232e-02  8.54095723e-03  5.89210251e-03 -2.61724263e-03 -4.07668476e-03
  9.09737824e-03  3.40936611e-04  2.71904903e-03 -1.66838857e-02  2.73749881e-02
 -6.03228128e-02  1.43070357e-01 -1.27150923e+00  8.20259285e-01 -2.72396223e-01
 -1.28047897e+00  8.22480842e-01 -2.74356952e-01  8.99947207e-01 -6.03270724e-01
  1.92494340e-01 -4.35378998e-01  3.45146203e-01 -9.18090407e-02  1.28973099e-01
 -6.02186824e-02  5.20228916e-02 -7.72450473e-03  2.40645852e-04  6.82664165e-03
 -1.14065652e-02 -2.51016580e-03 -1.14474621e-03  1.32281414e-03 -1.71971676e-02
 -8.65319439e-03  1.78300714e-04 -8.57927923e-04  3.26145839e-02  1.64340858e-02
 -8.87563101e-04 -4.29986758e-04  1.11276971e-01  5.59450128e-02 -5.48138015e-04
 -8.54196316e-04 -3.46579268e-02 -1.69698932e-02 -2.76968595e-02  1.44586982e-02
  4.84632500e-05  1.85071137e-03  1.06107907e-03 -1.76127929e-02 -8.88658403e-03
 -9.11349753e-04 -4.01745275e-04 -3.24679856e-03  1.99007977e-02 -3.26706377e-02
  7.20974351e-02 -1.71106829e-01 -1.78275482e-01 -1.16949704e-02  3.48745502e-01
 -1.77529551e-01 -1.48851217e-02  3.51119149e-01  1.38942921e-01 -1.15192598e-02
 -2.47323569e-01 -9.71774322e-02  5.20592866e-02  1.20073111e-01  4.91434452e-03
  2.20800982e-02 -6.35911232e-02  9.65002306e-03 -3.55726600e-03  5.37363829e-03
  1.24268579e-03  4.37289348e-03  1.65795457e-04  1.46655580e-03 -8.92826217e-03
  1.47093927e-02 -3.27459914e-02  7.78628636e-02 -4.93576468e-02 -2.45312042e+00
 -2.30512657e-01 -4.80115482e-02 -2.46752521e+00 -2.32045981e-01  4.57300546e-02
  1.75474505e+00  1.63708066e-01 -4.74676174e-02 -8.92310296e-01 -8.01689329e-02
 -6.19837935e-03  2.29530760e-01  3.54830046e-02 -4.51766348e-03 -2.50164458e-03
 -4.70054232e-03  2.06425557e-03  1.82993753e-02  2.00150735e-04  1.78402489e-03
 -1.08550091e-02  1.78915382e-02 -3.99185464e-02  9.51344890e-02  2.01618238e+00
 -1.09916905e+00 -2.40591404e-01  2.02701639e+00 -1.10734784e+00 -2.42254536e-01
 -1.44860928e+00  7.75255126e-01  1.70460148e-01  7.51523028e-01 -3.68675170e-01
 -8.24590211e-02 -1.82202429e-01  1.14018183e-01  3.96989213e-02 -5.30820117e-03
  5.84076501e-03  6.92463356e-04  1.35890360e-02  1.06512684e-02  9.72378051e-04
 -1.12314979e-03  8.61926331e-03 -1.72277099e-02 -6.08876390e-04  7.32075779e-04
 -1.63397006e-02  3.26773045e-02  1.70301172e-03  4.77199196e-04 -5.58140560e-02
  1.11494097e-01  3.50115200e-03 -7.37754701e-04  1.79960406e-02 -3.50968397e-02
  1.32756471e-02  2.70247784e-02 -1.64395935e-05 -1.87258994e-03 -9.76073741e-04
  8.82511223e-03 -1.77432564e-02  4.14031257e-04  3.04815118e-04 -1.26962630e-03
  5.63232697e-03 -1.00327465e-02  2.64107268e-02 -5.14868617e-02  1.84934269e-01
 -6.50012278e-01 -2.28672492e+00  1.86472162e-01 -6.55407568e-01 -2.30124946e+00
 -1.29631347e-01  4.55422757e-01  1.63104920e+00  6.10787037e-02 -2.13580002e-01
 -8.24621754e-01 -2.84204590e-02  8.39128581e-02  2.64663452e-01  1.02925033e-03
 -4.24943398e-03 -4.07222732e-04  4.43186642e-03  3.27523628e-03  3.18327119e-07
  4.81507552e-07 -4.28341868e-06  6.71312418e-06 -9.73172053e-06  1.70241199e-05
 -7.25039556e-04 -3.75493275e-01 -7.30289875e-03 -7.30030839e-04 -3.78510360e-01
 -7.36059819e-03  5.13196130e-04  2.63594325e-01  5.13325082e-03 -2.50004213e-04
 -1.24402850e-01 -2.43680429e-03  7.63618286e-05  4.01464830e-02  7.97823433e-04
 -2.38894760e-04 -9.30402277e-05 -7.76169283e-03 -1.51511761e-04 -4.48195773e-03
 -3.05576237e-04  1.26850458e-03 -5.62289337e-03  1.00194052e-02 -2.63997294e-02
  5.14779487e-02 -1.86383926e-01 -7.30326327e-01  2.26318492e+00 -1.87934821e-01
 -7.36229831e-01  2.27751448e+00  1.30639958e-01  5.12719447e-01 -1.61455359e+00
 -6.15363167e-02 -2.42568391e-01  8.16879777e-01  2.86227402e-02  9.31706161e-02
 -2.61635140e-01 -1.04465647e-03  4.36444488e-03 -1.92168099e-04 -4.42005439e-03
  3.15254643e-03 -1.29027089e-06  1.97153999e-06 -2.37210791e-05 -1.61107228e-02
 -2.86299131e-04  6.25883518e-07  7.18837303e-05  4.35666255e-02  7.72193169e-04
 -1.74179449e-05 -6.00208306e-06  8.93903282e-03  1.46143374e-04  1.44725621e-03
 -2.87426150e-04  4.70315339e-02  7.86410857e-04 -2.10312149e-02 -1.02289140e-06
  4.43801876e-06  1.01438038e-05 -6.84985203e-05 -4.33301572e-02 -7.59899768e-04
 -1.81246428e-04  7.30373345e-04 -3.21122719e-03  5.73218965e-03 -1.51761878e-02
  2.95942332e-02 -4.80760119e-01  1.60741184e-01  1.31843238e+00 -4.84657689e-01
  1.62127810e-01  1.32680351e+00  3.37350292e-01 -1.12355062e-01 -9.40424182e-01
 -1.59084717e-01  5.23032279e-02  4.75517396e-01  5.62099795e-02 -2.55415702e-02
 -1.52599598e-01 -7.39517362e-04 -5.36022668e-03 -4.31394092e-03  1.82178275e-03
 -4.34203945e-03  3.58900956e-04 -1.46480163e-03  6.46393937e-03 -1.15307664e-02
  3.04544073e-02 -5.93968352e-02 -7.96496704e-01  4.77906317e-02 -2.62523459e+00
 -8.03037101e-01  4.80963283e-02 -2.64189164e+00  5.58564842e-01 -3.40746665e-02
  1.87262183e+00 -2.63112650e-01  1.72021994e-02 -9.47027879e-01  1.04870811e-01
 -5.52776146e-03  3.03685496e-01  1.23975602e-03  2.12797392e-03  6.33365827e-05
 -5.77939220e-03 -2.43507756e-05 -1.81745707e-04  7.27909647e-04 -3.19526986e-03
  5.70681081e-03 -1.51323838e-02  2.95182291e-02 -4.82049405e-01 -2.04959043e-01
  1.31096782e+00 -4.85955087e-01 -2.06622332e-01  1.31927846e+00  3.38268292e-01
  1.43920719e-01 -9.35182251e-01 -1.59543293e-01 -6.83151427e-02  4.73028161e-01
  5.63751432e-02  3.06355142e-02 -1.51505253e-01 -4.71603324e-04 -5.19592174e-03
  4.29971246e-03  2.00192888e-03  4.51725156e-03  2.83097996e-05 -2.20517453e-05
 -1.61231721e-02  2.97449028e-05 -4.24322288e-06 -9.43869509e-05  4.35503015e-02
 -7.19763569e-05 -2.48962699e-05  2.94930975e-04  8.78766957e-03 -3.57880956e-05
  2.48832664e-05  8.83148226e-05  4.69256483e-02 -4.45485188e-04  2.10046225e-02
 -8.92156969e-04 -7.29901048e-05 -7.61421480e-05 -1.24853714e-05 -4.32637969e-02
  7.31330742e-05  1.01686533e-04 -2.94158356e-06 -6.32317910e-07  1.50506744e-05
 -1.57089794e-05 -6.35356779e-06  2.16244133e-05  1.70031474e+00  9.78123036e-01
  1.98899123e-02  1.71173831e+00  9.84697553e-01  2.00233031e-02 -1.21016301e+00
 -6.96144846e-01 -1.41565609e-02  6.11250860e-01  3.51600880e-01  7.14432849e-03
 -2.44409360e-01 -1.40592222e-01 -2.79122351e-03 -2.93854143e-06 -1.31592423e-04
  7.97957659e-05 -1.26445797e-02  7.35628659e-03  4.75454973e-07  5.29526355e-07
 -5.39637430e-06  8.43084908e-06 -9.82993242e-06  4.96224914e-06 -2.68390261e-03
 -1.95911679e+00 -3.42319497e-02 -2.70141892e-03 -1.97228192e+00 -3.44618608e-02