
    -----------------------------------------------------------------------
          Psi4: An Open-Source Ab Initio Electronic Structure Package
                               Psi4 1.6 release

                         Git: Rev {HEAD} 77475b5 


    D. G. A. Smith, L. A. Burns, A. C. Simmonett, R. M. Parrish,
    M. C. Schieber, R. Galvelis, P. Kraus, H. Kruse, R. Di Remigio,
    A. Alenaizan, A. M. James, S. Lehtola, J. P. Misiewicz, M. Scheurer,
    R. A. Shaw, J. B. Schriber, Y. Xie, Z. L. Glick, D. A. Sirianni,
    J. S. O'Brien, J. M. Waldrop, A. Kumar, E. G. Hohenstein,
    B. P. Pritchard, B. R. Brooks, H. F. Schaefer III, A. Yu. Sokolov,
    K. Patkowski, A. E. DePrince III, U. Bozkaya, R. A. King,
    F. A. Evangelista, J. M. Turney, T. D. Crawford, C. D. Sherrill,
    J. Chem. Phys. 152(18) 184108 (2020). https://doi.org/10.1063/5.0006002

                            Additional Code Authors
    E. T. Seidl, C. L. Janssen, E. F. Valeev, M. L. Leininger,
    J. F. Gonthier, R. M. Richard, H. R. McAlexander, M. Saitow, X. Wang,
    P. Verma, M. H. Lechner, and A. Jiang

             Previous Authors, Complete List of Code Contributors,
                       and Citations for Specific Modules
    https://github.com/psi4/psi4/blob/master/codemeta.json
    https://github.com/psi4/psi4/graphs/contributors
    http://psicode.org/psi4manual/master/introduction.html#citing-psifour

    -----------------------------------------------------------------------


    Psi4 started on: Saturday, 18 November 2023 08:02AM

    Process ID: 1107376
    Host:       node165.bme.utexas.edu
    PSIDATADIR: /home/liuchw/anaconda3/envs/poltype2022/share/psi4
    Memory:     500.0 MiB
    Threads:    1
    
  ==> Input File <==

--------------------------------------------------------------------------
molecule { 
0 1
C          1.74620       -1.05080        0.18250
N          2.96770       -1.22590        0.93830
C          4.20790       -0.75070        0.46350
C          5.41700       -0.91200        1.42550
C          2.83610       -1.83070        2.26690
O          4.37860       -0.19540       -0.62670
C          0.49640       -1.04020        0.82360
C         -0.69030       -0.69330       -1.27690
C         -0.69900       -0.87610        0.10610
C          0.54570       -0.74670       -1.92620
C          1.74110       -0.91260       -1.20990
H          3.76190       -2.31380        2.58500
H          2.07280       -2.61550        2.26200
H          2.58270       -1.04830        2.98880
N          6.60930       -0.19800        0.91940
H          5.63850       -1.98490        1.46880
H          5.16110       -0.54490        2.42510
H          0.40570       -1.13160        1.90150
H         -1.63560       -0.88150        0.65530
H          0.59670       -0.66530       -3.00930
H          2.65370       -0.96970       -1.79450
N         -1.86950       -0.60480       -2.05600
C          6.49030        1.26440        0.98430
C          7.86250       -0.64920        1.54090
H         -1.68130       -0.10010       -2.92110
H          6.57290        1.59800        2.02760
H          5.51790        1.62350        0.63090
H          8.11140       -1.63500        1.12980
H          7.74260       -0.77830        2.62420
H         -2.74410       -0.97680       -1.79920
H          7.27020        1.65250        0.36300
H          8.61940        0.08150        1.34590
}
memory 208GB
set_num_threads(51)
psi4_io.set_default_path("/scratch/liuchw/Psi4-farH_in17")
set maxiter 500
set freeze_core True
set PROPERTIES_ORIGIN ["COM"]
set cubeprop_tasks ['esp']
set basis MINIX 
E, wfn = properties('hf',properties=['dipole','WIBERG_LOWDIN_INDICES','MULLIKEN_CHARGES'],return_wfn=True)
cubeprop(wfn)
fchk(wfn, "farH_in17-esp_frag.fchk")
clean()
--------------------------------------------------------------------------

  Memory set to 193.715 GiB by Python driver.
  Threads set to 51 by Python driver.

*** tstart() called on node165.bme.utexas.edu
*** at Sat Nov 18 08:02:48 2023

   => Loading Basis Set <=

    Name: MINIX
    Role: ORBITAL
    Keyword: BASIS
    atoms 1, 3-5, 7-11, 23-24 entry C          line    74 file /home/liuchw/anaconda3/envs/poltype2022/share/psi4/basis/minix.gbs 
    atoms 2, 15, 22           entry N          line    88 file /home/liuchw/anaconda3/envs/poltype2022/share/psi4/basis/minix.gbs 
    atoms 6                   entry O          line   102 file /home/liuchw/anaconda3/envs/poltype2022/share/psi4/basis/minix.gbs 
    atoms 12-14, 16-21, 25-32 entry H          line    24 file /home/liuchw/anaconda3/envs/poltype2022/share/psi4/basis/minix.gbs 


         ---------------------------------------------------------
                                   SCF
               by Justin Turney, Rob Parrish, Andy Simmonett
                          and Daniel G. A. Smith
                              RHF Reference
                       51 Threads, 198364 MiB Core
         ---------------------------------------------------------

  ==> Geometry <==

    Molecular point group: c1
    Full point group: C1

    Geometry (in Angstrom), charge = 0, multiplicity = 1:

       Center              X                  Y                   Z               Mass       
    ------------   -----------------  -----------------  -----------------  -----------------
         C           -1.143343723386    -0.371626392387    -0.014216963552    12.000000000000
         N            0.078156276614    -0.546726392387     0.741583036448    14.003074004430
         C            1.318356276614    -0.071526392387     0.266783036448    12.000000000000
         C            2.527456276614    -0.232826392387     1.228783036448    12.000000000000
         C           -0.053443723386    -1.151526392387     2.070183036448    12.000000000000
         O            1.489056276614     0.483773607613    -0.823416963552    15.994914619570
         C           -2.393143723386    -0.361026392387     0.626883036448    12.000000000000
         C           -3.579843723386    -0.014126392387    -1.473616963552    12.000000000000
         C           -3.588543723386    -0.196926392387    -0.090616963552    12.000000000000
         C           -2.343843723386    -0.067526392387    -2.122916963552    12.000000000000
         C           -1.148443723386    -0.233426392387    -1.406616963552    12.000000000000
         H            0.872356276614    -1.634626392387     2.388283036448     1.007825032230
         H           -0.816743723386    -1.936326392387     2.065283036448     1.007825032230
         H           -0.306843723386    -0.369126392387     2.792083036448     1.007825032230
         N            3.719756276614     0.481173607613     0.722683036448    14.003074004430
         H            2.748956276614    -1.305726392387     1.272083036448     1.007825032230
         H            2.271556276614     0.134273607613     2.228383036448     1.007825032230
         H           -2.483843723386    -0.452426392387     1.704783036448     1.007825032230
         H           -4.525143723386    -0.202326392387     0.458583036448     1.007825032230
         H           -2.292843723386     0.013873607613    -3.206016963552     1.007825032230
         H           -0.235843723386    -0.290526392387    -1.991216963552     1.007825032230
         N           -4.759043723386     0.074373607613    -2.252716963552    14.003074004430
         C            3.600756276614     1.943573607613     0.787583036448    12.000000000000
         C            4.972956276614     0.029973607613     1.344183036448    12.000000000000
         H           -4.570843723386     0.579073607613    -3.117816963552     1.007825032230
         H            3.683356276614     2.277173607613     1.830883036448     1.007825032230
         H            2.628356276614     2.302673607613     0.434183036448     1.007825032230
         H            5.221856276614    -0.955826392387     0.933083036448     1.007825032230
         H            4.853056276614    -0.099126392387     2.427483036448     1.007825032230
         H           -5.633643723386    -0.297626392387    -1.995916963552     1.007825032230
         H            4.380656276614     2.331673607613     0.166283036448     1.007825032230
         H            5.729856276614     0.760673607613     1.149183036448     1.007825032230

  Running in c1 symmetry.

  Rotational constants: A =      0.05689  B =      0.00830  C =      0.00761 [cm^-1]
  Rotational constants: A =   1705.56387  B =    248.83645  C =    228.04095 [MHz]
  Nuclear repulsion =  977.054448237724273

  Charge       = 0
  Multiplicity = 1
  Electrons    = 112
  Nalpha       = 56
  Nbeta        = 56

  ==> Algorithm <==

  SCF Algorithm Type is DF.
  DIIS enabled.
  MOM disabled.
  Fractional occupation disabled.
  Guess Type is SAD.
  Energy threshold   = 1.00e-06
  Density threshold  = 1.00e-06
  Integral threshold = 1.00e-12

  ==> Primary Basis <==

  Basis Set: MINIX
    Blend: MINIX
    Number of shells: 62
    Number of basis functions: 92
    Number of Cartesian functions: 92
    Spherical Harmonics?: true
    Max angular momentum: 1

   => Loading Basis Set <=

    Name: (MINIX AUX)
    Role: JKFIT
    Keyword: DF_BASIS_SCF
    atoms 1, 3-5, 7-11, 23-24 entry C          line   198 file /home/liuchw/anaconda3/envs/poltype2022/share/psi4/basis/def2-universal-jkfit.gbs 
    atoms 2, 15, 22           entry N          line   258 file /home/liuchw/anaconda3/envs/poltype2022/share/psi4/basis/def2-universal-jkfit.gbs 
    atoms 6                   entry O          line   318 file /home/liuchw/anaconda3/envs/poltype2022/share/psi4/basis/def2-universal-jkfit.gbs 
    atoms 12-14, 16-21, 25-32 entry H          line    18 file /home/liuchw/anaconda3/envs/poltype2022/share/psi4/basis/def2-universal-jkfit.gbs 

  ==> Integral Setup <==

  DFHelper Memory: AOs need 0.098 GiB; user supplied 145.286 GiB. Using in-core AOs.

  ==> MemDFJK: Density-Fitted J/K Matrices <==

    J tasked:                   Yes
    K tasked:                   Yes
    wK tasked:                   No
    OpenMP threads:              51
    Memory [MiB]:            148773
    Algorithm:                 Core
    Schwarz Cutoff:           1E-12
    Mask sparsity (%):      14.2722
    Fitting Condition:        1E-10

   => Auxiliary Basis Set <=

  Basis Set: (MINIX AUX)
    Blend: DEF2-UNIVERSAL-JKFIT
    Number of shells: 477
    Number of basis functions: 1439
    Number of Cartesian functions: 1691
    Spherical Harmonics?: true
    Max angular momentum: 4

  Minimum eigenvalue in the overlap matrix is 1.7367481738E-01.
  Reciprocal condition number of the overlap matrix is 6.4632077173E-02.
    Using symmetric orthogonalization.

  ==> Pre-Iterations <==

  SCF Guess: Superposition of Atomic Densities via on-the-fly atomic UHF (no occupation information).

   -------------------------
    Irrep   Nso     Nmo    
   -------------------------
     A         92      92 
   -------------------------
    Total      92      92
   -------------------------

  ==> Iterations <==

                           Total Energy        Delta E     RMS |[F,P]|

   @DF-RHF iter SAD:  -652.13802675805289   -6.52138e+02   0.00000e+00 
   @DF-RHF iter   1:  -659.85831225834818   -7.72029e+00   5.82460e-03 DIIS/ADIIS
   @DF-RHF iter   2:  -659.98114497608753   -1.22833e-01   4.49215e-03 DIIS/ADIIS
   @DF-RHF iter   3:  -660.06872233196498   -8.75774e-02   5.05624e-04 DIIS/ADIIS
   @DF-RHF iter   4:  -660.07150119874632   -2.77887e-03   2.20238e-04 DIIS/ADIIS
   @DF-RHF iter   5:  -660.07195600526018   -4.54807e-04   6.79740e-05 DIIS
   @DF-RHF iter   6:  -660.07202373129155   -6.77260e-05   2.83002e-05 DIIS
   @DF-RHF iter   7:  -660.07203270280866   -8.97152e-06   9.79466e-06 DIIS
   @DF-RHF iter   8:  -660.07203380356304   -1.10075e-06   3.12875e-06 DIIS
   @DF-RHF iter   9:  -660.07203392068880   -1.17126e-07   8.22371e-07 DIIS
  Energy and wave function converged.


  ==> Post-Iterations <==

    Orbital Energies [Eh]
    ---------------------

    Doubly Occupied:                                                      

       1A    -20.289186     2A    -15.442454     3A    -15.375279  
       4A    -15.372560     5A    -11.310595     6A    -11.220070  
       7A    -11.215007     8A    -11.212010     9A    -11.204462  
      10A    -11.177455    11A    -11.167531    12A    -11.165623  
      13A    -11.161579    14A    -11.156401    15A    -11.153317  
      16A     -1.364291    17A     -1.234740    18A     -1.208746  
      19A     -1.189890    20A     -1.110416    21A     -1.007566  
      22A     -1.001851    23A     -0.975408    24A     -0.946541  
      25A     -0.939244    26A     -0.838874    27A     -0.824500  
      28A     -0.793662    29A     -0.738161    30A     -0.695473  
      31A     -0.679370    32A     -0.665235    33A     -0.656042  
      34A     -0.647488    35A     -0.630191    36A     -0.628635  
      37A     -0.606498    38A     -0.598216    39A     -0.584045  
      40A     -0.569636    41A     -0.556329    42A     -0.549949  
      43A     -0.546086    44A     -0.534083    45A     -0.530444  
      46A     -0.512754    47A     -0.506726    48A     -0.495672  
      49A     -0.492122    50A     -0.475793    51A     -0.437019  
      52A     -0.382364    53A     -0.368675    54A     -0.338032  
      55A     -0.329553    56A     -0.270230  

    Virtual:                                                              

      57A      0.191312    58A      0.198071    59A      0.254240  
      60A      0.436843    61A      0.453767    62A      0.512223  
      63A      0.522293    64A      0.541115    65A      0.561900  
      66A      0.584969    67A      0.605892    68A      0.635262  
      69A      0.642120    70A      0.663454    71A      0.667394  
      72A      0.669839    73A      0.685798    74A      0.689603  
      75A      0.693950    76A      0.699747    77A      0.714242  
      78A      0.725743    79A      0.736419    80A      0.746590  
      81A      0.762622    82A      0.768297    83A      0.792634  
      84A      0.799990    85A      0.815785    86A      0.855738  
      87A      0.882394    88A      0.890561    89A      0.919489  
      90A      0.958355    91A      1.070516    92A      1.114288  

    Final Occupation by Irrep:
              A 
    DOCC [    56 ]

  @DF-RHF Final Energy:  -660.07203392068880

   => Energetics <=

    Nuclear Repulsion Energy =            977.0544482377242730
    One-Electron Energy =               -2838.0849136757028646
    Two-Electron Energy =                1200.9584315172896822
    Total Energy =                       -660.0720339206889093

Computation Completed


Properties will be evaluated at   0.000000,   0.000000,   0.000000 [a0]

Properties computed using the HF density matrix


 Multipole Moments:

 ------------------------------------------------------------------------------------
     Multipole            Electronic (a.u.)      Nuclear  (a.u.)        Total (a.u.)
 ------------------------------------------------------------------------------------

 L = 1.  Multiply by 2.5417464519 to convert [e a0] to [Debye]
 Dipole X            :        -11.3740370           10.8135854           -0.5604515
 Dipole Y            :         -1.2597614            0.8045397           -0.4552217
 Dipole Z            :         -7.6396527            8.9414283            1.3017756
 Magnitude           :                                                    1.4886075

 ------------------------------------------------------------------------------------
  Mulliken Charges: (a.u.)
   Center  Symbol    Alpha    Beta     Spin     Total
       1     C     2.95969  2.95969  0.00000  0.08063
       2     N     3.66079  3.66079  0.00000 -0.32159
       3     C     2.80359  2.80359  0.00000  0.39282
       4     C     3.07399  3.07399  0.00000 -0.14798
       5     C     3.12300  3.12300  0.00000 -0.24601
       6     O     4.20505  4.20505  0.00000 -0.41010
       7     C     3.07181  3.07181  0.00000 -0.14362
       8     C     2.95215  2.95215  0.00000  0.09571
       9     C     3.07948  3.07948  0.00000 -0.15895
      10     C     3.07732  3.07732  0.00000 -0.15465
      11     C     3.06543  3.06543  0.00000 -0.13087
      12     H     0.43090  0.43090  0.00000  0.13821
      13     H     0.42677  0.42677  0.00000  0.14646
      14     H     0.43392  0.43392  0.00000  0.13217
      15     N     3.65287  3.65287  0.00000 -0.30574
      16     H     0.42974  0.42974  0.00000  0.14052
      17     H     0.43844  0.43844  0.00000  0.12312
      18     H     0.43327  0.43327  0.00000  0.13346
      19     H     0.43399  0.43399  0.00000  0.13201
      20     H     0.43381  0.43381  0.00000  0.13239
      21     H     0.41541  0.41541  0.00000  0.16918
      22     N     3.75927  3.75927  0.00000 -0.51854
      23     C     3.12937  3.12937  0.00000 -0.25874
      24     C     3.12947  3.12947  0.00000 -0.25894
      25     H     0.38056  0.38056  0.00000  0.23888
      26     H     0.44750  0.44750  0.00000  0.10500
      27     H     0.42924  0.42924  0.00000  0.14152
      28     H     0.43539  0.43539  0.00000  0.12923
      29     H     0.44502  0.44502  0.00000  0.10996
      30     H     0.37619  0.37619  0.00000  0.24762
      31     H     0.43343  0.43343  0.00000  0.13315
      32     H     0.43316  0.43316  0.00000  0.13368

   Total alpha = 56.00000, Total beta = 56.00000, Total charge =  0.00000



  Wiberg Bond Indices using Orthogonal Lowdin Orbitals:

  Irrep: 1 Size: 32 x 32

                 1                   2                   3                   4                   5

    1     0.00000000000000     1.02352842779407     0.00141388601683     0.00811574751029     0.00142918792173
    2     1.02352842779407     0.00000000000000     1.10937865136219     0.00620720513429     0.99569078724276
    3     0.00141388601683     1.10937865136219     0.00000000000000     0.96592474812194     0.00176962929377
    4     0.00811574751029     0.00620720513429     0.96592474812194     0.00000000000000     0.00205581033842
    5     0.00142918792173     0.99569078724276     0.00176962929377     0.00205581033842     0.00000000000000
    6     0.00271559334480     0.14418670713518     1.82775878265302     0.04286355465511     0.00902703494573
    7     1.40085389628332     0.02268215700921     0.00869422557987     0.00059663468547     0.00203220006842
    8     0.09206434552355     0.00842549821681     0.00185760337808     0.00009033043110     0.00032144816350
    9     0.00655026131837     0.00668462290118     0.00069399060154     0.00021187820690     0.00036603024624
   10     0.00434976269898     0.00714135723622     0.00009135806288     0.00010785759814     0.00063575260195
   11     1.39349127960710     0.02094018872962     0.00436023938094     0.00039824179612     0.00588036666078
   12     0.00526211033674     0.00212676454060     0.00180326292475     0.00146694626686     0.97596098645934
   13     0.00137573896410     0.00372013592335     0.00473222935885     0.00026871950318     0.97524705421935
   14     0.00055304062190     0.00978879417772     0.00282409597432     0.00006124109813     0.97458280632512
   15     0.00063750190124     0.00457279808386     0.00903079311568     1.00581203222524     0.00112467037798
   16     0.00000996917305     0.00186462357703     0.00364553956246     0.96179119965103     0.00028744051791
   17     0.00002037383410     0.00162318952816     0.00166395637768     0.96310412671705     0.00054074366996
   18     0.00043435012859     0.00350604516607     0.00011065077873     0.00004705722734     0.00098062384989
   19     0.00656382298294     0.00040946295057     0.00014678312506     0.00004134065805     0.00001782099723
   20     0.00656521410550     0.00039381028305     0.00000494846038     0.00000027622106     0.00015905819192
   21     0.00063784539552     0.00332585635155     0.00031036091423     0.00000281445965     0.00012205398878
   22     0.01732990349595     0.00136680116056     0.00044794645470     0.00002250328319     0.00007532010513
   23     0.00000666124159     0.00004122466304     0.00056273034284     0.00206442651335     0.00006382365896
   24     0.00027025564840     0.00070257782291     0.00680080897609     0.00267531475858     0.00001491907429
   25     0.00040085140398     0.00003891637044     0.00000983907721     0.00000014586782     0.00000423767847
   26     0.00000452125830     0.00002703764091     0.00020410656603     0.00022661154542     0.00000041721810
   27     0.00000437300129     0.00004057074497     0.00047229420671     0.00115306436112     0.00000338043945
   28     0.00000349420760     0.00001114390434     0.00009640619167     0.00019531398651     0.00000062667757
   29     0.00000095034952     0.00000357925611     0.00000832761230     0.00124243541005     0.00000393353152
   30     0.00040339333378     0.00004733698377     0.00001259530827     0.00000163666950     0.00000048019995
   31     0.00000055579675     0.00000936611750     0.00012417935112     0.00640415897201     0.00001843569841
   32     0.00004740727176     0.00016799248681     0.00052863494852     0.00660026524675     0.00000522912424

                 6                   7                   8                   9                  10

    1     0.00271559334480     1.40085389628332     0.09206434552355     0.00655026131837     0.00434976269898
    2     0.14418670713518     0.02268215700921     0.00842549821681     0.00668462290118     0.00714135723622
    3     1.82775878265302     0.00869422557987     0.00185760337808     0.00069399060154     0.00009135806288
    4     0.04286355465511     0.00059663468547     0.00009033043110     0.00021187820690     0.00010785759814
    5     0.00902703494573     0.00203220006842     0.00032144816350     0.00036603024624     0.00063575260195
    6     0.00000000000000     0.00496594176897     0.00277851794788     0.00033964149339     0.00097680255945
    7     0.00496594176897     0.00000000000000     0.00340337209690     1.44297721594783     0.10996906765160
    8     0.00277851794788     0.00340337209690     0.00000000000000     1.38750999333590     1.38030596856991
    9     0.00033964149339     1.44297721594783     1.38750999333590     0.00000000000000     0.00565353333234
   10     0.00097680255945     0.10996906765160     1.38030596856991     0.00565353333234     0.00000000000000
   11     0.00954119728453     0.00412198366222     0.00329714770325     0.10788834717078     1.45358848986990
   12     0.00072144127182     0.00087176918934     0.00017450837253     0.00003185450809     0.00012033941760
   13     0.00159085422116     0.00121189158355     0.00011272627496     0.00003706074799     0.00004487357533
   14     0.00299477024980     0.00096668473340     0.00025618457403     0.00001561428081     0.00002042331985
   15     0.00335281120933     0.00012454808766     0.00000665205983     0.00004235248082     0.00000311137397
   16     0.01144856356057     0.00009633586140     0.00004563735606     0.00000837210724     0.00000093204597
   17     0.00986690998445     0.00006804671058     0.00003575217633     0.00000646909377     0.00000228980122
   18     0.00003277281190     0.96775796122396     0.00652561956518     0.00110020494742     0.00039454004777
   19     0.00002232576819     0.00090584155357     0.00050291581269     0.96920254953589     0.00684105508681
   20     0.00005244441398     0.00033960916419     0.00040079597071     0.00661949464452     0.96875204490186
   21     0.00233974654006     0.00653044509686     0.00654609889111     0.00039678121971     0.00122414601444
   22     0.00060114939560     0.00747446856616     1.08846471768653     0.03963753984816     0.03671234912442
   23     0.00149415924726     0.00000382414759     0.00000198159772     0.00000028492946     0.00000035383334
   24     0.00014367349131     0.00003713362861     0.00000443202227     0.00001117199419     0.00000116537522
   25     0.00001254170042     0.00044725007257     0.00029082644122     0.00625991059910     0.00175795882662
   26     0.00017136748815     0.00000101831591     0.00000010350296     0.00000024897314     0.00000021823482
   27     0.00070723329834     0.00000099022586     0.00000031478662     0.00000022254125     0.00000005489846
   28     0.00000491013154     0.00000069916630     0.00000010791616     0.00000017947731     0.00000001730957
   29     0.00001032167125     0.00000012562813     0.00000010233235     0.00000007996627     0.00000013681808
   30     0.00001713579653     0.00001889441817     0.00025882014650     0.00156139167610     0.00556609817420
   31     0.00002576545770     0.00000026642162     0.00000004057865     0.00000010180192     0.00000001209636
   32     0.00003972658102     0.00000702608793     0.00000119257756     0.00000219135293     0.00000056497463

                11                  12                  13                  14                  15

    1     1.39349127960710     0.00526211033674     0.00137573896410     0.00055304062190     0.00063750190124
    2     0.02094018872962     0.00212676454060     0.00372013592335     0.00978879417772     0.00457279808386
    3     0.00436023938094     0.00180326292475     0.00473222935885     0.00282409597432     0.00903079311568
    4     0.00039824179612     0.00146694626686     0.00026871950318     0.00006124109813     1.00581203222524
    5     0.00588036666078     0.97596098645934     0.97524705421935     0.97458280632512     0.00112467037798
    6     0.00954119728453     0.00072144127182     0.00159085422116     0.00299477024980     0.00335281120933
    7     0.00412198366222     0.00087176918934     0.00121189158355     0.00096668473340     0.00012454808766
    8     0.00329714770325     0.00017450837253     0.00011272627496     0.00025618457403     0.00000665205983
    9     0.10788834717078     0.00003185450809     0.00003706074799     0.00001561428081     0.00004235248082
   10     1.45358848986990     0.00012033941760     0.00004487357533     0.00002042331985     0.00000311137397
   11     0.00000000000000     0.00049778658502     0.00024068120907     0.00040783308968     0.00001951809135
   12     0.00049778658502     0.00000000000000     0.00164297370979     0.00045470850817     0.00008639805187
   13     0.00024068120907     0.00164297370979     0.00000000000000     0.00025206638333     0.00017460448899
   14     0.00040783308968     0.00045470850817     0.00025206638333     0.00000000000000     0.00000444852294
   15     0.00001951809135     0.00008639805187     0.00017460448899     0.00000444852294     0.00000000000000
   16     0.00009387613265     0.00065812138833     0.00001576014056     0.00005365625629     0.00195483524854
   17     0.00006096016761     0.00007017418856     0.00002488274637     0.00009771417691     0.01424726621103
   18     0.00648120069649     0.00000939888541     0.00029817099998     0.00008844269469     0.00001328845670
   19     0.00032985146564     0.00000853332679     0.00000212314795     0.00000558067226     0.00000672418718
   20     0.00102659717964     0.00002147182682     0.00001134650821     0.00000145388596     0.00000066404260
   21     0.96105964649971     0.00001952920298     0.00000886383198     0.00000636781539     0.00001159877251
   22     0.00798061133173     0.00003649835951     0.00001699360725     0.00004506556323     0.00000177250093
   23     0.00000668114926     0.00001040133442     0.00000268388528     0.00000111577250     1.00619758963295
   24     0.00001045110277     0.00000217554116     0.00000100572262     0.00000022242449     1.00592537398174
   25     0.00004219930388     0.00000001242355     0.00000094334931     0.00000033363775     0.00000001273587
   26     0.00000083427860     0.00000111549708     0.00000122602790     0.00000001425906     0.01505107776840
   27     0.00000095373629     0.00000000192570     0.00000006618209     0.00000086520577     0.00217223156568
   28     0.00000020228294     0.00000000040776     0.00000054285737     0.00000017236162     0.00760745411507
   29     0.00000040420682     0.00000088553860     0.00000254401325     0.00000012269381     0.01490061614125
   30     0.00058708875058     0.00000020092720     0.00000087892052     0.00000127533824     0.00000004246210
   31     0.00000008195297     0.00000037141561     0.00000222533999     0.00000000047208     0.00479982703243
   32     0.00000245434054     0.00000002812506     0.00000069445463     0.00000003964940     0.00120416963034

                16                  17                  18                  19                  20

    1     0.00000996917305     0.00002037383410     0.00043435012859     0.00656382298294     0.00656521410550
    2     0.00186462357703     0.00162318952816     0.00350604516607     0.00040946295057     0.00039381028305
    3     0.00364553956246     0.00166395637768     0.00011065077873     0.00014678312506     0.00000494846038
    4     0.96179119965103     0.96310412671705     0.00004705722734     0.00004134065805     0.00000027622106
    5     0.00028744051791     0.00054074366996     0.00098062384989     0.00001782099723     0.00015905819192
    6     0.01144856356057     0.00986690998445     0.00003277281190     0.00002232576819     0.00005244441398
    7     0.00009633586140     0.00006804671058     0.96775796122396     0.00090584155357     0.00033960916419
    8     0.00004563735606     0.00003575217633     0.00652561956518     0.00050291581269     0.00040079597071
    9     0.00000837210724     0.00000646909377     0.00110020494742     0.96920254953589     0.00661949464452
   10     0.00000093204597     0.00000228980122     0.00039454004777     0.00684105508681     0.96875204490186
   11     0.00009387613265     0.00006096016761     0.00648120069649     0.00032985146564     0.00102659717964
   12     0.00065812138833     0.00007017418856     0.00000939888541     0.00000853332679     0.00002147182682
   13     0.00001576014056     0.00002488274637     0.00029817099998     0.00000212314795     0.00001134650821
   14     0.00005365625629     0.00009771417691     0.00008844269469     0.00000558067226     0.00000145388596
   15     0.00195483524854     0.01424726621103     0.00001328845670     0.00000672418718     0.00000066404260
   16     0.00000000000000     0.00042956679115     0.00000003862891     0.00000033337869     0.00000001064742
   17     0.00042956679115     0.00000000000000     0.00000000784998     0.00000009839210     0.00000021535476
   18     0.00000003862891     0.00000000784998     0.00000000000000     0.00363787353132     0.00004584452725
   19     0.00000033337869     0.00000009839210     0.00363787353132     0.00000000000000     0.00075467793933
   20     0.00000001064742     0.00000021535476     0.00004584452725     0.00075467793933     0.00000000000000
   21     0.00000313325197     0.00000001612158     0.00081421917021     0.00004846487949     0.00369179307663
   22     0.00001035388454     0.00000884935277     0.00038979854334     0.00325325844826     0.00337098744284
   23     0.00677471924064     0.00072885614145     0.00000004130672     0.00000001684971     0.00000009131705
   24     0.00134713665917     0.00024196558478     0.00000276801038     0.00000238547323     0.00000013493926
   25     0.00000033103480     0.00000014845933     0.00014950544866     0.00009983356910     0.00070633815155
   26     0.00000154775868     0.00078207963176     0.00000007280664     0.00000006998282     0.00000000832543
   27     0.00024211962943     0.00014039194535     0.00000006166267     0.00000002524453     0.00000000702421
   28     0.00026315445745     0.00022666063625     0.00000003259481     0.00000003633633     0.00000000091378
   29     0.00008997264115     0.00068975771408     0.00000001529829     0.00000000046080     0.00000000093888
   30     0.00000036933744     0.00000021154528     0.00000620999060     0.00029296648024     0.00012109320954
   31     0.00039757473823     0.00000265594240     0.00000002515864     0.00000000331749     0.00000000038481
   32     0.00020702923271     0.00000041555176     0.00000061890597     0.00000041665078     0.00000002373325

                21                  22                  23                  24                  25

    1     0.00063784539552     0.01732990349595     0.00000666124159     0.00027025564840     0.00040085140398
    2     0.00332585635155     0.00136680116056     0.00004122466304     0.00070257782291     0.00003891637044
    3     0.00031036091423     0.00044794645470     0.00056273034284     0.00680080897609     0.00000983907721
    4     0.00000281445965     0.00002250328319     0.00206442651335     0.00267531475858     0.00000014586782
    5     0.00012205398878     0.00007532010513     0.00006382365896     0.00001491907429     0.00000423767847
    6     0.00233974654006     0.00060114939560     0.00149415924726     0.00014367349131     0.00001254170042
    7     0.00653044509686     0.00747446856616     0.00000382414759     0.00003713362861     0.00044725007257
    8     0.00654609889111     1.08846471768653     0.00000198159772     0.00000443202227     0.00029082644122
    9     0.00039678121971     0.03963753984816     0.00000028492946     0.00001117199419     0.00625991059910
   10     0.00122414601444     0.03671234912442     0.00000035383334     0.00000116537522     0.00175795882662
   11     0.96105964649971     0.00798061133173     0.00000668114926     0.00001045110277     0.00004219930388
   12     0.00001952920298     0.00003649835951     0.00001040133442     0.00000217554116     0.00000001242355
   13     0.00000886383198     0.00001699360725     0.00000268388528     0.00000100572262     0.00000094334931
   14     0.00000636781539     0.00004506556323     0.00000111577250     0.00000022242449     0.00000033363775
   15     0.00001159877251     0.00000177250093     1.00619758963295     1.00592537398174     0.00000001273587
   16     0.00000313325197     0.00001035388454     0.00677471924064     0.00134713665917     0.00000033103480
   17     0.00000001612158     0.00000884935277     0.00072885614145     0.00024196558478     0.00000014845933
   18     0.00081421917021     0.00038979854334     0.00000004130672     0.00000276801038     0.00014950544866
   19     0.00004846487949     0.00325325844826     0.00000001684971     0.00000238547323     0.00009983356910
   20     0.00369179307663     0.00337098744284     0.00000009131705     0.00000013493926     0.00070633815155
   21     0.00000000000000     0.00037495696066     0.00000076794080     0.00000138745702     0.00001326398603
   22     0.00037495696066     0.00000000000000     0.00000036387589     0.00000099785902     0.96074960470358
   23     0.00000076794080     0.00000036387589     0.00000000000000     0.00244548871047     0.00000001161380
   24     0.00000138745702     0.00000099785902     0.00244548871047     0.00000000000000     0.00000000177984
   25     0.00001326398603     0.96074960470358     0.00000001161380     0.00000000177984     0.00000000000000
   26     0.00000000025631     0.00000002819140     0.97797678287413     0.00073975525822     0.00000000050777
   27     0.00000016754470     0.00000008926649     0.97655284338592     0.00742681124652     0.00000000026248
   28     0.00000000994782     0.00000003143723     0.00585734449600     0.97733342315624     0.00000000019220
   29     0.00000000012126     0.00000002799787     0.00031398050322     0.97716070615277     0.00000000004781
   30     0.00014161905065     0.96147501430674     0.00000000931429     0.00000003459794     0.00032437124201
   31     0.00000001361902     0.00000000684662     0.97876877327859     0.00044374955637     0.00000000123547
   32     0.00000044159906     0.00000029807427     0.00163614417876     0.98029029716814     0.00000000064472

                26                  27                  28                  29                  30

    1     0.00000452125830     0.00000437300129     0.00000349420760     0.00000095034952     0.00040339333378
    2     0.00002703764091     0.00004057074497     0.00001114390434     0.00000357925611     0.00004733698377
    3     0.00020410656603     0.00047229420671     0.00009640619167     0.00000832761230     0.00001259530827
    4     0.00022661154542     0.00115306436112     0.00019531398651     0.00124243541005     0.00000163666950
    5     0.00000041721810     0.00000338043945     0.00000062667757     0.00000393353152     0.00000048019995
    6     0.00017136748815     0.00070723329834     0.00000491013154     0.00001032167125     0.00001713579653
    7     0.00000101831591     0.00000099022586     0.00000069916630     0.00000012562813     0.00001889441817
    8     0.00000010350296     0.00000031478662     0.00000010791616     0.00000010233235     0.00025882014650
    9     0.00000024897314     0.00000022254125     0.00000017947731     0.00000007996627     0.00156139167610
   10     0.00000021823482     0.00000005489846     0.00000001730957     0.00000013681808     0.00556609817420
   11     0.00000083427860     0.00000095373629     0.00000020228294     0.00000040420682     0.00058708875058
   12     0.00000111549708     0.00000000192570     0.00000000040776     0.00000088553860     0.00000020092720
   13     0.00000122602790     0.00000006618209     0.00000054285737     0.00000254401325     0.00000087892052
   14     0.00000001425906     0.00000086520577     0.00000017236162     0.00000012269381     0.00000127533824
   15     0.01505107776840     0.00217223156568     0.00760745411507     0.01490061614125     0.00000004246210
   16     0.00000154775868     0.00024211962943     0.00026315445745     0.00008997264115     0.00000036933744
   17     0.00078207963176     0.00014039194535     0.00022666063625     0.00068975771408     0.00000021154528
   18     0.00000007280664     0.00000006166267     0.00000003259481     0.00000001529829     0.00000620999060
   19     0.00000006998282     0.00000002524453     0.00000003633633     0.00000000046080     0.00029296648024
   20     0.00000000832543     0.00000000702421     0.00000000091378     0.00000000093888     0.00012109320954
   21     0.00000000025631     0.00000016754470     0.00000000994782     0.00000000012126     0.00014161905065
   22     0.00000002819140     0.00000008926649     0.00000003143723     0.00000002799787     0.96147501430674
   23     0.97797678287413     0.97655284338592     0.00585734449600     0.00031398050322     0.00000000931429
   24     0.00073975525822     0.00742681124652     0.97733342315624     0.97716070615277     0.00000003459794
   25     0.00000000050777     0.00000000026248     0.00000000019220     0.00000000004781     0.00032437124201
   26     0.00000000000000     0.00049600771094     0.00000163736067     0.00055589881559     0.00000000098142
   27     0.00049600771094     0.00000000000000     0.00054252048564     0.00003869882348     0.00000000171620
   28     0.00000163736067     0.00054252048564     0.00000000000000     0.00024803336163     0.00000000087700
   29     0.00055589881559     0.00003869882348     0.00024803336163     0.00000000000000     0.00000000196996
   30     0.00000000098142     0.00000000171620     0.00000000087700     0.00000000196996     0.00000000000000
   31     0.00014389330869     0.00137140230364     0.00019849185625     0.00012364064825     0.00000000011834
   32     0.00006422989087     0.00032876242683     0.00090457664383     0.00054749930807     0.00000001509035

                31                  32

    1     0.00000055579675     0.00004740727176
    2     0.00000936611750     0.00016799248681
    3     0.00012417935112     0.00052863494852
    4     0.00640415897201     0.00660026524675
    5     0.00001843569841     0.00000522912424
    6     0.00002576545770     0.00003972658102
    7     0.00000026642162     0.00000702608793
    8     0.00000004057865     0.00000119257756
    9     0.00000010180192     0.00000219135293
   10     0.00000001209636     0.00000056497463
   11     0.00000008195297     0.00000245434054
   12     0.00000037141561     0.00000002812506
   13     0.00000222533999     0.00000069445463
   14     0.00000000047208     0.00000003964940
   15     0.00479982703243     0.00120416963034
   16     0.00039757473823     0.00020702923271
   17     0.00000265594240     0.00000041555176
   18     0.00000002515864     0.00000061890597
   19     0.00000000331749     0.00000041665078
   20     0.00000000038481     0.00000002373325
   21     0.00000001361902     0.00000044159906
   22     0.00000000684662     0.00000029807427
   23     0.97876877327859     0.00163614417876
   24     0.00044374955637     0.98029029716814
   25     0.00000000123547     0.00000000064472
   26     0.00014389330869     0.00006422989087
   27     0.00137140230364     0.00032876242683
   28     0.00019849185625     0.00090457664383
   29     0.00012364064825     0.00054749930807
   30     0.00000000011834     0.00000001509035
   31     0.00000000000000     0.00032805994027
   32     0.00032805994027     0.00000000000000



  Atomic Valences: 

 #  #
 Irrep: 1
      1:    3.975044722471669
      2:    3.378653630494858
      3:    3.955483604078655
      4:    3.979753639119664
      5:    3.948422309486861
      6:    2.080804398078465
      7:    3.987161524637142
      8:    3.983683756008882
      9:    3.983809591280574
     10:    3.984262635431928
     11:    3.982357395418484
     12:    0.992060770457044
     13:    0.991042561898246
     14:    0.993485154738668
     15:    3.099086784556074
     16:    0.991742253891478
     17:    0.994684752398543
     18:    0.992827460914514
     19:    0.993097192205029
     20:    0.993040457726421
     21:    0.987632409977678
     22:    3.129848307674581
     23:    3.961514176977033
     24:    3.964037725174001
     25:    0.971309392367362
     26:    0.996451932236128
     27:    0.991696527798651
     28:    0.993497225746452
     29:    0.995942799972418
     30:    0.970839188933394
     31:    0.993163680758181
     32:    0.992916445891757


*** tstop() called on node165.bme.utexas.edu at Sat Nov 18 08:02:50 2023
Module time:
	user time   =      58.56 seconds =       0.98 minutes
	system time =       1.92 seconds =       0.03 minutes
	total time  =          2 seconds =       0.03 minutes
Total time:
	user time   =      58.56 seconds =       0.98 minutes
	system time =       1.92 seconds =       0.03 minutes
	total time  =          2 seconds =       0.03 minutes
  ==> One Electron Grid Properties (v2.0) <==

  ==> CubicScalarGrid <==

    Filepath     = .
    Total Points =          1197364
    XYZ Blocking =               10
    X Points     =              149
    Y Points     =               82
    Z Points     =               98
    X Spacing    =        2.000E-01
    Y Spacing    =        2.000E-01
    Z Spacing    =        2.000E-01
    X Minimum    =       -1.471E+01
    Y Minimum    =       -7.726E+00
    Z Minimum    =       -1.009E+01
    X Maximum    =        1.489E+01
    Y Maximum    =        8.474E+00
    Z Maximum    =        9.309E+00

  Basis Set: MINIX
    Blend: MINIX
    Number of shells: 62
    Number of basis functions: 92
    Number of Cartesian functions: 92
    Spherical Harmonics?: true
    Max angular momentum: 1

*********************************************************************************************************************
When computing potential integrals with different bra and ket basis, the atom definition is taken from the bra basis.
*********************************************************************************************************************
*********************************************************************************************************************
When computing potential integrals with different bra and ket basis, the atom definition is taken from the bra basis.
*********************************************************************************************************************
*********************************************************************************************************************
When computing potential integrals with different bra and ket basis, the atom definition is taken from the bra basis.
*********************************************************************************************************************
*********************************************************************************************************************
When computing potential integrals with different bra and ket basis, the atom definition is taken from the bra basis.
*********************************************************************************************************************
*********************************************************************************************************************
When computing potential integrals with different bra and ket basis, the atom definition is taken from the bra basis.
*********************************************************************************************************************
*********************************************************************************************************************
When computing potential integrals with different bra and ket basis, the atom definition is taken from the bra basis.
*********************************************************************************************************************
*********************************************************************************************************************
When computing potential integrals with different bra and ket basis, the atom definition is taken from the bra basis.
*********************************************************************************************************************
*********************************************************************************************************************
When computing potential integrals with different bra and ket basis, the atom definition is taken from the bra basis.
*********************************************************************************************************************
*********************************************************************************************************************
When computing potential integrals with different bra and ket basis, the atom definition is taken from the bra basis.
*********************************************************************************************************************
*********************************************************************************************************************
When computing potential integrals with different bra and ket basis, the atom definition is taken from the bra basis.
*********************************************************************************************************************
*********************************************************************************************************************
When computing potential integrals with different bra and ket basis, the atom definition is taken from the bra basis.
*********************************************************************************************************************
*********************************************************************************************************************
When computing potential integrals with different bra and ket basis, the atom definition is taken from the bra basis.
*********************************************************************************************************************
*********************************************************************************************************************
When computing potential integrals with different bra and ket basis, the atom definition is taken from the bra basis.
*********************************************************************************************************************
*********************************************************************************************************************
When computing potential integrals with different bra and ket basis, the atom definition is taken from the bra basis.
*********************************************************************************************************************
*********************************************************************************************************************
When computing potential integrals with different bra and ket basis, the atom definition is taken from the bra basis.
*********************************************************************************************************************
*********************************************************************************************************************
When computing potential integrals with different bra and ket basis, the atom definition is taken from the bra basis.
*********************************************************************************************************************
*********************************************************************************************************************
When computing potential integrals with different bra and ket basis, the atom definition is taken from the bra basis.
*********************************************************************************************************************
*********************************************************************************************************************
When computing potential integrals with different bra and ket basis, the atom definition is taken from the bra basis.
*********************************************************************************************************************
*********************************************************************************************************************
When computing potential integrals with different bra and ket basis, the atom definition is taken from the bra basis.
*********************************************************************************************************************
*********************************************************************************************************************
When computing potential integrals with different bra and ket basis, the atom definition is taken from the bra basis.
*********************************************************************************************************************
*********************************************************************************************************************
When computing potential integrals with different bra and ket basis, the atom definition is taken from the bra basis.
*********************************************************************************************************************
*********************************************************************************************************************
When computing potential integrals with different bra and ket basis, the atom definition is taken from the bra basis.
*********************************************************************************************************************
*********************************************************************************************************************
When computing potential integrals with different bra and ket basis, the atom definition is taken from the bra basis.
*********************************************************************************************************************
*********************************************************************************************************************
When computing potential integrals with different bra and ket basis, the atom definition is taken from the bra basis.
*********************************************************************************************************************
*********************************************************************************************************************
When computing potential integrals with different bra and ket basis, the atom definition is taken from the bra basis.
*********************************************************************************************************************
*********************************************************************************************************************
When computing potential integrals with different bra and ket basis, the atom definition is taken from the bra basis.
*********************************************************************************************************************
*********************************************************************************************************************
When computing potential integrals with different bra and ket basis, the atom definition is taken from the bra basis.
*********************************************************************************************************************
*********************************************************************************************************************
When computing potential integrals with different bra and ket basis, the atom definition is taken from the bra basis.
*********************************************************************************************************************
*********************************************************************************************************************
When computing potential integrals with different bra and ket basis, the atom definition is taken from the bra basis.
*********************************************************************************************************************
*********************************************************************************************************************
When computing potential integrals with different bra and ket basis, the atom definition is taken from the bra basis.
*********************************************************************************************************************
*********************************************************************************************************************
When computing potential integrals with different bra and ket basis, the atom definition is taken from the bra basis.
*********************************************************************************************************************
*********************************************************************************************************************
When computing potential integrals with different bra and ket basis, the atom definition is taken from the bra basis.
*********************************************************************************************************************
*********************************************************************************************************************
When computing potential integrals with different bra and ket basis, the atom definition is taken from the bra basis.
*********************************************************************************************************************
*********************************************************************************************************************
When computing potential integrals with different bra and ket basis, the atom definition is taken from the bra basis.
*********************************************************************************************************************
*********************************************************************************************************************
When computing potential integrals with different bra and ket basis, the atom definition is taken from the bra basis.
*********************************************************************************************************************
*********************************************************************************************************************
When computing potential integrals with different bra and ket basis, the atom definition is taken from the bra basis.
*********************************************************************************************************************
*********************************************************************************************************************
When computing potential integrals with different bra and ket basis, the atom definition is taken from the bra basis.
*********************************************************************************************************************
*********************************************************************************************************************
When computing potential integrals with different bra and ket basis, the atom definition is taken from the bra basis.
*********************************************************************************************************************
*********************************************************************************************************************
When computing potential integrals with different bra and ket basis, the atom definition is taken from the bra basis.
*********************************************************************************************************************
*********************************************************************************************************************
When computing potential integrals with different bra and ket basis, the atom definition is taken from the bra basis.
*********************************************************************************************************************
*********************************************************************************************************************
When computing potential integrals with different bra and ket basis, the atom definition is taken from the bra basis.
*********************************************************************************************************************
*********************************************************************************************************************
When computing potential integrals with different bra and ket basis, the atom definition is taken from the bra basis.
*********************************************************************************************************************
*********************************************************************************************************************
When computing potential integrals with different bra and ket basis, the atom definition is taken from the bra basis.
*********************************************************************************************************************
*********************************************************************************************************************
When computing potential integrals with different bra and ket basis, the atom definition is taken from the bra basis.
*********************************************************************************************************************
*********************************************************************************************************************
When computing potential integrals with different bra and ket basis, the atom definition is taken from the bra basis.
*********************************************************************************************************************
*********************************************************************************************************************
When computing potential integrals with different bra and ket basis, the atom definition is taken from the bra basis.
*********************************************************************************************************************
*********************************************************************************************************************
When computing potential integrals with different bra and ket basis, the atom definition is taken from the bra basis.
*********************************************************************************************************************
*********************************************************************************************************************
When computing potential integrals with different bra and ket basis, the atom definition is taken from the bra basis.
*********************************************************************************************************************
*********************************************************************************************************************
When computing potential integrals with different bra and ket basis, the atom definition is taken from the bra basis.
*********************************************************************************************************************
*********************************************************************************************************************
When computing potential integrals with different bra and ket basis, the atom definition is taken from the bra basis.
*********************************************************************************************************************
*********************************************************************************************************************
When computing potential integrals with different bra and ket basis, the atom definition is taken from the bra basis.
*********************************************************************************************************************
FCHKWriter: !WARNING! method 'HF'' renamed to label 'HF'.
FCHKWriter: Writing farH_in17-esp_frag.fchk with label ' SCF Density'.

    Psi4 stopped on: Saturday, 18 November 2023 08:02AM
    Psi4 wall time for execution: 0:00:10.01

*** Psi4 exiting successfully. Buy a developer a beer!
