Generated by Psi4
        SP                           RHF                         MINIX
Number of atoms                            I               27
Charge                                     I                0
Multiplicity                               I                1
Number of electrons                        I               96
Number of alpha electrons                  I               48
Number of beta electrons                   I               48
Number of basis functions                  I               79
Number of independent functions            I               79
Atomic numbers                             I   N=          27
           6           7           6           6           6           8
           6           6           6           6           6           1
           1           1           7           1           1           1
           1           1           1           6           1           1
           1           1           1
Nuclear charges                            R   N=          27
  6.00000000e+00  7.00000000e+00  6.00000000e+00  6.00000000e+00  6.00000000e+00
  8.00000000e+00  6.00000000e+00  6.00000000e+00  6.00000000e+00  6.00000000e+00
  6.00000000e+00  1.00000000e+00  1.00000000e+00  1.00000000e+00  7.00000000e+00
  1.00000000e+00  1.00000000e+00  1.00000000e+00  1.00000000e+00  1.00000000e+00
  1.00000000e+00  6.00000000e+00  1.00000000e+00  1.00000000e+00  1.00000000e+00
  1.00000000e+00  1.00000000e+00
Current cartesian coordinates              R   N=          81
 -2.16836967e+00 -6.91463918e-01 -1.72842340e-01  1.39930795e-01 -1.02235496e+00
  1.25541267e+00  2.48356914e+00 -1.24357108e-01  3.58170701e-01  4.76843699e+00
 -4.29169932e-01  2.17608723e+00 -1.08757163e-01 -2.16526132e+00  3.76610280e+00
  2.80614539e+00  9.25007809e-01 -1.70200872e+00 -4.53014938e+00 -6.71432822e-01
  1.03866108e+00 -6.77268737e+00 -1.58868286e-02 -2.93070865e+00 -6.78912799e+00
 -3.61328764e-01 -3.17217416e-01 -4.43698588e+00 -1.16798204e-01 -4.15770782e+00
 -2.17800727e+00 -4.30303768e-01 -2.80409700e+00  1.64075128e+00 -3.07818801e+00
  4.36722468e+00 -1.55118511e+00 -3.64831839e+00  3.75684314e+00 -5.87613764e-01
 -6.86739603e-01  5.13029609e+00  7.02155745e+00  9.20094521e-01  1.21969684e+00
  5.18701133e+00 -2.45665709e+00  2.25791237e+00  4.28485608e+00  2.64548528e-01
  4.06505747e+00 -4.70154754e+00 -8.44153789e-01  3.07559687e+00 -8.55904548e+00
 -3.71533285e-01  7.20620172e-01 -4.34060985e+00  3.70255029e-02 -6.20447019e+00
 -4.53443209e-01 -5.38207130e-01 -3.90883089e+00  6.79668004e+00  3.68363001e+00
  1.34234007e+00  6.95277142e+00  4.31404264e+00  3.31389133e+00  4.95911036e+00
  4.36223066e+00  6.74510854e-01 -8.42298520e+00  3.02154078e-01 -3.92016925e+00
  7.30123692e+00  4.12325111e-01 -6.18628733e-01  8.27047745e+00  4.41703272e+00
  1.68253225e-01
Integer atomic weights                     I   N=          27
          12          14          12          12          12          16
          12          12          12          12          12           1
           1           1          14           1           1           1
           1           1           1          12           1           1
           1           1           1
Real atomic weights                        R   N=          27
  1.20000000e+01  1.40030740e+01  1.20000000e+01  1.20000000e+01  1.20000000e+01
  1.59949146e+01  1.20000000e+01  1.20000000e+01  1.20000000e+01  1.20000000e+01
  1.20000000e+01  1.00782503e+00  1.00782503e+00  1.00782503e+00  1.40030740e+01
  1.00782503e+00  1.00782503e+00  1.00782503e+00  1.00782503e+00  1.00782503e+00
  1.00782503e+00  1.20000000e+01  1.00782503e+00  1.00782503e+00  1.00782503e+00
  1.00782503e+00  1.00782503e+00
Number of primitive shells                 I              159
Number of contracted shells                I               53
Pure/Cartesian d shells                    I                0
Pure/Cartesian f shells                    I                0
Highest angular momentum                   I                1
Largest degree of contraction              I                3
Shell types                                I   N=          53
           0           0           1           0           0           1
           0           0           1           0           0           1
           0           0           1           0           0           1
           0           0           1           0           0           1
           0           0           1           0           0           1
           0           0           1           0           0           0
           0           0           1           0           0           0
           0           0           0           0           0           1
           0           0           0           0           0
Number of primitives per shell             I   N=          53
           3           3           3           3           3           3
           3           3           3           3           3           3
           3           3           3           3           3           3
           3           3           3           3           3           3
           3           3           3           3           3           3
           3           3           3           3           3           3
           3           3           3           3           3           3
           3           3           3           3           3           3
           3           3           3           3           3
Shell to atom map                          I   N=          53
           1           1           1           2           2           2
           3           3           3           4           4           4
           5           5           5           6           6           6
           7           7           7           8           8           8
           9           9           9          10          10          10
          11          11          11          12          13          14
          15          15          15          16          17          18
          19          20          21          22          22          22
          23          24          25          26          27
Primitive exponents                        R   N=         159
  1.53172260e+02  2.30730300e+01  4.92329000e+00  6.61661200e+00  5.25856000e-01
  1.69958000e-01  4.91292000e+00  9.97616000e-01  2.32685000e-01  2.18364490e+02
  3.25988900e+01  6.91739000e+00  8.91942600e+00  7.06141000e-01  2.25054000e-01
  6.55627200e+00  1.34907900e+00  3.12209000e-01  1.53172260e+02  2.30730300e+01
  4.92329000e+00  6.61661200e+00  5.25856000e-01  1.69958000e-01  4.91292000e+00
  9.97616000e-01  2.32685000e-01  1.53172260e+02  2.30730300e+01  4.92329000e+00
  6.61661200e+00  5.25856000e-01  1.69958000e-01  4.91292000e+00  9.97616000e-01
  2.32685000e-01  1.53172260e+02  2.30730300e+01  4.92329000e+00  6.61661200e+00
  5.25856000e-01  1.69958000e-01  4.91292000e+00  9.97616000e-01  2.32685000e-01
  2.81866580e+02  4.24160000e+01  9.09562000e+00  1.17893260e+01  9.12894000e-01
  2.86661000e-01  8.27414000e+00  1.71546300e+00  3.83013000e-01  1.53172260e+02
  2.30730300e+01  4.92329000e+00  6.61661200e+00  5.25856000e-01  1.69958000e-01
  4.91292000e+00  9.97616000e-01  2.32685000e-01  1.53172260e+02  2.30730300e+01
  4.92329000e+00  6.61661200e+00  5.25856000e-01  1.69958000e-01  4.91292000e+00
  9.97616000e-01  2.32685000e-01  1.53172260e+02  2.30730300e+01  4.92329000e+00
  6.61661200e+00  5.25856000e-01  1.69958000e-01  4.91292000e+00  9.97616000e-01
  2.32685000e-01  1.53172260e+02  2.30730300e+01  4.92329000e+00  6.61661200e+00
  5.25856000e-01  1.69958000e-01  4.91292000e+00  9.97616000e-01  2.32685000e-01
  1.53172260e+02  2.30730300e+01  4.92329000e+00  6.61661200e+00  5.25856000e-01
  1.69958000e-01  4.91292000e+00  9.97616000e-01  2.32685000e-01  7.03406300e+00
  1.06475600e+00  2.36559000e-01  7.03406300e+00  1.06475600e+00  2.36559000e-01
  7.03406300e+00  1.06475600e+00  2.36559000e-01  2.18364490e+02  3.25988900e+01
  6.91739000e+00  8.91942600e+00  7.06141000e-01  2.25054000e-01  6.55627200e+00
  1.34907900e+00  3.12209000e-01  7.03406300e+00  1.06475600e+00  2.36559000e-01
  7.03406300e+00  1.06475600e+00  2.36559000e-01  7.03406300e+00  1.06475600e+00
  2.36559000e-01  7.03406300e+00  1.06475600e+00  2.36559000e-01  7.03406300e+00
  1.06475600e+00  2.36559000e-01  7.03406300e+00  1.06475600e+00  2.36559000e-01
  1.53172260e+02  2.30730300e+01  4.92329000e+00  6.61661200e+00  5.25856000e-01
  1.69958000e-01  4.91292000e+00  9.97616000e-01  2.32685000e-01  7.03406300e+00
  1.06475600e+00  2.36559000e-01  7.03406300e+00  1.06475600e+00  2.36559000e-01
  7.03406300e+00  1.06475600e+00  2.36559000e-01  7.03406300e+00  1.06475600e+00
  2.36559000e-01  7.03406300e+00  1.06475600e+00  2.36559000e-01
Contraction coefficients                   R   N=         159
  7.07400095e-02  3.95380053e-01  6.63311089e-01 -8.13799884e-02  5.74852918e-01
  5.02412928e-01  1.09930928e-01  4.62712695e-01  6.27513586e-01  6.78700100e-02
  3.90202057e-01  6.70083099e-01 -8.08899713e-02  5.67201799e-01  5.11091818e-01
  1.15918975e-01  4.69957900e-01  6.18447868e-01  7.07400095e-02  3.95380053e-01
  6.63311089e-01 -8.13799884e-02  5.74852918e-01  5.02412928e-01  1.09930928e-01
  4.62712695e-01  6.27513586e-01  7.07400095e-02  3.95380053e-01  6.63311089e-01
 -8.13799884e-02  5.74852918e-01  5.02412928e-01  1.09930928e-01  4.62712695e-01
  6.27513586e-01  7.07400095e-02  3.95380053e-01  6.63311089e-01 -8.13799884e-02
  5.74852918e-01  5.02412928e-01  1.09930928e-01  4.62712695e-01  6.27513586e-01
  6.90600291e-02  3.93159166e-01  6.65669281e-01 -8.08199297e-02  5.82089494e-01
  4.97159568e-01  1.24271003e-01  4.76594010e-01  6.13044013e-01  7.07400095e-02
  3.95380053e-01  6.63311089e-01 -8.13799884e-02  5.74852918e-01  5.02412928e-01
  1.09930928e-01  4.62712695e-01  6.27513586e-01  7.07400095e-02  3.95380053e-01
  6.63311089e-01 -8.13799884e-02  5.74852918e-01  5.02412928e-01  1.09930928e-01
  4.62712695e-01  6.27513586e-01  7.07400095e-02  3.95380053e-01  6.63311089e-01
 -8.13799884e-02  5.74852918e-01  5.02412928e-01  1.09930928e-01  4.62712695e-01
  6.27513586e-01  7.07400095e-02  3.95380053e-01  6.63311089e-01 -8.13799884e-02
  5.74852918e-01  5.02412928e-01  1.09930928e-01  4.62712695e-01  6.27513586e-01
  7.07400095e-02  3.95380053e-01  6.63311089e-01 -8.13799884e-02  5.74852918e-01
  5.02412928e-01  1.09930928e-01  4.62712695e-01  6.27513586e-01  7.04520124e-02
  4.07826072e-01  6.47752114e-01  7.04520124e-02  4.07826072e-01  6.47752114e-01
  7.04520124e-02  4.07826072e-01  6.47752114e-01  6.78700100e-02  3.90202057e-01
  6.70083099e-01 -8.08899713e-02  5.67201799e-01  5.11091818e-01  1.15918975e-01
  4.69957900e-01  6.18447868e-01  7.04520124e-02  4.07826072e-01  6.47752114e-01
  7.04520124e-02  4.07826072e-01  6.47752114e-01  7.04520124e-02  4.07826072e-01
  6.47752114e-01  7.04520124e-02  4.07826072e-01  6.47752114e-01  7.04520124e-02
  4.07826072e-01  6.47752114e-01  7.04520124e-02  4.07826072e-01  6.47752114e-01
  7.07400095e-02  3.95380053e-01  6.63311089e-01 -8.13799884e-02  5.74852918e-01
  5.02412928e-01  1.09930928e-01  4.62712695e-01  6.27513586e-01  7.04520124e-02
  4.07826072e-01  6.47752114e-01  7.04520124e-02  4.07826072e-01  6.47752114e-01
  7.04520124e-02  4.07826072e-01  6.47752114e-01  7.04520124e-02  4.07826072e-01
  6.47752114e-01  7.04520124e-02  4.07826072e-01  6.47752114e-01
Coordinates of each shell                  R   N=         159
 -2.16836967e+00 -6.91463918e-01 -1.72842340e-01 -2.16836967e+00 -6.91463918e-01
 -1.72842340e-01 -2.16836967e+00 -6.91463918e-01 -1.72842340e-01  1.39930795e-01
 -1.02235496e+00  1.25541267e+00  1.39930795e-01 -1.02235496e+00  1.25541267e+00
  1.39930795e-01 -1.02235496e+00  1.25541267e+00  2.48356914e+00 -1.24357108e-01
  3.58170701e-01  2.48356914e+00 -1.24357108e-01  3.58170701e-01  2.48356914e+00
 -1.24357108e-01  3.58170701e-01  4.76843699e+00 -4.29169932e-01  2.17608723e+00
  4.76843699e+00 -4.29169932e-01  2.17608723e+00  4.76843699e+00 -4.29169932e-01
  2.17608723e+00 -1.08757163e-01 -2.16526132e+00  3.76610280e+00 -1.08757163e-01
 -2.16526132e+00  3.76610280e+00 -1.08757163e-01 -2.16526132e+00  3.76610280e+00
  2.80614539e+00  9.25007809e-01 -1.70200872e+00  2.80614539e+00  9.25007809e-01
 -1.70200872e+00  2.80614539e+00  9.25007809e-01 -1.70200872e+00 -4.53014938e+00
 -6.71432822e-01  1.03866108e+00 -4.53014938e+00 -6.71432822e-01  1.03866108e+00
 -4.53014938e+00 -6.71432822e-01  1.03866108e+00 -6.77268737e+00 -1.58868286e-02
 -2.93070865e+00 -6.77268737e+00 -1.58868286e-02 -2.93070865e+00 -6.77268737e+00
 -1.58868286e-02 -2.93070865e+00 -6.78912799e+00 -3.61328764e-01 -3.17217416e-01
 -6.78912799e+00 -3.61328764e-01 -3.17217416e-01 -6.78912799e+00 -3.61328764e-01
 -3.17217416e-01 -4.43698588e+00 -1.16798204e-01 -4.15770782e+00 -4.43698588e+00
 -1.16798204e-01 -4.15770782e+00 -4.43698588e+00 -1.16798204e-01 -4.15770782e+00
 -2.17800727e+00 -4.30303768e-01 -2.80409700e+00 -2.17800727e+00 -4.30303768e-01
 -2.80409700e+00 -2.17800727e+00 -4.30303768e-01 -2.80409700e+00  1.64075128e+00
 -3.07818801e+00  4.36722468e+00 -1.55118511e+00 -3.64831839e+00  3.75684314e+00
 -5.87613764e-01 -6.86739603e-01  5.13029609e+00  7.02155745e+00  9.20094521e-01
  1.21969684e+00  7.02155745e+00  9.20094521e-01  1.21969684e+00  7.02155745e+00
  9.20094521e-01  1.21969684e+00  5.18701133e+00 -2.45665709e+00  2.25791237e+00
  4.28485608e+00  2.64548528e-01  4.06505747e+00 -4.70154754e+00 -8.44153789e-01
  3.07559687e+00 -8.55904548e+00 -3.71533285e-01  7.20620172e-01 -4.34060985e+00
  3.70255029e-02 -6.20447019e+00 -4.53443209e-01 -5.38207130e-01 -3.90883089e+00
  6.79668004e+00  3.68363001e+00  1.34234007e+00  6.79668004e+00  3.68363001e+00
  1.34234007e+00  6.79668004e+00  3.68363001e+00  1.34234007e+00  6.95277142e+00
  4.31404264e+00  3.31389133e+00  4.95911036e+00  4.36223066e+00  6.74510854e-01
 -8.42298520e+00  3.02154078e-01 -3.92016925e+00  7.30123692e+00  4.12325111e-01
 -6.18628733e-01  8.27047745e+00  4.41703272e+00  1.68253225e-01
Total Energy                               R     -5.666684554867498e+02
Alpha Orbital Energies                     R   N=          79
 -2.03000652e+01 -1.54561530e+01 -1.53735580e+01 -1.13198882e+01 -1.12369344e+01
 -1.12197157e+01 -1.12111845e+01 -1.11782028e+01 -1.11752178e+01 -1.11732721e+01
 -1.11711496e+01 -1.11706710e+01 -1.11671976e+01 -1.38100419e+00 -1.24732922e+00
 -1.19039470e+00 -1.14823989e+00 -1.02818487e+00 -1.01578953e+00 -9.82066284e-01
 -9.51473477e-01 -8.77556342e-01 -8.30990534e-01 -8.18485390e-01 -7.51449401e-01
 -6.98308782e-01 -6.90870274e-01 -6.73355638e-01 -6.57055651e-01 -6.38164253e-01
 -6.21773725e-01 -6.10713316e-01 -5.95345685e-01 -5.85577387e-01 -5.75766520e-01
 -5.59019714e-01 -5.48180901e-01 -5.37855056e-01 -5.20342761e-01 -5.07230029e-01
 -5.04360263e-01 -4.97517483e-01 -4.85931322e-01 -4.10054393e-01 -4.08944956e-01
 -3.49222881e-01 -3.44330645e-01 -3.11030676e-01  1.74679951e-01  1.86325124e-01
  2.39136597e-01  4.25704260e-01  4.49592816e-01  5.15773229e-01  5.28937452e-01
  5.42092826e-01  6.02622301e-01  6.15592780e-01  6.34597492e-01  6.43453479e-01
  6.54646389e-01  6.64259519e-01  6.80384090e-01  6.84320601e-01  6.87015424e-01
  6.96767181e-01  7.03783901e-01  7.32525795e-01  7.48549844e-01  7.65495835e-01
  7.76987448e-01  8.01112342e-01  8.46719342e-01  8.63548118e-01  8.78056573e-01
  9.15715029e-01  9.44947872e-01  1.04686115e+00  1.11682935e+00
Alpha MO coefficients                      R   N=        6241
  4.67005981e-06  3.62214852e-05  7.84805366e-05 -6.73106554e-05  1.59771027e-04
  2.37343126e-05  3.05194315e-04  6.43036986e-04 -4.18612015e-04  1.14246332e-03
 -8.01718631e-04  1.48164371e-02  1.99134954e-03  6.55636594e-03 -1.28741491e-02
  9.88013196e-06  2.20576707e-04 -8.14539217e-04 -5.49027220e-04  6.67152076e-04
 -2.18730583e-05 -1.34573341e-04  3.42224503e-04  1.04711969e-04  2.22095191e-05
 -9.90370586e-01 -4.91968383e-02  1.57795150e-03  4.94706268e-03 -9.62602527e-03
  1.36609846e-06 -2.01028793e-05 -1.66868335e-05 -2.04323416e-06 -1.25981162e-05
  7.47904254e-07 -1.36380329e-05 -9.82015611e-06  8.80259058e-06 -1.09920823e-07
 -2.45409043e-07 -6.23048170e-07  2.99096438e-06 -1.47061949e-06 -3.50660659e-06
 -3.39699697e-06  1.26436467e-04  3.95541636e-05 -6.74393382e-05  3.95637647e-05
  2.09256580e-06 -3.12053085e-04  4.36361191e-05  2.15513456e-04  3.75098368e-04
  1.01832571e-05  1.42125110e-04 -3.65597451e-07  2.87305942e-06 -1.09073673e-05
 -1.55204485e-04 -5.49123750e-05  1.95996645e-04 -1.47361555e-04 -1.25338607e-04
  1.54008929e-05  1.48779707e-06 -3.11350533e-06  1.07044788e-03  8.68177473e-07
 -1.04584202e-04  1.17371525e-04 -1.08863619e-04 -1.44221337e-04  7.18268237e-05
  3.63825829e-04 -8.59713231e-07  4.53670828e-04 -7.13575809e-05 -5.48133199e-04
  9.29473686e-03  8.04768002e-03 -1.07789187e-03  4.88641821e-03 -9.89020217e-01
 -5.85645557e-02 -2.71002172e-04 -7.38580227e-04  2.47642781e-04 -5.79809895e-04
  1.04951222e-02 -8.74500044e-03 -3.25697285e-03  3.20165373e-03 -9.34787349e-07
  2.05592054e-04  2.64759478e-04  2.37856902e-04 -4.84976858e-04 -5.70772144e-04
  9.32153441e-03  9.01330085e-04  3.45773441e-03 -7.73848223e-03  5.45523699e-06
  1.96143534e-04  9.95328472e-04  1.58071729e-04  6.32982415e-05  8.55935656e-06
  3.50661964e-04 -2.37800356e-04  2.00921954e-04 -7.98809687e-04 -4.55395827e-06
 -7.26221491e-05  5.80436125e-05 -8.12822937e-06  3.62912321e-05 -1.01368400e-05
 -1.66535240e-04  1.03696567e-04 -1.02120091e-05 -1.53773989e-04 -1.07991672e-05
 -1.45108497e-04 -7.77782228e-05  8.70257953e-06  1.79526931e-04  7.94838165e-06
  3.47180332e-04 -8.14391297e-04 -4.08053918e-05  1.87253897e-04 -1.12314699e-04
 -8.16712578e-05  1.49009485e-04  3.19480780e-04 -3.50858616e-05 -1.25409184e-04
  4.46009673e-05 -1.08103284e-04 -9.82414588e-05 -5.81718836e-05  4.30956077e-05
  1.01451445e-04  1.03433355e-04  1.23684071e-04 -1.63129601e-06 -1.70293031e-05
 -1.36217229e-05 -1.70859357e-05 -1.32794165e-05  7.44128690e-06  2.28829600e-05
  5.48446592e-05  7.10806672e-05  1.26772940e-06 -2.01010426e-06  5.22074719e-05
  3.72316846e-05 -5.79289653e-06  2.84338966e-05 -3.48258549e-04 -2.06846321e-05
  1.67656475e-04 -7.69655874e-06  2.98678364e-05 -8.26567272e-06 -5.46669737e-05
  4.78772307e-06 -1.50016505e-04  2.95770577e-04 -5.67578081e-04  9.49094641e-03
  7.07778521e-03  4.33842335e-03 -3.09380381e-03 -9.26917616e-06 -2.18571518e-05
  1.53742296e-04  1.62451669e-04 -8.78885740e-05 -2.21076496e-06  2.38353140e-05
 -4.41622659e-05  2.24599752e-05  8.86101431e-05  1.32059659e-07 -3.08100705e-06
  5.47073346e-07 -3.03253120e-07 -2.12521773e-06 -1.72734101e-08 -4.68806937e-07
  8.35354747e-08 -4.33781623e-08  1.09830386e-07 -1.20945350e-07  1.10130721e-06
  1.69916700e-06  4.16676144e-08 -1.43197831e-07 -1.01639975e-07  1.75842565e-06
  7.13422631e-07 -7.87894036e-07  1.64912036e-06 -8.73041361e-08  1.39059147e-07
  3.52796663e-07  2.15087993e-06  5.47249745e-06  2.81275273e-04  8.81537318e-05
 -1.59244951e-05 -9.89164686e-01 -5.70205595e-02  5.58357630e-03 -1.91816711e-03
  4.33962708e-03 -5.45818507e-05 -1.64573240e-04  4.48752152e-06  4.10359395e-07
  4.21035535e-07  8.97906243e-06 -5.78369242e-04  9.85165104e-03  6.56992961e-04
 -8.75525618e-03 -6.19082353e-04 -2.09641453e-05 -6.71089413e-05  2.48261225e-07
  1.27371545e-02 -2.94404570e-04  2.53355652e-03  8.39517398e-04  1.16248875e-03
  1.97122259e-04  1.29205522e-04 -9.65813291e-04  8.84817610e-03  5.82592910e-03
  2.32890880e-03 -2.47492032e-03 -9.89217465e-01 -5.42818243e-02  9.23851449e-05
 -2.66068739e-04  5.41485595e-05  9.64283399e-03  9.70122736e-03 -5.94817577e-03
  1.04006854e-03 -5.06305189e-03  1.75583020e-03  8.98465055e-04  3.97305824e-04
  4.26182369e-04 -7.08119833e-04 -6.61956193e-04  1.04358861e-02 -7.54206850e-04
 -1.86109725e-03  3.62360629e-03  1.51038159e-04  2.32890604e-04  1.02957636e-04
 -6.94770575e-05 -1.08490204e-04  1.50884556e-06 -2.26228600e-05 -6.27014284e-07
 -3.15940382e-08  4.80908585e-06  1.85939582e-05 -1.07554076e-06  1.98646295e-05
  8.24871076e-06 -7.84353827e-06  1.11811584e-04  2.32470518e-04  8.72771174e-05
 -5.04799554e-05  1.08643998e-04  4.62607748e-04 -1.55909022e-05  4.63745268e-04
  4.96435241e-05  3.51111049e-04  2.67532318e-05  9.55805008e-05  4.50346613e-07
 -2.80577110e-05 -1.55509162e-04 -7.27405671e-05 -2.56642580e-05  1.44044927e-04
  5.92641085e-04  4.26852170e-04 -3.59991471e-06  1.05688783e-05  9.70812302e-06
  5.04060270e-04  1.98568856e-04 -1.55287538e-04 -8.46467154e-05 -3.26477868e-04
 -9.20500232e-06  1.18191164e-05  8.36490141e-04  7.75582348e-06  5.04261823e-04
  5.10434034e-05  9.88482367e-01  6.04511846e-02 -2.48499257e-03  1.32360450e-04
 -1.41510233e-03  9.54489573e-04 -7.97966698e-03  5.44210915e-03 -7.54635798e-04
  3.48496396e-03  2.74861623e-03 -7.97774881e-04  1.02611210e-03  1.76638285e-06
  1.40777929e-04 -1.10446680e-03 -2.69975684e-04  1.27037638e-04  2.60767365e-05
  1.03732077e-04 -1.15220971e-02 -1.40948753e-03  3.52181162e-04 -3.60285315e-04
  9.29749944e-04  2.50724920e-06  7.52558806e-05  3.12607679e-05 -7.29320253e-05
  7.83294357e-05 -1.20593762e-02 -1.29750565e-02 -8.20315280e-03  8.25455762e-05
  4.05726924e-03 -7.38421006e-04 -1.56727614e-04 -2.09703449e-04  2.89398966e-05
 -1.28485915e-04 -1.72697748e-03 -4.11234265e-04 -1.55896856e-04  5.88631576e-05
 -3.96456149e-04 -1.69820381e-03 -4.43079809e-04 -4.37007682e-04  2.24964896e-05
  1.60991951e-05 -1.12505836e-02 -1.29679789e-02 -2.10599138e-04  9.56728697e-04
 -9.11616215e-03 -4.25663118e-05 -1.83621827e-04  1.06318688e-04  2.93436008e-06
 -4.35209748e-06  1.53926368e-05 -7.96372364e-07 -1.39108720e-06  3.96442922e-05
  2.31522171e-05 -2.53706059e-04 -6.04212188e-05 -6.63157284e-05 -2.96946195e-04
 -6.56573563e-06  6.13104955e-07  6.25161043e-07  2.09451919e-07  2.48109243e-06
 -1.07405367e-06  2.21370028e-06 -9.01663953e-05 -1.18043828e-05  5.78179976e-07
  1.17137240e-02  7.78545565e-05 -6.94825640e-04  3.01475125e-04 -9.47980458e-04
  1.05978096e-03 -8.77212774e-03  6.17692262e-04  3.05113456e-03 -6.39539624e-03
  1.89308504e-03 -5.61990843e-04  8.55265132e-04  3.87971887e-04 -5.76427941e-04
 -9.72189089e-03 -7.87015041e-04  5.77377803e-04  2.62312059e-04 -2.17508068e-05
  9.88228699e-01  6.21170102e-02  1.00158008e-04 -2.08569147e-04  3.71886989e-04
  2.37894769e-05 -2.24989611e-04 -3.61619235e-05  5.73757678e-05 -1.09812207e-04
 -1.61792079e-03 -2.27765633e-04 -7.72679951e-04  1.21572067e-04 -2.07147885e-04
 -2.01982683e-05  2.35528222e-05 -3.92252116e-06 -1.17287976e-06  3.38211882e-06
 -5.53786988e-04 -3.07653100e-04 -1.75054251e-04  5.71442841e-06 -5.46474729e-05
 -1.11235297e-04 -1.54836644e-05 -1.13152479e-05  9.01057230e-06 -2.11733529e-05
 -7.15774031e-04 -4.47488263e-04  1.77674221e-05 -1.65827362e-05 -3.02095140e-04
 -1.26919858e-02 -1.26084310e-02 -1.27136619e-02  1.03134847e-05 -8.68200296e-05
  5.16094103e-05  5.24629589e-05 -1.73312848e-05  3.44254933e-04 -3.45416944e-04
 -5.92201629e-04 -6.52679625e-06 -1.02671470e-05 -2.34320953e-06  1.65302649e-05
 -1.47634482e-06 -1.32881107e-05  1.05884265e-06  1.31228911e-05  2.72441944e-06
 -5.66039717e-06 -8.21717314e-06 -1.26071624e-05  7.48454791e-06  1.22444403e-03
  4.31444630e-05 -2.38302961e-04 -6.66942961e-05  7.00639839e-05  6.12576992e-05
 -3.41227750e-04 -1.29049270e-04 -1.24082933e-04  3.11609066e-04  1.13471242e-02
 -9.64181445e-03 -6.65369217e-03  6.74411476e-04 -4.99540018e-03  9.88233363e-01
  6.14916202e-02 -7.17502476e-04 -6.38071119e-04  2.26148179e-05  9.79287204e-03
  4.80897477e-04 -4.92369318e-04 -4.40242875e-04  3.02239488e-04  3.27090180e-05
 -2.42192381e-04  3.59746593e-04  2.03058394e-05  2.08845886e-04 -2.05505808e-04
 -1.10866664e-04 -6.54363160e-05  2.11564522e-05  4.15870358e-05 -3.59688358e-06
  3.89055308e-06  1.17200751e-07 -3.72478614e-07 -6.19312727e-07 -1.49099711e-05
 -6.76594648e-07 -1.72729778e-06 -2.33389629e-06 -5.52598688e-07 -1.16630579e-04
 -5.51071115e-05 -2.23474633e-05  1.11686913e-05 -2.22871411e-05 -3.16296695e-04
 -6.93706014e-06 -1.02807063e-04 -5.92834262e-06 -6.65391238e-05 -8.36101237e-04
 -3.42760519e-04 -2.60887140e-05  1.01739815e-03 -8.18276120e-03  5.06655787e-03
  3.62695328e-03 -2.66475072e-03 -1.25241584e-02 -1.24264069e-02 -2.08366399e-05
 -1.63310511e-06 -1.07649391e-06 -3.83477557e-05 -6.03792075e-03 -1.25156036e-03
  6.35870062e-04  1.11783762e-03 -3.98540374e-04  1.17193810e-04 -1.37861804e-04
 -1.28172126e-06 -1.26351201e-03 -2.90761904e-04  8.20765999e-05  1.06600083e-03
 -6.83389327e-04  4.73768189e-05  2.33390957e-05  1.02704419e-05  3.34367022e-05
  1.14443531e-04  2.54580903e-06 -6.88897197e-05 -1.70303825e-06 -3.07688546e-05
  5.23230641e-06  2.49525270e-05 -2.68566364e-05 -1.68736576e-05  7.14894015e-06
 -3.10975346e-06  4.36085434e-07 -4.34827020e-06  3.67168730e-04  5.33229456e-06
  1.03423822e-04 -3.30021591e-05  2.71746998e-05  3.28068590e-07 -7.74530853e-06
 -2.30848207e-06 -7.96729837e-07 -5.56607300e-06 -1.13642922e-01 -1.92265172e-02
  7.75137092e-03 -1.11493582e-03  4.87922860e-03 -1.12890837e-01 -1.92048349e-02
  1.93806132e-05  1.20264753e-03 -9.18442830e-03  9.75114782e-01  6.35456455e-02
  2.98528206e-03  1.22705999e-04 -1.61931063e-03 -1.43274672e-02  1.56884238e-04
 -4.39416333e-04  2.96906362e-05  2.92608626e-04 -3.74698035e-03 -1.51114784e-04
  2.33909377e-04  2.00509350e-05 -2.94961022e-04 -5.39019122e-05  2.86428891e-05
  1.56096149e-06  1.67970489e-07 -8.24282470e-07  1.14809092e-06  4.72461737e-07
  2.49409050e-07  1.53940700e-06 -9.60927855e-08  9.20954291e-04 -1.14537277e-02
  6.87887167e-05 -8.53043767e-05 -4.48587737e-06 -2.91734743e-07 -6.36663040e-09
  2.08918686e-07  1.15797763e-08  3.58362576e-08 -2.36707269e-07  9.65445688e-04
 -6.37563045e-08  1.74975890e-08  1.52567839e-04  1.00811973e-03 -3.50807286e-04
  7.74974395e-05 -5.00707344e-04  1.06828608e-05  3.07599726e-05 -1.75015750e-05
 -1.31922616e-05  1.23102556e-04  7.11225894e-05  3.40479396e-06  3.42227639e-05
 -2.12861469e-07  4.67606173e-05  7.97691305e-05 -1.68958909e-05  1.56808689e-05
 -4.82050070e-06  8.14356741e-06  9.00425267e-06 -2.94994708e-05 -2.60540118e-05
 -1.29538470e-05  6.58321560e-06  4.48623565e-06  3.12649137e-06  3.16733728e-05
  2.23580611e-05  2.15876235e-05 -8.53994392e-03 -4.65441415e-04 -1.74938700e-04
 -1.87599275e-05  3.80487812e-04 -1.97841490e-01 -2.44523524e-02 -8.26785969e-03
  3.93424795e-04  4.06688199e-03 -1.04531375e-02  1.55610989e-03  8.92693406e-05
  1.81649967e-04 -1.30591119e-03  9.62759462e-01  6.36244493e-02 -9.20690351e-04
 -2.69695464e-04  3.63235403e-03 -1.01564992e-01 -1.82666588e-02  7.81979852e-03
 -1.03521911e-03  4.43055005e-03  1.02051706e-05  7.52105357e-07  3.07259173e-06
  1.56021762e-07 -2.14418651e-07  7.22503409e-07  1.37093712e-06 -3.89005941e-07
 -1.89327512e-06  1.79207019e-07 -2.65029614e-05  6.54092993e-05 -1.12479928e-02
  7.81287855e-04 -6.04749493e-05 -3.74043777e-06  1.63523416e-07  7.11317962e-07
  5.73582922e-07  5.52264002e-07 -4.33505609e-07  2.04828942e-03 -8.86244881e-07
  8.62996499e-07  1.22851516e-05 -2.15557964e-06 -8.04850110e-06 -1.95366000e-06
 -4.17656141e-06  5.36797623e-06 -4.12609485e-05 -4.26986347e-05  1.19698363e-05
  1.55020264e-05  3.10916395e-04 -1.05383498e-04 -1.40543880e-04 -9.52389389e-05
 -2.99207397e-06  6.31524957e-03 -4.42856471e-04 -4.82478937e-04 -1.31192492e-03
  2.29059595e-04  4.46426593e-05  3.54531257e-06 -1.10931563e-05 -8.47712015e-06
  1.40386666e-05  6.08258523e-06 -1.28663540e-06 -1.09496699e-04 -4.01226566e-05
  2.44975361e-05 -7.37867818e-05 -5.60948390e-06 -1.26516702e-06  4.32837468e-07
  9.92586063e-07 -1.28044152e-05 -1.19063579e-06 -4.20702601e-07  2.22147943e-08
  2.52579317e-07 -5.09876737e-06  4.98747357e-07  3.04002205e-07 -6.61680665e-08
  2.00246530e-07  5.01501662e-05  2.33307025e-06 -3.84833354e-07  3.92216920e-07
 -3.36719200e-07 -7.66501949e-05 -4.83961638e-06 -2.45296941e-06 -5.93293938e-07
 -3.44630579e-06 -2.90088436e-05 -4.48721522e-06  1.62553174e-06  1.06295598e-03
 -8.72996503e-03  1.82763531e-04 -6.95580083e-03 -6.45515729e-04 -4.82666771e-04
 -3.09774539e-04  1.82129465e-07  2.37098946e-08 -6.30365206e-07 -4.39416909e-06
  9.88306930e-01  6.24293498e-02  1.10660010e-04  3.42066708e-04 -2.08459882e-04
 -1.26398436e-02 -1.27066964e-02  1.08119918e-07 -1.34780863e-03 -1.31454449e-02
  7.78230535e-03 -7.30470760e-03  4.84231143e-03 -4.29955936e-05 -2.53416022e-03
  1.92206389e-05 -1.16216964e-04 -3.53864054e-05 -4.78874605e-05  1.99755609e-04
  1.31820862e-04 -1.98795417e-05  8.55341954e-05 -1.52999517e-05  1.03660231e-04
  1.02163063e-04 -3.45279520e-05  2.19637492e-05 -4.97362820e-06  1.85505388e-05
  9.47650006e-04 -1.43589558e-05  2.52984117e-04 -2.16315508e-04  2.07907271e-04
 -4.29692537e-07  3.08889188e-05  1.42142289e-05 -1.06694831e-05  1.76775918e-05
  6.06876142e-01  3.83233824e-02 -7.25301932e-04  3.14638858e-04 -1.57217063e-03
 -7.65022759e-01 -4.66694322e-02 -6.10808746e-05  2.32519779e-04 -1.64978256e-03
 -2.01093776e-02  9.57839118e-04 -5.01560140e-03  1.62398204e-03 -1.01401905e-02
 -1.49597332e-01 -1.19657470e-04 -6.69634221e-03  3.91168901e-04  2.42843763e-03
  3.22893833e-02  3.89144056e-03 -1.51455099e-03  2.70465194e-04 -1.42078395e-03
 -1.41385976e-04 -2.92426832e-04  3.67021378e-05  1.72365130e-07 -2.22134691e-07
 -2.48394474e-07 -5.73055916e-08 -5.26458941e-07  1.66915127e-06 -2.62550975e-06
 -7.07137429e-03  3.22562877e-04  1.99614972e-03 -3.23844872e-04  4.46775837e-05
  2.69217720e-06  4.24915361e-07  1.95252478e-07  3.58658403e-07 -5.90558465e-07
 -3.99695818e-07  9.76399674e-03 -7.34361740e-07 -5.75772518e-07  1.02463860e-02
 -7.98279441e-03  6.47165461e-03 -2.06213940e-06 -4.24058279e-03  4.10654438e-05
 -2.32468716e-04  2.75875096e-05 -7.81621677e-05  3.64494626e-04  1.39325723e-04
 -1.08793539e-05  9.95416951e-05 -8.83370622e-06  1.05768185e-04  1.28633252e-04