15
 energy: -26.168618117998 gnorm: 0.000452256406 xtb: 6.5.0 (97a52f5)
C            0.86215476370900       -0.74721368884862       -0.27400833948918
C           -0.23112481517537        0.06863654901901       -0.00771518959963
C           -1.59291380231961       -0.51676481775665        0.11545202877702
O           -1.67261840293952       -1.40363945901467        1.11789437963834
C           -0.07155276457421        1.44841158259758        0.05366246336747
O           -2.53800944413743       -0.22164756409463       -0.56680432302665
C            2.11403587958908       -0.18406787202468       -0.44653695816907
C            2.27745650310671        1.18837099372865       -0.35726607714822
H            0.72901909279682       -1.81663339730601       -0.33931005389266
C            1.18529877477502        2.00295603836849       -0.10632117146447
H           -0.93186900083820        2.07483033061658        0.23511044304941
H            1.31172127215860        3.07352779529971       -0.04381571531635
H           -2.57000484189284       -1.76929072041574        1.17578718147364
H            2.96346495312116       -0.81787143752270       -0.65370725075775
H            3.25667883262079        1.62453065735368       -0.48888441744191
