      -----------------------------------------------------------      
     |                   =====================                   |     
     |                           x T B                           |     
     |                   =====================                   |     
     |                         S. Grimme                         |     
     |          Mulliken Center for Theoretical Chemistry        |     
     |                    University of Bonn                     |     
      -----------------------------------------------------------      

   * xtb version 6.5.0 (97a52f5) compiled by 'conda@d2599ee0d4f4' on 2022-05-15

   xtb is free software: you can redistribute it and/or modify it under
   the terms of the GNU Lesser General Public License as published by
   the Free Software Foundation, either version 3 of the License, or
   (at your option) any later version.
   
   xtb is distributed in the hope that it will be useful,
   but WITHOUT ANY WARRANTY; without even the implied warranty of
   MERCHANTABILITY or FITNESS FOR A PARTICULAR PURPOSE.  See the
   GNU Lesser General Public License for more details.
   
   Cite this work as:
   * C. Bannwarth, E. Caldeweyher, S. Ehlert, A. Hansen, P. Pracht,
     J. Seibert, S. Spicher, S. Grimme, WIREs Comput. Mol. Sci., 2020, 11,
     e01493. DOI: 10.1002/wcms.1493
   
   for GFN2-xTB:
   * C. Bannwarth, S. Ehlert and S. Grimme., J. Chem. Theory Comput., 2019,
     15, 1652-1671. DOI: 10.1021/acs.jctc.8b01176
   for GFN1-xTB:
   * S. Grimme, C. Bannwarth, P. Shushkov, J. Chem. Theory Comput., 2017,
     13, 1989-2009. DOI: 10.1021/acs.jctc.7b00118
   for GFN0-xTB:
   * P. Pracht, E. Caldeweyher, S. Ehlert, S. Grimme, ChemRxiv, 2019, preprint.
     DOI: 10.26434/chemrxiv.8326202.v1
   for GFN-FF:
   * S. Spicher and S. Grimme, Angew. Chem. Int. Ed., 2020, 59, 15665-15673.
     DOI: 10.1002/anie.202004239
   
   for ALPB and GBSA implicit solvation:
   * S. Ehlert, M. Stahn, S. Spicher, S. Grimme, J. Chem. Theory Comput.,
     2021, 17, 4250-4261. DOI: 10.1021/acs.jctc.1c00471
   
   for DFT-D4:
   * E. Caldeweyher, C. Bannwarth and S. Grimme, J. Chem. Phys., 2017,
     147, 034112. DOI: 10.1063/1.4993215
   * E. Caldeweyher, S. Ehlert, A. Hansen, H. Neugebauer, S. Spicher,
     C. Bannwarth and S. Grimme, J. Chem. Phys., 2019, 150, 154122.
     DOI: 10.1063/1.5090222
   * E. Caldeweyher, J.-M. Mewes, S. Ehlert and S. Grimme, Phys. Chem. Chem. Phys.
     2020, 22, 8499-8512. DOI: 10.1039/D0CP00502A
   
   for sTDA-xTB:
   * S. Grimme and C. Bannwarth, J. Chem. Phys., 2016, 145, 054103.
     DOI: 10.1063/1.4959605
   
   in the mass-spec context:
   * V. Asgeirsson, C. Bauer and S. Grimme, Chem. Sci., 2017, 8, 4879.
     DOI: 10.1039/c7sc00601b
   * J. Koopman and S. Grimme, ACS Omega 2019, 4, 12, 15120-15133.
     DOI: 10.1021/acsomega.9b02011
   
   for metadynamics refer to:
   * S. Grimme, J. Chem. Theory Comput., 2019, 155, 2847-2862
     DOI: 10.1021/acs.jctc.9b00143
   
   for SPH calculations refer to:
   * S. Spicher and S. Grimme, J. Chem. Theory Comput., 2021, 17, 1701-1714
     DOI: 10.1021/acs.jctc.0c01306
   
   with help from (in alphabetical order)
   P. Atkinson, C. Bannwarth, F. Bohle, G. Brandenburg, E. Caldeweyher
   M. Checinski, S. Dohm, S. Ehlert, S. Ehrlich, I. Gerasimov, C. Hölzer
   A. Katbashev, J. Koopman, C. Lavigne, S. Lehtola, F. März, M. Müller,
   F. Musil, H. Neugebauer, J. Pisarek, C. Plett, P. Pracht, F. Pultar,
   J. Seibert, P. Shushkov, S. Spicher, M. Stahn, M. Steiner, T. Strunk,
   J. Stückrath, T. Rose, and J. Unsleber
   
 * started run on 2023/11/18 at 08:13:18.027     

           -------------------------------------------------
          |                Calculation Setup                |
           -------------------------------------------------

          program call               : /home/liuchw/anaconda3/envs/xtbenv/bin/xtb --gfn 2 --chrg 0 --uhf 0 13_34_Index_0-opt-2-3-241_preQMOPTprefit_xyzformat.xyz --opt --input xtb-opt-2-3-241_constr.txt
          hostname                   : node165.bme.utexas.edu
          coordinate file            : 13_34_Index_0-opt-2-3-241_preQMOPTprefit_xyzformat.xyz
          omp threads                :                    64

   ID    Z sym.   atoms
    1    6 C      1-3, 5, 7, 8, 10
    2    8 O      4, 6
    3    1 H      9, 11-15
constraining angle 1 2 3 4 to  241.0014950°, actual value: -118.9985050°
constraining angle 2 3 4 13 to  179.9946666°, actual value:  179.9946666°

           -------------------------------------------------
          |                 G F N 2 - x T B                 |
           -------------------------------------------------

        Reference                      10.1021/acs.jctc.8b01176
      * Hamiltonian:
        H0-scaling (s, p, d)           1.850000    2.230000    2.230000
        zeta-weighting                 0.500000
      * Dispersion:
        s8                             2.700000
        a1                             0.520000
        a2                             5.000000
        s9                             5.000000
      * Repulsion:
        kExp                           1.500000    1.000000
        rExp                           1.000000
      * Coulomb:
        alpha                          2.000000
        third order                    shell-resolved
        anisotropic                    true
        a3                             3.000000
        a5                             4.000000
        cn-shift                       1.200000
        cn-exp                         4.000000
        max-rad                        5.000000

q/qsh data taken from xtbrestart
CAMM data taken from xtbrestart

          ...................................................
          :                      SETUP                      :
          :.................................................:
          :  # basis functions                  42          :
          :  # atomic orbitals                  42          :
          :  # shells                           24          :
          :  # electrons                        46          :
          :  max. iterations                   250          :
          :  Hamiltonian                  GFN2-xTB          :
          :  restarted?                       true          :
          :  GBSA solvation                  false          :
          :  PC potential                    false          :
          :  electronic temp.          300.0000000     K    :
          :  accuracy                    1.0000000          :
          :  -> integral cutoff          0.2500000E+02      :
          :  -> integral neglect         0.1000000E-07      :
          :  -> SCF convergence          0.1000000E-05 Eh   :
          :  -> wf. convergence          0.1000000E-03 e    :
          :  Broyden damping             0.4000000          :
          ...................................................

 iter      E             dE          RMSdq      gap      omega  full diag
   1    -26.4980537 -0.264981E+02  0.125E+00    4.05       0.0  T
   2    -26.4982301 -0.176467E-03  0.733E-01    4.04       1.0  T
   3    -26.4977035  0.526620E-03  0.236E-01    4.02       1.0  T
   4    -26.4983655 -0.661970E-03  0.379E-02    4.02       1.0  T
   5    -26.4983677 -0.223009E-05  0.219E-02    4.02       1.2  T
   6    -26.4983686 -0.845741E-06  0.580E-03    4.02       4.5  T
   7    -26.4983687 -0.177153E-06  0.163E-03    4.02      15.8  T
   8    -26.4983688 -0.112268E-07  0.889E-04    4.02      29.0  T
   9    -26.4983688 -0.651559E-08  0.322E-04    4.02      80.2  T

   *** convergence criteria satisfied after 9 iterations ***

         #    Occupation            Energy/Eh            Energy/eV
      -------------------------------------------------------------
         1        2.0000           -0.7453419             -20.2818
       ...           ...                  ...                  ...
        17        2.0000           -0.4853537             -13.2071
        18        2.0000           -0.4782356             -13.0135
        19        2.0000           -0.4552004             -12.3866
        20        2.0000           -0.4384177             -11.9300
        21        2.0000           -0.4208578             -11.4521
        22        2.0000           -0.4169387             -11.3455
        23        2.0000           -0.4142234             -11.2716 (HOMO)
        24                         -0.2663356              -7.2474 (LUMO)
        25                         -0.2421149              -6.5883
        26                         -0.2275292              -6.1914
        27                         -0.1212469              -3.2993
        28                          0.0484633               1.3188
       ...                                ...                  ...
        42                          0.6004850              16.3400
      -------------------------------------------------------------
                  HL-Gap            0.1478877 Eh            4.0242 eV
             Fermi-level           -0.3402795 Eh           -9.2595 eV

 SCC (total)                   0 d,  0 h,  0 min,  1.436 sec
 SCC setup                      ...        0 min,  0.013 sec (  0.874%)
 Dispersion                     ...        0 min,  0.039 sec (  2.688%)
 classical contributions        ...        0 min,  0.028 sec (  1.984%)
 integral evaluation            ...        0 min,  0.063 sec (  4.398%)
 iterations                     ...        0 min,  1.093 sec ( 76.117%)
 molecular gradient             ...        0 min,  0.200 sec ( 13.902%)
 printout                       ...        0 min,  0.000 sec (  0.014%)

         :::::::::::::::::::::::::::::::::::::::::::::::::::::
         ::                     SUMMARY                     ::
         :::::::::::::::::::::::::::::::::::::::::::::::::::::
         :: total energy             -26.162915325728 Eh    ::
         :: gradient norm              0.061249557676 Eh/a0 ::
         :: HOMO-LUMO gap              4.024230477103 eV    ::
         ::.................................................::
         :: SCC energy               -26.498368764310 Eh    ::
         :: -> isotropic ES            0.048360434075 Eh    ::
         :: -> anisotropic ES          0.001668854419 Eh    ::
         :: -> anisotropic XC          0.010569447031 Eh    ::
         :: -> dispersion             -0.011671408818 Eh    ::
         :: repulsion energy           0.335432792341 Eh    ::
         :: add. restraining           0.000000000000 Eh    ::
         :: total charge               0.000000000000 e     ::
         :::::::::::::::::::::::::::::::::::::::::::::::::::::

      ----------------------------------------------------------- 
     |                   =====================                   |
     |                        A N C O P T                        |
     |                   =====================                   |
     |               Approximate Normal Coordinate               |
     |                Rational Function Optimizer                |
      ----------------------------------------------------------- 

          ...................................................
          :                      SETUP                      :
          :.................................................:
          :   optimization level            normal          :
          :   max. optcycles                   200          :
          :   ANC micro-cycles                  20          :
          :   degrees of freedom                39          :
          :.................................................:
          :   RF solver                   davidson          :
          :   write xtbopt.log                true          :
          :   linear?                        false          :
          :   energy convergence         0.5000000E-05 Eh   :
          :   grad. convergence          0.1000000E-02 Eh/α :
          :   maximium RF displ.         1.0000000          :
          :   Hlow (freq-cutoff)         0.1000000E-01      :
          :   Hmax (freq-cutoff)         5.0000000          :
          :   S6 in model hess.         20.0000000          :
          ...................................................

generating ANC from model Hessian ...
Using Lindh-Hessian (1995)
 Shifting diagonal of input Hessian by    5.8669683756312173E-003
 Lowest  eigenvalues of input Hessian
    0.000000    0.000000    0.000000    0.000000    0.000000    0.000000
    0.010000    0.016696    0.018705    0.022683    0.027172    0.029425
    0.048251    0.060920    0.074891    0.092226    0.092322    0.096973
 Highest eigenvalues
    1.676617    1.813372    1.873646    2.179423    4.589170    5.146743


........................................................................
.............................. CYCLE    1 ..............................
........................................................................
   1    -26.4983688 -0.264984E+02  0.135E-04    4.02       0.0  T
   2    -26.4983688 -0.584954E-10  0.838E-05    4.02     308.3  T
   3    -26.4983688 -0.330047E-10  0.523E-05    4.02     494.1  T
     SCC iter.                  ...        0 min,  0.318 sec
     gradient                   ...        0 min,  0.216 sec
 * total energy  :   -26.1629153 Eh     change       -0.2617142E-09 Eh
   gradient norm :     0.0612493 Eh/α   predicted     0.0000000E+00 (-100.00%)
   displ. norm   :     0.1866891 α      lambda       -0.8571121E-02
   maximum displ.:     0.1244997 α      in ANC's #20, #19, #18, ...

........................................................................
.............................. CYCLE    2 ..............................
........................................................................
   1    -26.5414145 -0.265414E+02  0.227E-01    4.23       0.0  T
   2    -26.5414611 -0.466080E-04  0.136E-01    4.21       1.0  T
   3    -26.5414498  0.113480E-04  0.586E-02    4.23       1.0  T
   4    -26.5414717 -0.219046E-04  0.785E-03    4.22       3.3  T
   5    -26.5414721 -0.386670E-06  0.466E-03    4.22       5.5  T
   6    -26.5414722 -0.124737E-06  0.213E-03    4.22      12.1  T
   7    -26.5414722 -0.455727E-08  0.586E-04    4.22      44.1  T
   8    -26.5414722 -0.216910E-08  0.216E-04    4.22     119.3  T
     SCC iter.                  ...        0 min,  1.045 sec
     gradient                   ...        0 min,  0.230 sec
 * total energy  :   -26.1680735 Eh     change       -0.5158200E-02 Eh
   gradient norm :     0.0144488 Eh/α   predicted    -0.4434929E-02 ( -14.02%)
   displ. norm   :     0.0744950 α      lambda       -0.5946648E-03
   maximum displ.:     0.0314359 α      in ANC's #4, #20, #1, ...

........................................................................
.............................. CYCLE    3 ..............................
........................................................................
   1    -26.5509920 -0.265510E+02  0.795E-02    4.26       0.0  T
   2    -26.5509986 -0.656050E-05  0.475E-02    4.25       1.0  T
   3    -26.5509978  0.791007E-06  0.221E-02    4.26       1.2  T
   4    -26.5510003 -0.249913E-05  0.306E-03    4.25       8.4  T
   5    -26.5510004 -0.108551E-06  0.151E-03    4.25      17.1  T
   6    -26.5510004 -0.412574E-08  0.627E-04    4.25      41.2  T
   7    -26.5510004 -0.898659E-09  0.151E-04    4.25     170.9  T
     SCC iter.                  ...        0 min,  0.823 sec
     gradient                   ...        0 min,  0.220 sec
 * total energy  :   -26.1684201 Eh     change       -0.3465543E-03 Eh
   gradient norm :     0.0064326 Eh/α   predicted    -0.2989819E-03 ( -13.73%)
   displ. norm   :     0.0498951 α      lambda       -0.1103506E-03
   maximum displ.:     0.0299994 α      in ANC's #1, #4, #16, ...

........................................................................
.............................. CYCLE    4 ..............................
........................................................................
   1    -26.5514622 -0.265515E+02  0.434E-02    4.25       0.0  T
   2    -26.5514637 -0.150520E-05  0.254E-02    4.25       1.0  T
   3    -26.5514634  0.284074E-06  0.103E-02    4.25       2.5  T
   4    -26.5514640 -0.590298E-06  0.175E-03    4.25      14.7  T
   5    -26.5514640 -0.310295E-07  0.889E-04    4.25      29.0  T
   6    -26.5514640 -0.311761E-08  0.476E-04    4.25      54.2  T
     SCC iter.                  ...        0 min,  0.641 sec
     gradient                   ...        0 min,  0.186 sec
 * total energy  :   -26.1684983 Eh     change       -0.7818376E-04 Eh
   gradient norm :     0.0033339 Eh/α   predicted    -0.5531451E-04 ( -29.25%)
   displ. norm   :     0.0540297 α      lambda       -0.5475280E-04
   maximum displ.:     0.0406898 α      in ANC's #1, #4, #16, ...

........................................................................
.............................. CYCLE    5 ..............................
........................................................................
   1    -26.5503431 -0.265503E+02  0.415E-02    4.24       0.0  T
   2    -26.5503436 -0.430894E-06  0.244E-02    4.24       1.1  T
   3    -26.5503434  0.175500E-06  0.560E-03    4.24       4.6  T
   4    -26.5503437 -0.300415E-06  0.134E-03    4.24      19.2  T
   5    -26.5503437 -0.640761E-08  0.808E-04    4.24      32.0  T
   6    -26.5503437 -0.234233E-08  0.316E-04    4.24      81.8  T
     SCC iter.                  ...        0 min,  0.660 sec
     gradient                   ...        0 min,  0.229 sec
 * total energy  :   -26.1685291 Eh     change       -0.3084877E-04 Eh
   gradient norm :     0.0022444 Eh/α   predicted    -0.2745483E-04 ( -11.00%)
   displ. norm   :     0.0184896 α      lambda       -0.5921906E-05
   maximum displ.:     0.0172969 α      in ANC's #1, #7, #16, ...

........................................................................
.............................. CYCLE    6 ..............................
........................................................................
   1    -26.5501126 -0.265501E+02  0.134E-02    4.24       0.0  T
   2    -26.5501127 -0.644489E-07  0.794E-03    4.24       3.3  T
   3    -26.5501127  0.177207E-07  0.154E-03    4.24      16.7  T
   4    -26.5501127 -0.242545E-07  0.525E-04    4.24      49.2  T
   5    -26.5501127 -0.342013E-08  0.224E-04    4.24     115.0  T
     SCC iter.                  ...        0 min,  0.613 sec
     gradient                   ...        0 min,  0.209 sec
 * total energy  :   -26.1685329 Eh     change       -0.3803926E-05 Eh
   gradient norm :     0.0010067 Eh/α   predicted    -0.2962769E-05 ( -22.11%)
   displ. norm   :     0.0207329 α      lambda       -0.2282248E-05
   maximum displ.:     0.0196505 α      in ANC's #1, #2, #7, ...

........................................................................
.............................. CYCLE    7 ..............................
........................................................................
   1    -26.5501180 -0.265501E+02  0.149E-02    4.24       0.0  T
   2    -26.5501182 -0.168613E-06  0.879E-03    4.24       2.9  T
   3    -26.5501182  0.336923E-07  0.278E-03    4.24       9.3  T
   4    -26.5501182 -0.506455E-07  0.665E-04    4.24      38.9  T
   5    -26.5501182 -0.621042E-08  0.249E-04    4.24     103.6  T
     SCC iter.                  ...        0 min,  0.570 sec
     gradient                   ...        0 min,  0.209 sec
 * total energy  :   -26.1685346 Eh     change       -0.1715719E-05 Eh
   gradient norm :     0.0004321 Eh/α   predicted    -0.1143152E-05 ( -33.37%)
   displ. norm   :     0.0063749 α      lambda       -0.5390343E-06
   maximum displ.:     0.0059096 α      in ANC's #1, #9, #16, ...

   *** GEOMETRY OPTIMIZATION CONVERGED AFTER 7 ITERATIONS ***

------------------------------------------------------------------------
 total energy gain   :        -0.0056193 Eh       -3.5262 kcal/mol
 total RMSD          :         0.0815402 a0        0.0431 Å
 total power (kW/mol):        -2.1076410 (step)   -1.9999 (real)
------------------------------------------------------------------------

 ANCopt (total)                0 d,  0 h,  0 min,  7.377 sec
 optimizer setup                ...        0 min,  0.000 sec (  0.002%)
 model hessian                  ...        0 min,  0.002 sec (  0.022%)
 ANC generation                 ...        0 min,  0.001 sec (  0.007%)
 coordinate transformation      ...        0 min,  0.000 sec (  0.003%)
 single point calculation       ...        0 min,  7.228 sec ( 97.973%)
 optimization log               ...        0 min,  0.007 sec (  0.094%)
 hessian update                 ...        0 min,  0.137 sec (  1.861%)
 rational function              ...        0 min,  0.002 sec (  0.022%)

================
 final structure:
================
15
 xtb: 6.5.0 (97a52f5)
C            0.85916886102782       -0.72836113247143       -0.59536130424647
C           -0.11539493800826       -0.09600800779326        0.16810487711299
C           -1.38586388302887       -0.81147544513455        0.46545150357413
O           -2.44980184351741       -0.16134795347979       -0.02732964774449
C            0.07546587966620        1.21223758576896        0.59667354491817
O           -1.47691656941112       -1.86473393322038        1.03836377496411
C            2.02842096524816       -0.05903663050468       -0.90878998389388
C            2.22787756000407        1.23737294266936       -0.46333487549352
H            0.69696392224077       -1.74180956475082       -0.93037810123835
C            1.25315429307115        1.87035385145613        0.29033350261169
H           -0.69157285180804        1.70344852237853        1.17630577479090
H            1.40753378494992        2.88236240202155        0.63425627059854
H           -3.26592045813934       -0.64518268408073        0.17784240581324
H            2.78511173309338       -0.54991418428971       -1.50251963769279
H            3.14351054461155        1.75622724143083       -0.70607511407424

 Bond Distances (Angstroems)
 ---------------------------
C1-C2=1.3902         C1-C7=1.3833         C1-H9=1.0796         C2-C1=1.3902         C2-C3=1.4881         C2-C5=1.3898         
C3-C2=1.4881         C3-O4=1.3407         C3-O6=1.2024         O4-C3=1.3407         O4-H13=0.9707        C5-C2=1.3898         
C5-C10=1.3834        C5-H11=1.0796        O6-C3=1.2024         C7-C1=1.3833         C7-C8=1.3852         C7-H14=1.0798        
C8-C7=1.3852         C8-C10=1.3852        C8-H15=1.0801        H9-C1=1.0796         C10-C5=1.3834        C10-C8=1.3852        
C10-H12=1.0799       H11-C5=1.0796        H12-C10=1.0799       H13-O4=0.9707        H14-C7=1.0798        H15-C8=1.0801        
 C  H  Rav=1.0798 sigma=0.0002  Rmin=1.0796  Rmax=1.0801     5
 C  C  Rav=1.4007 sigma=0.0358  Rmin=1.3833  Rmax=1.4881     7
 O  H  Rav=0.9707 sigma=0.0000  Rmin=0.9707  Rmax=0.9707     1
 O  C  Rav=1.2716 sigma=0.0691  Rmin=1.2024  Rmax=1.3407     2

 selected bond angles (degree)
 --------------------
C7-C1-C2=119.80                H9-C1-C2=119.48                H9-C1-C7=120.72                C3-C2-C1=119.31                
C5-C2-C1=120.08                C5-C2-C3=120.54                O4-C3-C2=111.77                O6-C3-C2=125.52                
O6-C3-O4=122.67                H13-O4-C3=110.35               C10-C5-C2=119.76               H11-C5-C2=119.75               
H11-C5-C10=120.48              C8-C7-C1=120.11                H14-C7-C1=119.80               H14-C7-C8=120.09               
C10-C8-C7=120.09               H15-C8-C7=119.96               H15-C8-C10=119.95              C8-C10-C5=120.14               
H12-C10-C5=119.80              H12-C10-C8=120.06              

 selected dihedral angles (degree)
 ---------------------------------
C3-C2-C1-C7=178.22            C3-C2-C1-H9=357.72            C5-C2-C1-C7=  1.04            C5-C2-C1-H9=180.53            
O4-C3-C2-C1=240.93            O4-C3-C2-C5= 58.10            O6-C3-C2-C1= 58.75            O6-C3-C2-C5=235.93            
H13-O4-C3-C2=179.99           H13-O4-C3-O6=  2.09           C10-C5-C2-C1=358.32           C10-C5-C2-C3=181.17           
H11-C5-C2-C1=179.05           H11-C5-C2-C3=  1.90           C8-C7-C1-C2=  0.00            C8-C7-C1-H9=180.52            
H14-C7-C1-C2=180.05           H14-C7-C1-H9=  0.56           C10-C8-C7-C1=359.59           C10-C8-C7-H14=179.55          
H15-C8-C7-C1=179.75           H15-C8-C7-H14=359.70          C8-C10-C5-C2=  1.27           C8-C10-C5-H11=180.54          
H12-C10-C5-C2=180.81          H12-C10-C5-H11=  0.08         C5-C10-C8-C7=359.76           C5-C10-C8-H15=179.61          
H12-C10-C8-C7=180.23          H12-C10-C8-H15=  0.07         
           -------------------------------------------------
          |                Final Singlepoint                |
           -------------------------------------------------

          ...................................................
          :                      SETUP                      :
          :.................................................:
          :  # basis functions                  42          :
          :  # atomic orbitals                  42          :
          :  # shells                           24          :
          :  # electrons                        46          :
          :  max. iterations                   250          :
          :  Hamiltonian                  GFN2-xTB          :
          :  restarted?                      false          :
          :  GBSA solvation                  false          :
          :  PC potential                    false          :
          :  electronic temp.          300.0000000     K    :
          :  accuracy                    1.0000000          :
          :  -> integral cutoff          0.2500000E+02      :
          :  -> integral neglect         0.1000000E-07      :
          :  -> SCF convergence          0.1000000E-05 Eh   :
          :  -> wf. convergence          0.1000000E-03 e    :
          :  Broyden damping             0.4000000          :
          ...................................................

 iter      E             dE          RMSdq      gap      omega  full diag
   1    -26.5501182 -0.265501E+02  0.152E-04    4.24       0.0  T
   2    -26.5501182 -0.360103E-10  0.100E-04    4.24     257.7  T
   3    -26.5501182  0.215650E-11  0.635E-05    4.24     406.8  T

   *** convergence criteria satisfied after 3 iterations ***

         #    Occupation            Energy/Eh            Energy/eV
      -------------------------------------------------------------
         1        2.0000           -0.7479645             -20.3531
       ...           ...                  ...                  ...
        17        2.0000           -0.4905831             -13.3494
        18        2.0000           -0.4788714             -13.0308
        19        2.0000           -0.4539808             -12.3534
        20        2.0000           -0.4363534             -11.8738
        21        2.0000           -0.4211299             -11.4595
        22        2.0000           -0.4189948             -11.4014
        23        2.0000           -0.4152986             -11.3008 (HOMO)
        24                         -0.2596236              -7.0647 (LUMO)
        25                         -0.2370364              -6.4501
        26                         -0.2165281              -5.8920
        27                         -0.1064580              -2.8969
        28                          0.0567279               1.5436
       ...                                ...                  ...
        42                          0.6661498              18.1269
      -------------------------------------------------------------
                  HL-Gap            0.1556750 Eh            4.2361 eV
             Fermi-level           -0.3374611 Eh           -9.1828 eV

 SCC (total)                   0 d,  0 h,  0 min,  0.742 sec
 SCC setup                      ...        0 min,  0.017 sec (  2.301%)
 Dispersion                     ...        0 min,  0.053 sec (  7.088%)
 classical contributions        ...        0 min,  0.023 sec (  3.114%)
 integral evaluation            ...        0 min,  0.079 sec ( 10.640%)
 iterations                     ...        0 min,  0.377 sec ( 50.755%)
 molecular gradient             ...        0 min,  0.193 sec ( 26.032%)
 printout                       ...        0 min,  0.000 sec (  0.025%)

         :::::::::::::::::::::::::::::::::::::::::::::::::::::
         ::                     SUMMARY                     ::
         :::::::::::::::::::::::::::::::::::::::::::::::::::::
         :: total energy             -26.168534632430 Eh    ::
         :: gradient norm              0.000431742020 Eh/a0 ::
         :: HOMO-LUMO gap              4.236132599931 eV    ::
         ::.................................................::
         :: SCC energy               -26.550118224309 Eh    ::
         :: -> isotropic ES            0.048307745844 Eh    ::
         :: -> anisotropic ES          0.001395013094 Eh    ::
         :: -> anisotropic XC          0.008598811550 Eh    ::
         :: -> dispersion             -0.011800488928 Eh    ::
         :: repulsion energy           0.381559786769 Eh    ::
         :: add. restraining           0.000004040901 Eh    ::
         :: total charge              -0.000000000000 e     ::
         :::::::::::::::::::::::::::::::::::::::::::::::::::::

           -------------------------------------------------
          |                Property Printout                |
           -------------------------------------------------

    * Orbital Energies and Occupations

         #    Occupation            Energy/Eh            Energy/eV
      -------------------------------------------------------------
         1        2.0000           -0.7479645             -20.3531
       ...           ...                  ...                  ...
        11        2.0000           -0.5651999             -15.3799
        12        2.0000           -0.5342836             -14.5386
        13        2.0000           -0.5083860             -13.8339
        14        2.0000           -0.5050047             -13.7419
        15        2.0000           -0.4944387             -13.4544
        16        2.0000           -0.4909514             -13.3595
        17        2.0000           -0.4905831             -13.3494
        18        2.0000           -0.4788714             -13.0308
        19        2.0000           -0.4539808             -12.3534
        20        2.0000           -0.4363534             -11.8738
        21        2.0000           -0.4211299             -11.4595
        22        2.0000           -0.4189948             -11.4014
        23        2.0000           -0.4152986             -11.3008 (HOMO)
        24                         -0.2596236              -7.0647 (LUMO)
        25                         -0.2370364              -6.4501
        26                         -0.2165281              -5.8920
        27                         -0.1064580              -2.8969
        28                          0.0567279               1.5436
        29                          0.1152640               3.1365
        30                          0.1260875               3.4310
        31                          0.1603789               4.3641
        32                          0.1621859               4.4133
        33                          0.1808032               4.9199
        34                          0.1931514               5.2559
       ...                                ...                  ...
        42                          0.6661498              18.1269
      -------------------------------------------------------------
                  HL-Gap            0.1556750 Eh            4.2361 eV
             Fermi-level           -0.3374611 Eh           -9.1828 eV

     #   Z          covCN         q      C6AA      α(0)
     1   6 C        2.923    -0.020    28.507     8.756
     2   6 C        2.974    -0.011    28.275     8.722
     3   6 C        2.696     0.361    20.879     7.479
     4   8 O        1.660    -0.376    20.394     6.096
     5   6 C        2.922    -0.021    28.520     8.758
     6   8 O        0.856    -0.406    21.801     6.260
     7   6 C        2.920    -0.025    28.617     8.772
     8   6 C        2.920    -0.024    28.604     8.770
     9   1 H        0.926     0.047     2.356     2.400
    10   6 C        2.920    -0.025    28.631     8.775
    11   1 H        0.926     0.045     2.389     2.417
    12   1 H        0.926     0.042     2.423     2.434
    13   1 H        0.804     0.329     0.640     1.257
    14   1 H        0.926     0.043     2.410     2.428
    15   1 H        0.926     0.041     2.435     2.440

 Mol. C6AA /au·bohr⁶  :       2940.304291
 Mol. C8AA /au·bohr⁸  :      71470.292395
 Mol. α(0) /au        :         85.764839


Wiberg/Mayer (AO) data.
largest (>0.10) Wiberg bond orders for each atom

 ---------------------------------------------------------------------------
     #   Z sym  total        # sym  WBO       # sym  WBO       # sym  WBO
 ---------------------------------------------------------------------------
     1   6 C    3.991 --     7 C    1.445     2 C    1.400     9 H    0.969
                            10 C    0.111
     2   6 C    3.988 --     5 C    1.402     1 C    1.400     3 C    0.975
                             8 C    0.109
     3   6 C    3.911 --     6 O    1.763     4 O    1.127     2 C    0.975
     4   8 O    2.201 --     3 C    1.127    13 H    0.866     6 O    0.176
     5   6 C    3.991 --    10 C    1.445     2 C    1.402    11 H    0.970
                             7 C    0.111
     6   8 O    2.043 --     3 C    1.763     4 O    0.176
     7   6 C    3.992 --     1 C    1.445     8 C    1.438    14 H    0.970
                             5 C    0.111
     8   6 C    3.992 --    10 C    1.438     7 C    1.438    15 H    0.971
                             2 C    0.109
     9   1 H    0.998 --     1 C    0.969
    10   6 C    3.992 --     5 C    1.445     8 C    1.438    12 H    0.970
                             1 C    0.111
    11   1 H    0.998 --     5 C    0.970
    12   1 H    0.998 --    10 C    0.970
    13   1 H    0.891 --     4 O    0.866
    14   1 H    0.998 --     7 C    0.970
    15   1 H    0.998 --     8 C    0.971
 ---------------------------------------------------------------------------

Topologies differ in total number of bonds
Writing topology from bond orders to xtbtopo.mol

molecular dipole:
                 x           y           z       tot (Debye)
 q only:        0.197       0.739      -0.414
   full:        0.035       0.732      -0.412       2.137
molecular quadrupole (traceless):
                xx          xy          yy          xz          yz          zz
 q only:        6.969      -0.315      -4.282      -0.299       4.354      -2.687
  q+dip:        9.283       1.170      -4.378      -2.689       7.203      -4.905
   full:        8.540       0.466      -5.410      -1.262       6.325      -3.130

           -------------------------------------------------
          |                Geometry Summary                 |
           -------------------------------------------------

      molecular mass/u    :      122.1216056
   center of mass at/Å    :        0.0053213       0.0208419       0.0790062
  moments of inertia/u·Å² :        0.1289600E+03   0.4327264E+03   0.5105451E+03
rotational constants/cm⁻¹ :        0.1307199E+00   0.3895680E-01   0.3301889E-01

 * 14 selected distances

     #   Z          #   Z                                           value/Å
     1   6 C        2   6 C                                       1.3901532 (max)
     3   6 C        4   8 O                                       1.3406951
     2   6 C        5   6 C                                       1.3898222
     3   6 C        6   8 O                                       1.2024445
     1   6 C        7   6 C                                       1.3832511
     7   6 C        8   6 C                                       1.3852405
     1   6 C        9   1 H                                       1.0796410
     5   6 C       10   6 C                                       1.3834419
     8   6 C       10   6 C                                       1.3851955
     5   6 C       11   1 H                                       1.0796344
    10   6 C       12   1 H                                       1.0799432
     4   8 O       13   1 H                                       0.9706912 (min)
     7   6 C       14   1 H                                       1.0798411
     8   6 C       15   1 H                                       1.0800540

 * 4 distinct bonds (by element types)

   Z      Z             #   av. dist./Å        max./Å        min./Å
   1 H    6 C           5     1.0798227     1.0800540     1.0796344
   6 C    6 C           6     1.3861841     1.3901532     1.3832511
   1 H    8 O           1     0.9706912     0.9706912     0.9706912
   6 C    8 O           2     1.2715698     1.3406951     1.2024445


optimized geometry written to: xtbopt.xyz


           -------------------------------------------------
          | TOTAL ENERGY              -26.168534632430 Eh   |
          | GRADIENT NORM               0.000431742020 Eh/α |
          | HOMO-LUMO GAP               4.236132599931 eV   |
           -------------------------------------------------
########################################################################
[WARNING] Runtime exception occurred
-1- restart_readRestart: Number of electron missmatch in restart file.
########################################################################

------------------------------------------------------------------------
 * finished run on 2023/11/18 at 08:13:27.782     
------------------------------------------------------------------------
 total:
 * wall-time:     0 d,  0 h,  0 min,  9.755 sec
 *  cpu-time:     0 d,  0 h,  5 min, 11.161 sec
 * ratio c/w:    31.898 speedup
 SCF:
 * wall-time:     0 d,  0 h,  0 min,  1.436 sec
 *  cpu-time:     0 d,  0 h,  0 min, 47.312 sec
 * ratio c/w:    32.946 speedup
 ANC optimizer:
 * wall-time:     0 d,  0 h,  0 min,  8.143 sec
 *  cpu-time:     0 d,  0 h,  4 min, 18.314 sec
 * ratio c/w:    31.722 speedup

