      -----------------------------------------------------------      
     |                   =====================                   |     
     |                           x T B                           |     
     |                   =====================                   |     
     |                         S. Grimme                         |     
     |          Mulliken Center for Theoretical Chemistry        |     
     |                    University of Bonn                     |     
      -----------------------------------------------------------      

   * xtb version 6.5.0 (97a52f5) compiled by 'conda@d2599ee0d4f4' on 2022-05-15

   xtb is free software: you can redistribute it and/or modify it under
   the terms of the GNU Lesser General Public License as published by
   the Free Software Foundation, either version 3 of the License, or
   (at your option) any later version.
   
   xtb is distributed in the hope that it will be useful,
   but WITHOUT ANY WARRANTY; without even the implied warranty of
   MERCHANTABILITY or FITNESS FOR A PARTICULAR PURPOSE.  See the
   GNU Lesser General Public License for more details.
   
   Cite this work as:
   * C. Bannwarth, E. Caldeweyher, S. Ehlert, A. Hansen, P. Pracht,
     J. Seibert, S. Spicher, S. Grimme, WIREs Comput. Mol. Sci., 2020, 11,
     e01493. DOI: 10.1002/wcms.1493
   
   for GFN2-xTB:
   * C. Bannwarth, S. Ehlert and S. Grimme., J. Chem. Theory Comput., 2019,
     15, 1652-1671. DOI: 10.1021/acs.jctc.8b01176
   for GFN1-xTB:
   * S. Grimme, C. Bannwarth, P. Shushkov, J. Chem. Theory Comput., 2017,
     13, 1989-2009. DOI: 10.1021/acs.jctc.7b00118
   for GFN0-xTB:
   * P. Pracht, E. Caldeweyher, S. Ehlert, S. Grimme, ChemRxiv, 2019, preprint.
     DOI: 10.26434/chemrxiv.8326202.v1
   for GFN-FF:
   * S. Spicher and S. Grimme, Angew. Chem. Int. Ed., 2020, 59, 15665-15673.
     DOI: 10.1002/anie.202004239
   
   for ALPB and GBSA implicit solvation:
   * S. Ehlert, M. Stahn, S. Spicher, S. Grimme, J. Chem. Theory Comput.,
     2021, 17, 4250-4261. DOI: 10.1021/acs.jctc.1c00471
   
   for DFT-D4:
   * E. Caldeweyher, C. Bannwarth and S. Grimme, J. Chem. Phys., 2017,
     147, 034112. DOI: 10.1063/1.4993215
   * E. Caldeweyher, S. Ehlert, A. Hansen, H. Neugebauer, S. Spicher,
     C. Bannwarth and S. Grimme, J. Chem. Phys., 2019, 150, 154122.
     DOI: 10.1063/1.5090222
   * E. Caldeweyher, J.-M. Mewes, S. Ehlert and S. Grimme, Phys. Chem. Chem. Phys.
     2020, 22, 8499-8512. DOI: 10.1039/D0CP00502A
   
   for sTDA-xTB:
   * S. Grimme and C. Bannwarth, J. Chem. Phys., 2016, 145, 054103.
     DOI: 10.1063/1.4959605
   
   in the mass-spec context:
   * V. Asgeirsson, C. Bauer and S. Grimme, Chem. Sci., 2017, 8, 4879.
     DOI: 10.1039/c7sc00601b
   * J. Koopman and S. Grimme, ACS Omega 2019, 4, 12, 15120-15133.
     DOI: 10.1021/acsomega.9b02011
   
   for metadynamics refer to:
   * S. Grimme, J. Chem. Theory Comput., 2019, 155, 2847-2862
     DOI: 10.1021/acs.jctc.9b00143
   
   for SPH calculations refer to:
   * S. Spicher and S. Grimme, J. Chem. Theory Comput., 2021, 17, 1701-1714
     DOI: 10.1021/acs.jctc.0c01306
   
   with help from (in alphabetical order)
   P. Atkinson, C. Bannwarth, F. Bohle, G. Brandenburg, E. Caldeweyher
   M. Checinski, S. Dohm, S. Ehlert, S. Ehrlich, I. Gerasimov, C. Hölzer
   A. Katbashev, J. Koopman, C. Lavigne, S. Lehtola, F. März, M. Müller,
   F. Musil, H. Neugebauer, J. Pisarek, C. Plett, P. Pracht, F. Pultar,
   J. Seibert, P. Shushkov, S. Spicher, M. Stahn, M. Steiner, T. Strunk,
   J. Stückrath, T. Rose, and J. Unsleber
   
 * started run on 2023/11/18 at 08:15:29.220     

           -------------------------------------------------
          |                Calculation Setup                |
           -------------------------------------------------

          program call               : /home/liuchw/anaconda3/envs/xtbenv/bin/xtb --gfn 2 --chrg 0 --uhf 0 13_34_Index_0-opt-2-3-031_preQMOPTprefit_xyzformat.xyz --opt --input xtb-opt-2-3-031_constr.txt
          hostname                   : node165.bme.utexas.edu
          coordinate file            : 13_34_Index_0-opt-2-3-031_preQMOPTprefit_xyzformat.xyz
          omp threads                :                    64

   ID    Z sym.   atoms
    1    6 C      1-3, 5, 7, 8, 10
    2    8 O      4, 6
    3    1 H      9, 11-15
constraining angle 1 2 3 4 to   31.0134829°, actual value:   31.0134829°
constraining angle 2 3 4 13 to  179.9977898°, actual value:  179.9977898°

           -------------------------------------------------
          |                 G F N 2 - x T B                 |
           -------------------------------------------------

        Reference                      10.1021/acs.jctc.8b01176
      * Hamiltonian:
        H0-scaling (s, p, d)           1.850000    2.230000    2.230000
        zeta-weighting                 0.500000
      * Dispersion:
        s8                             2.700000
        a1                             0.520000
        a2                             5.000000
        s9                             5.000000
      * Repulsion:
        kExp                           1.500000    1.000000
        rExp                           1.000000
      * Coulomb:
        alpha                          2.000000
        third order                    shell-resolved
        anisotropic                    true
        a3                             3.000000
        a5                             4.000000
        cn-shift                       1.200000
        cn-exp                         4.000000
        max-rad                        5.000000

q/qsh data taken from xtbrestart
CAMM data taken from xtbrestart

          ...................................................
          :                      SETUP                      :
          :.................................................:
          :  # basis functions                  42          :
          :  # atomic orbitals                  42          :
          :  # shells                           24          :
          :  # electrons                        46          :
          :  max. iterations                   250          :
          :  Hamiltonian                  GFN2-xTB          :
          :  restarted?                       true          :
          :  GBSA solvation                  false          :
          :  PC potential                    false          :
          :  electronic temp.          300.0000000     K    :
          :  accuracy                    1.0000000          :
          :  -> integral cutoff          0.2500000E+02      :
          :  -> integral neglect         0.1000000E-07      :
          :  -> SCF convergence          0.1000000E-05 Eh   :
          :  -> wf. convergence          0.1000000E-03 e    :
          :  Broyden damping             0.4000000          :
          ...................................................

 iter      E             dE          RMSdq      gap      omega  full diag
   1    -26.4992701 -0.264993E+02  0.120E+00    3.70       0.0  T
   2    -26.4995817 -0.311512E-03  0.710E-01    3.77       1.0  T
   3    -26.4988548  0.726884E-03  0.278E-01    3.75       1.0  T
   4    -26.4997629 -0.908112E-03  0.417E-02    3.76       1.0  T
   5    -26.4997686 -0.573692E-05  0.232E-02    3.76       1.1  T
   6    -26.4997699 -0.128934E-05  0.885E-03    3.76       2.9  T
   7    -26.4997700 -0.111805E-06  0.293E-03    3.76       8.8  T
   8    -26.4997701 -0.304418E-07  0.123E-03    3.76      21.1  T
   9    -26.4997701 -0.105855E-07  0.308E-04    3.76      83.8  T
  10    -26.4997701 -0.703544E-10  0.181E-04    3.76     142.3  T

   *** convergence criteria satisfied after 10 iterations ***

         #    Occupation            Energy/Eh            Energy/eV
      -------------------------------------------------------------
         1        2.0000           -0.7408582             -20.1598
       ...           ...                  ...                  ...
        17        2.0000           -0.4862371             -13.2312
        18        2.0000           -0.4746279             -12.9153
        19        2.0000           -0.4531572             -12.3310
        20        2.0000           -0.4373983             -11.9022
        21        2.0000           -0.4202441             -11.4354
        22        2.0000           -0.4173155             -11.3557
        23        2.0000           -0.4159827             -11.3195 (HOMO)
        24                         -0.2777397              -7.5577 (LUMO)
        25                         -0.2423652              -6.5951
        26                         -0.2093475              -5.6966
        27                         -0.1148372              -3.1249
        28                          0.0419204               1.1407
       ...                                ...                  ...
        42                          0.6122855              16.6611
      -------------------------------------------------------------
                  HL-Gap            0.1382430 Eh            3.7618 eV
             Fermi-level           -0.3468612 Eh           -9.4386 eV

 SCC (total)                   0 d,  0 h,  0 min,  1.495 sec
 SCC setup                      ...        0 min,  0.012 sec (  0.774%)
 Dispersion                     ...        0 min,  0.043 sec (  2.886%)
 classical contributions        ...        0 min,  0.027 sec (  1.836%)
 integral evaluation            ...        0 min,  0.061 sec (  4.055%)
 iterations                     ...        0 min,  1.133 sec ( 75.827%)
 molecular gradient             ...        0 min,  0.218 sec ( 14.586%)
 printout                       ...        0 min,  0.000 sec (  0.012%)

         :::::::::::::::::::::::::::::::::::::::::::::::::::::
         ::                     SUMMARY                     ::
         :::::::::::::::::::::::::::::::::::::::::::::::::::::
         :: total energy             -26.166123546653 Eh    ::
         :: gradient norm              0.057796583711 Eh/a0 ::
         :: HOMO-LUMO gap              3.761783714764 eV    ::
         ::.................................................::
         :: SCC energy               -26.499770061478 Eh    ::
         :: -> isotropic ES            0.048800497057 Eh    ::
         :: -> anisotropic ES          0.001133619046 Eh    ::
         :: -> anisotropic XC          0.010430247716 Eh    ::
         :: -> dispersion             -0.011621929183 Eh    ::
         :: repulsion energy           0.333629847933 Eh    ::
         :: add. restraining           0.000000000000 Eh    ::
         :: total charge               0.000000000000 e     ::
         :::::::::::::::::::::::::::::::::::::::::::::::::::::

      ----------------------------------------------------------- 
     |                   =====================                   |
     |                        A N C O P T                        |
     |                   =====================                   |
     |               Approximate Normal Coordinate               |
     |                Rational Function Optimizer                |
      ----------------------------------------------------------- 

          ...................................................
          :                      SETUP                      :
          :.................................................:
          :   optimization level            normal          :
          :   max. optcycles                   200          :
          :   ANC micro-cycles                  20          :
          :   degrees of freedom                39          :
          :.................................................:
          :   RF solver                   davidson          :
          :   write xtbopt.log                true          :
          :   linear?                        false          :
          :   energy convergence         0.5000000E-05 Eh   :
          :   grad. convergence          0.1000000E-02 Eh/α :
          :   maximium RF displ.         1.0000000          :
          :   Hlow (freq-cutoff)         0.1000000E-01      :
          :   Hmax (freq-cutoff)         5.0000000          :
          :   S6 in model hess.         20.0000000          :
          ...................................................

generating ANC from model Hessian ...
Using Lindh-Hessian (1995)
 Shifting diagonal of input Hessian by    6.0825062681495222E-003
 Lowest  eigenvalues of input Hessian
    0.000000    0.000000    0.000000    0.000000    0.000000    0.000000
    0.010000    0.016946    0.017867    0.021308    0.026834    0.029265
    0.050076    0.059159    0.071796    0.092144    0.092639    0.096060
 Highest eigenvalues
    1.740540    1.826305    1.878168    2.234584    3.721208    8.781805


........................................................................
.............................. CYCLE    1 ..............................
........................................................................
   1    -26.4997701 -0.264998E+02  0.818E-05    3.76       0.0  T
   2    -26.4997701 -0.117559E-10  0.523E-05    3.76     493.4  T
   3    -26.4997701 -0.553868E-11  0.356E-05    3.76     725.8  T
     SCC iter.                  ...        0 min,  0.351 sec
     gradient                   ...        0 min,  0.206 sec
 * total energy  :   -26.1661235 Eh     change       -0.2365965E-09 Eh
   gradient norm :     0.0577962 Eh/α   predicted     0.0000000E+00 (-100.00%)
   displ. norm   :     0.2011257 α      lambda       -0.8692683E-02
   maximum displ.:     0.1190359 α      in ANC's #19, #21, #8, ...

........................................................................
.............................. CYCLE    2 ..............................
........................................................................
   1    -26.5434414 -0.265434E+02  0.254E-01    3.91       0.0  T
   2    -26.5434962 -0.548252E-04  0.155E-01    3.90       1.0  T
   3    -26.5434803  0.159640E-04  0.636E-02    3.91       1.0  T
   4    -26.5435096 -0.292848E-04  0.885E-03    3.91       2.9  T
   5    -26.5435102 -0.604191E-06  0.452E-03    3.91       5.7  T
   6    -26.5435103 -0.846555E-07  0.199E-03    3.91      13.0  T
   7    -26.5435103 -0.341213E-08  0.619E-04    3.91      41.7  T
   8    -26.5435103 -0.236313E-08  0.210E-04    3.91     123.2  T
     SCC iter.                  ...        0 min,  0.937 sec
     gradient                   ...        0 min,  0.154 sec
 * total energy  :   -26.1713903 Eh     change       -0.5266768E-02 Eh
   gradient norm :     0.0146453 Eh/α   predicted    -0.4522157E-02 ( -14.14%)
   displ. norm   :     0.0816593 α      lambda       -0.6456851E-03
   maximum displ.:     0.0287902 α      in ANC's #7, #21, #4, ...

........................................................................
.............................. CYCLE    3 ..............................
........................................................................
   1    -26.5537408 -0.265537E+02  0.792E-02    3.93       0.0  T
   2    -26.5537491 -0.829902E-05  0.488E-02    3.92       1.0  T
   3    -26.5537489  0.197375E-06  0.226E-02    3.93       1.1  T
   4    -26.5537511 -0.220688E-05  0.325E-03    3.92       7.9  T
   5    -26.5537512 -0.131149E-06  0.137E-03    3.92      18.8  T
   6    -26.5537512 -0.376075E-08  0.619E-04    3.92      41.7  T
   7    -26.5537512 -0.744027E-09  0.149E-04    3.92     173.5  T
     SCC iter.                  ...        0 min,  0.797 sec
     gradient                   ...        0 min,  0.194 sec
 * total energy  :   -26.1717560 Eh     change       -0.3656448E-03 Eh
   gradient norm :     0.0064131 Eh/α   predicted    -0.3249951E-03 ( -11.12%)
   displ. norm   :     0.0394603 α      lambda       -0.8975029E-04
   maximum displ.:     0.0217410 α      in ANC's #1, #16, #4, ...

........................................................................
.............................. CYCLE    4 ..............................
........................................................................
   1    -26.5539685 -0.265540E+02  0.292E-02    3.92       0.0  T
   2    -26.5539695 -0.104820E-05  0.173E-02    3.92       1.5  T
   3    -26.5539695  0.295045E-07  0.794E-03    3.92       3.3  T
   4    -26.5539697 -0.224756E-06  0.132E-03    3.92      19.6  T
   5    -26.5539698 -0.155367E-07  0.625E-04    3.92      41.3  T
   6    -26.5539698 -0.166277E-08  0.317E-04    3.92      81.4  T
     SCC iter.                  ...        0 min,  0.632 sec
     gradient                   ...        0 min,  0.219 sec
 * total energy  :   -26.1718182 Eh     change       -0.6227463E-04 Eh
   gradient norm :     0.0030390 Eh/α   predicted    -0.4494694E-04 ( -27.82%)
   displ. norm   :     0.0365985 α      lambda       -0.3857355E-04
   maximum displ.:     0.0230760 α      in ANC's #1, #16, #2, ...

........................................................................
.............................. CYCLE    5 ..............................
........................................................................
   1    -26.5529326 -0.265529E+02  0.251E-02    3.91       0.0  T
   2    -26.5529329 -0.264857E-06  0.148E-02    3.91       1.7  T
   3    -26.5529328  0.791607E-07  0.443E-03    3.91       5.8  T
   4    -26.5529329 -0.143518E-06  0.821E-04    3.91      31.4  T
   5    -26.5529330 -0.164961E-08  0.494E-04    3.91      52.3  T
     SCC iter.                  ...        0 min,  0.629 sec
     gradient                   ...        0 min,  0.181 sec
 * total energy  :   -26.1718385 Eh     change       -0.2026663E-04 Eh
   gradient norm :     0.0014138 Eh/α   predicted    -0.1931119E-04 (  -4.71%)
   displ. norm   :     0.0111150 α      lambda       -0.2381014E-05
   maximum displ.:     0.0080241 α      in ANC's #1, #9, #4, ...

........................................................................
.............................. CYCLE    6 ..............................
........................................................................
   1    -26.5526668 -0.265527E+02  0.103E-02    3.91       0.0  T
   2    -26.5526668 -0.403663E-07  0.614E-03    3.91       4.2  T
   3    -26.5526668  0.109263E-07  0.125E-03    3.91      20.7  T
   4    -26.5526668 -0.143545E-07  0.417E-04    3.91      61.8  T
   5    -26.5526668 -0.176839E-08  0.147E-04    3.91     175.7  T
     SCC iter.                  ...        0 min,  0.525 sec
     gradient                   ...        0 min,  0.239 sec
 * total energy  :   -26.1718395 Eh     change       -0.1015349E-05 Eh
   gradient norm :     0.0010385 Eh/α   predicted    -0.1190756E-05 (  17.28%)
   displ. norm   :     0.0036809 α      lambda       -0.7665918E-06
   maximum displ.:     0.0024125 α      in ANC's #9, #1, #2, ...

........................................................................
.............................. CYCLE    7 ..............................
........................................................................
   1    -26.5527691 -0.265528E+02  0.468E-03    3.91       0.0  T
   2    -26.5527691 -0.490209E-08  0.277E-03    3.92       9.3  T
   3    -26.5527691  0.219329E-08  0.623E-04    3.91      41.4  T
   4    -26.5527691 -0.296958E-08  0.136E-04    3.92     189.7  T
     SCC iter.                  ...        0 min,  0.430 sec
     gradient                   ...        0 min,  0.212 sec
 * total energy  :   -26.1718400 Eh     change       -0.5133685E-06 Eh
   gradient norm :     0.0003512 Eh/α   predicted    -0.3842852E-06 ( -25.14%)
   displ. norm   :     0.0012594 α      lambda       -0.6507963E-07
   maximum displ.:     0.0006473 α      in ANC's #2, #16, #3, ...

   *** GEOMETRY OPTIMIZATION CONVERGED AFTER 7 ITERATIONS ***

------------------------------------------------------------------------
 total energy gain   :        -0.0057165 Eh       -3.5871 kcal/mol
 total RMSD          :         0.0788796 a0        0.0417 Å
 total power (kW/mol):        -2.1440890 (step)   -2.2248 (real)
------------------------------------------------------------------------

 ANCopt (total)                0 d,  0 h,  0 min,  6.746 sec
 optimizer setup                ...        0 min,  0.000 sec (  0.005%)
 model hessian                  ...        0 min,  0.003 sec (  0.044%)
 ANC generation                 ...        0 min,  0.001 sec (  0.015%)
 coordinate transformation      ...        0 min,  0.000 sec (  0.003%)
 single point calculation       ...        0 min,  6.610 sec ( 97.981%)
 optimization log               ...        0 min,  0.011 sec (  0.158%)
 hessian update                 ...        0 min,  0.118 sec (  1.750%)
 rational function              ...        0 min,  0.002 sec (  0.023%)

================
 final structure:
================
15
 xtb: 6.5.0 (97a52f5)
C            0.85737120358954       -0.73970232529176       -0.16904287207679
C           -0.23758110242642        0.09543563901914        0.03221641976608
C           -1.59978296558539       -0.45742226898256        0.20497342602104
O           -1.60325373664241       -1.66609953631984        0.79053016319761
C           -0.07324563197794        1.47795816684595        0.00395540338994
O           -2.61754425007091        0.10596472775867       -0.10944419936170
C            2.11024265531411       -0.19101968754033       -0.37161911246747
C            2.27506392353701        1.18493974370091       -0.37708369711101
H            0.71879136812560       -1.80984938003851       -0.16262604150073
C            1.18365351817547        2.01858694174870       -0.18897427953519
H           -0.93840852941709        2.10877732281175        0.14104872986653
H            1.31386252093473        3.09044455946182       -0.19979167760094
H           -2.51461457430301       -1.98553375705922        0.88175363160391
H            2.96103329755605       -0.83726770804055       -0.52900172887996
H            3.25614730319066        1.60892156192581       -0.53335616531134

 Bond Distances (Angstroems)
 ---------------------------
C1-C2=1.3917         C1-C7=1.3827         C1-H9=1.0791         C2-C1=1.3917         C2-C3=1.4802         C2-C5=1.3925         
C3-C2=1.4802         C3-O4=1.3431         C3-O6=1.2050         O4-C3=1.3431         O4-H13=0.9700        C5-C2=1.3925         
C5-C10=1.3818        C5-H11=1.0795        O6-C3=1.2050         C7-C1=1.3827         C7-C8=1.3858         C7-H14=1.0799        
C8-C7=1.3858         C8-C10=1.3862        C8-H15=1.0801        H9-C1=1.0791         C10-C5=1.3818        C10-C8=1.3862        
C10-H12=1.0798       H11-C5=1.0795        H12-C10=1.0798       H13-O4=0.9700        H14-C7=1.0799        H15-C8=1.0801        
 C  H  Rav=1.0797 sigma=0.0004  Rmin=1.0791  Rmax=1.0801     5
 C  C  Rav=1.4001 sigma=0.0329  Rmin=1.3818  Rmax=1.4802     7
 O  H  Rav=0.9700 sigma=0.0000  Rmin=0.9700  Rmax=0.9700     1
 O  C  Rav=1.2740 sigma=0.0690  Rmin=1.2050  Rmax=1.3431     2

 selected bond angles (degree)
 --------------------
C7-C1-C2=119.73                H9-C1-C2=119.55                H9-C1-C7=120.72                C3-C2-C1=121.12                
C5-C2-C1=120.00                C5-C2-C3=118.80                O4-C3-C2=112.92                O6-C3-C2=124.90                
O6-C3-O4=122.16                H13-O4-C3=109.86               C10-C5-C2=119.91               H11-C5-C2=118.88               
H11-C5-C10=121.21              C8-C7-C1=120.16                H14-C7-C1=119.85               H14-C7-C8=119.99               
C10-C8-C7=120.19               H15-C8-C7=119.89               H15-C8-C10=119.91              C8-C10-C5=119.99               
H12-C10-C5=119.96              H12-C10-C8=120.04              

 selected dihedral angles (degree)
 ---------------------------------
C3-C2-C1-C7=177.85            C3-C2-C1-H9=357.69            C5-C2-C1-C7=  1.21            C5-C2-C1-H9=181.05            
O4-C3-C2-C1= 30.96            O4-C3-C2-C5=207.64            O6-C3-C2-C1=209.41            O6-C3-C2-C5= 26.09            
H13-O4-C3-C2=179.99           H13-O4-C3-O6=  1.50           C10-C5-C2-C1=358.30           C10-C5-C2-C3=181.58           
H11-C5-C2-C1=178.69           H11-C5-C2-C3=  1.98           C8-C7-C1-C2=359.87            C8-C7-C1-H9=180.03            
H14-C7-C1-C2=180.06           H14-C7-C1-H9=  0.22           C10-C8-C7-C1=359.54           C10-C8-C7-H14=179.35          
H15-C8-C7-C1=179.85           H15-C8-C7-H14=359.66          C8-C10-C5-C2=  1.11           C8-C10-C5-H11=180.71          
H12-C10-C5-C2=180.70          H12-C10-C5-H11=  0.29         C5-C10-C8-C7=359.96           C5-C10-C8-H15=179.65          
H12-C10-C8-C7=180.38          H12-C10-C8-H15=  0.07         
           -------------------------------------------------
          |                Final Singlepoint                |
           -------------------------------------------------

          ...................................................
          :                      SETUP                      :
          :.................................................:
          :  # basis functions                  42          :
          :  # atomic orbitals                  42          :
          :  # shells                           24          :
          :  # electrons                        46          :
          :  max. iterations                   250          :
          :  Hamiltonian                  GFN2-xTB          :
          :  restarted?                      false          :
          :  GBSA solvation                  false          :
          :  PC potential                    false          :
          :  electronic temp.          300.0000000     K    :
          :  accuracy                    1.0000000          :
          :  -> integral cutoff          0.2500000E+02      :
          :  -> integral neglect         0.1000000E-07      :
          :  -> SCF convergence          0.1000000E-05 Eh   :
          :  -> wf. convergence          0.1000000E-03 e    :
          :  Broyden damping             0.4000000          :
          ...................................................

 iter      E             dE          RMSdq      gap      omega  full diag
   1    -26.5527691 -0.265528E+02  0.526E-05    3.92       0.0  T
   2    -26.5527691 -0.554579E-11  0.310E-05    3.92     831.9  T
   3    -26.5527691 -0.124345E-11  0.186E-05    3.92    1389.1  T

   *** convergence criteria satisfied after 3 iterations ***

         #    Occupation            Energy/Eh            Energy/eV
      -------------------------------------------------------------
         1        2.0000           -0.7440595             -20.2469
       ...           ...                  ...                  ...
        17        2.0000           -0.4893607             -13.3162
        18        2.0000           -0.4752730             -12.9328
        19        2.0000           -0.4515915             -12.2884
        20        2.0000           -0.4353316             -11.8460
        21        2.0000           -0.4215130             -11.4700
        22        2.0000           -0.4197650             -11.4224
        23        2.0000           -0.4162174             -11.3259 (HOMO)
        24                         -0.2723422              -7.4108 (LUMO)
        25                         -0.2371849              -6.4541
        26                         -0.1977472              -5.3810
        27                         -0.0990893              -2.6964
        28                          0.0570286               1.5518
       ...                                ...                  ...
        42                          0.6816791              18.5494
      -------------------------------------------------------------
                  HL-Gap            0.1438752 Eh            3.9150 eV
             Fermi-level           -0.3442798 Eh           -9.3683 eV

 SCC (total)                   0 d,  0 h,  0 min,  0.751 sec
 SCC setup                      ...        0 min,  0.014 sec (  1.831%)
 Dispersion                     ...        0 min,  0.054 sec (  7.133%)
 classical contributions        ...        0 min,  0.024 sec (  3.173%)
 integral evaluation            ...        0 min,  0.068 sec (  9.040%)
 iterations                     ...        0 min,  0.361 sec ( 48.034%)
 molecular gradient             ...        0 min,  0.231 sec ( 30.698%)
 printout                       ...        0 min,  0.000 sec (  0.039%)

         :::::::::::::::::::::::::::::::::::::::::::::::::::::
         ::                     SUMMARY                     ::
         :::::::::::::::::::::::::::::::::::::::::::::::::::::
         :: total energy             -26.171840029333 Eh    ::
         :: gradient norm              0.000351389185 Eh/a0 ::
         :: HOMO-LUMO gap              3.915043496408 eV    ::
         ::.................................................::
         :: SCC energy               -26.552769103180 Eh    ::
         :: -> isotropic ES            0.048995062469 Eh    ::
         :: -> anisotropic ES          0.000825847705 Eh    ::
         :: -> anisotropic XC          0.008423989043 Eh    ::
         :: -> dispersion             -0.011771150859 Eh    ::
         :: repulsion energy           0.380911506405 Eh    ::
         :: add. restraining           0.000001978498 Eh    ::
         :: total charge               0.000000000000 e     ::
         :::::::::::::::::::::::::::::::::::::::::::::::::::::

           -------------------------------------------------
          |                Property Printout                |
           -------------------------------------------------

    * Orbital Energies and Occupations

         #    Occupation            Energy/Eh            Energy/eV
      -------------------------------------------------------------
         1        2.0000           -0.7440595             -20.2469
       ...           ...                  ...                  ...
        11        2.0000           -0.5631937             -15.3253
        12        2.0000           -0.5318141             -14.4714
        13        2.0000           -0.5090039             -13.8507
        14        2.0000           -0.5040629             -13.7162
        15        2.0000           -0.4930191             -13.4157
        16        2.0000           -0.4918876             -13.3849
        17        2.0000           -0.4893607             -13.3162
        18        2.0000           -0.4752730             -12.9328
        19        2.0000           -0.4515915             -12.2884
        20        2.0000           -0.4353316             -11.8460
        21        2.0000           -0.4215130             -11.4700
        22        2.0000           -0.4197650             -11.4224
        23        2.0000           -0.4162174             -11.3259 (HOMO)
        24                         -0.2723422              -7.4108 (LUMO)
        25                         -0.2371849              -6.4541
        26                         -0.1977472              -5.3810
        27                         -0.0990893              -2.6964
        28                          0.0570286               1.5518
        29                          0.1175209               3.1979
        30                          0.1251373               3.4052
        31                          0.1592058               4.3322
        32                          0.1659280               4.5151
        33                          0.1815602               4.9405
        34                          0.1907874               5.1916
       ...                                ...                  ...
        42                          0.6816791              18.5494
      -------------------------------------------------------------
                  HL-Gap            0.1438752 Eh            3.9150 eV
             Fermi-level           -0.3442798 Eh           -9.3683 eV

     #   Z          covCN         q      C6AA      α(0)
     1   6 C        2.921    -0.020    28.510     8.756
     2   6 C        2.974    -0.015    28.375     8.738
     3   6 C        2.697     0.356    20.953     7.492
     4   8 O        1.660    -0.380    20.462     6.107
     5   6 C        2.924    -0.019    28.479     8.752
     6   8 O        0.856    -0.414    21.968     6.284
     7   6 C        2.919    -0.026    28.652     8.778
     8   6 C        2.920    -0.022    28.544     8.761
     9   1 H        0.926     0.053     2.282     2.362
    10   6 C        2.919    -0.025    28.627     8.774
    11   1 H        0.926     0.057     2.233     2.337
    12   1 H        0.926     0.043     2.408     2.427
    13   1 H        0.804     0.328     0.643     1.260
    14   1 H        0.926     0.042     2.427     2.436
    15   1 H        0.926     0.042     2.429     2.437

 Mol. C6AA /au·bohr⁶  :       2936.074375
 Mol. C8AA /au·bohr⁸  :      71422.746971
 Mol. α(0) /au        :         85.699305


Wiberg/Mayer (AO) data.
largest (>0.10) Wiberg bond orders for each atom

 ---------------------------------------------------------------------------
     #   Z sym  total        # sym  WBO       # sym  WBO       # sym  WBO
 ---------------------------------------------------------------------------
     1   6 C    3.990 --     7 C    1.451     2 C    1.391     9 H    0.968
                            10 C    0.109
     2   6 C    3.988 --     1 C    1.391     5 C    1.388     3 C    1.002
                             8 C    0.104
     3   6 C    3.914 --     6 O    1.742     4 O    1.119     2 C    1.002
     4   8 O    2.194 --     3 C    1.119    13 H    0.868     6 O    0.171
     5   6 C    3.989 --    10 C    1.453     2 C    1.388    11 H    0.967
                             7 C    0.109
     6   8 O    2.034 --     3 C    1.742     4 O    0.171
     7   6 C    3.992 --     1 C    1.451     8 C    1.435    14 H    0.970
                             5 C    0.109
     8   6 C    3.992 --     7 C    1.435    10 C    1.433    15 H    0.971
                             2 C    0.104
     9   1 H    0.997 --     1 C    0.968
    10   6 C    3.992 --     5 C    1.453     8 C    1.433    12 H    0.970
                             1 C    0.109
    11   1 H    0.997 --     5 C    0.967
    12   1 H    0.998 --    10 C    0.970
    13   1 H    0.892 --     4 O    0.868
    14   1 H    0.998 --     7 C    0.970
    15   1 H    0.998 --     8 C    0.971
 ---------------------------------------------------------------------------

Topologies differ in total number of bonds
Writing topology from bond orders to xtbtopo.mol

molecular dipole:
                 x           y           z       tot (Debye)
 q only:        0.856      -0.228       0.149
   full:        0.773      -0.343       0.185       2.199
molecular quadrupole (traceless):
                xx          xy          yy          xz          yz          zz
 q only:       -2.585       5.423       4.108      -3.190      -0.528      -1.523
  q+dip:       -0.749       7.093       5.661      -4.907       0.066      -4.912
   full:       -2.378       7.146       4.286      -4.310       0.213      -1.908

           -------------------------------------------------
          |                Geometry Summary                 |
           -------------------------------------------------

      molecular mass/u    :      122.1216056
   center of mass at/Å    :       -0.0692606       0.1468474       0.0007830
  moments of inertia/u·Å² :        0.1289071E+03   0.4145295E+03   0.5297878E+03
rotational constants/cm⁻¹ :        0.1307735E+00   0.4066690E-01   0.3181959E-01

 * 14 selected distances

     #   Z          #   Z                                           value/Å
     1   6 C        2   6 C                                       1.3917189
     3   6 C        4   8 O                                       1.3430524
     2   6 C        5   6 C                                       1.3925422 (max)
     3   6 C        6   8 O                                       1.2050318
     1   6 C        7   6 C                                       1.3826702
     7   6 C        8   6 C                                       1.3858068
     1   6 C        9   1 H                                       1.0791017
     5   6 C       10   6 C                                       1.3817732
     8   6 C       10   6 C                                       1.3861926
     5   6 C       11   1 H                                       1.0794603
    10   6 C       12   1 H                                       1.0797918
     4   8 O       13   1 H                                       0.9700199 (min)
     7   6 C       14   1 H                                       1.0799309
     8   6 C       15   1 H                                       1.0801419

 * 4 distinct bonds (by element types)

   Z      Z             #   av. dist./Å        max./Å        min./Å
   1 H    6 C           5     1.0796853     1.0801419     1.0791017
   6 C    6 C           6     1.3867840     1.3925422     1.3817732
   1 H    8 O           1     0.9700199     0.9700199     0.9700199
   6 C    8 O           2     1.2740421     1.3430524     1.2050318


optimized geometry written to: xtbopt.xyz


           -------------------------------------------------
          | TOTAL ENERGY              -26.171840029333 Eh   |
          | GRADIENT NORM               0.000351389185 Eh/α |
          | HOMO-LUMO GAP               3.915043496408 eV   |
           -------------------------------------------------
########################################################################
[WARNING] Runtime exception occurred
-1- restart_readRestart: Number of electron missmatch in restart file.
########################################################################

------------------------------------------------------------------------
 * finished run on 2023/11/18 at 08:15:38.450     
------------------------------------------------------------------------
 total:
 * wall-time:     0 d,  0 h,  0 min,  9.231 sec
 *  cpu-time:     0 d,  0 h,  5 min,  5.068 sec
 * ratio c/w:    33.050 speedup
 SCF:
 * wall-time:     0 d,  0 h,  0 min,  1.495 sec
 *  cpu-time:     0 d,  0 h,  0 min, 50.662 sec
 * ratio c/w:    33.888 speedup
 ANC optimizer:
 * wall-time:     0 d,  0 h,  0 min,  7.512 sec
 *  cpu-time:     0 d,  0 h,  4 min,  8.371 sec
 * ratio c/w:    33.063 speedup

