15
 energy: -26.166123546889 gnorm: 0.057796229601 xtb: 6.5.0 (97a52f5)
C            0.86633766000000       -0.76580618000000       -0.19231553000000
C           -0.24623141000000        0.08987590000000        0.00427154000000
C           -1.62474802000000       -0.47657875000000        0.21034621000000
O           -1.60967027000000       -1.68922323000000        0.83671040000000
C           -0.08776608000000        1.49618209000000        0.00450667000000
O           -2.66335837000000        0.06844711000000       -0.13026011000000
C            2.13688761000000       -0.20396392000000       -0.38101562000000
C            2.30448839000000        1.19865803000000       -0.37671154000000
H            0.72808369000000       -1.84812328000000       -0.19301363000000
C            1.18862305000000        2.04305766000000       -0.18475135000000
H           -0.96078731000000        2.13549227000000        0.14643939000000
H            1.31744779000000        3.12668492000000       -0.18521461000000
H           -2.55268079000000       -1.94484034000000        0.90970456000000
H            2.99909118000000       -0.85577791000000       -0.53160005000000
H            3.29601788000000        1.63004963000000       -0.52355833000000
15
 energy: -26.171390314434 gnorm: 0.014645284311 xtb: 6.5.0 (97a52f5)
C            0.86061701164396       -0.74503709671180       -0.18251141761184
C           -0.23946252789528        0.09248737471474        0.01019979704556
C           -1.60333383556880       -0.46771182409792        0.20562150714476
O           -1.60212455682954       -1.67230298735639        0.82052574294202
C           -0.07700668753162        1.47884046582197       -0.00393466783741
O           -2.62828144824749        0.07880575383757       -0.11809966982512
C            2.11568446830778       -0.19154185594794       -0.37670174045761
C            2.28125585303158        1.18852556364266       -0.37376400749291
H            0.72313032902487       -1.81745974253832       -0.18589573494248
C            1.18424360155430        2.02090502103698       -0.18694098898388
H           -0.94171089689481        2.11229421712093        0.13998647370743
H            1.31531798602147        3.09546403111338       -0.18548301273800
H           -2.53303213360510       -1.94775572619586        0.89973548296240
H            2.97146306655128       -0.83679589470711       -0.52952778598041
H            3.26497477043740        1.61541670026711       -0.51967197793252
15
 energy: -26.171755959227 gnorm: 0.006413124111 xtb: 6.5.0 (97a52f5)
C            0.85791668122307       -0.74007967219142       -0.17872648058800
C           -0.23766159937342        0.09352143529932        0.01940622662086
C           -1.59754611260708       -0.46074846614282        0.20531536016070
O           -1.59930132891161       -1.66631275958263        0.80507190973696
C           -0.07405623757139        1.47507095236407       -0.00040943479345
O           -2.61943092288950        0.09204185185256       -0.11096723265179
C            2.11032888948836       -0.18999368052840       -0.37497158907278
C            2.27494273553908        1.18516100871576       -0.37355529022270
H            0.72060683759693       -1.81001039256406       -0.17494396416825
C            1.18297520525986        2.01641031144511       -0.18687145189134
H           -0.93859002210208        2.10636066703416        0.13545588207875
H            1.31306390542103        3.08831326032396       -0.19140075618524
H           -2.52086754698067       -1.96133656169503        0.89161505898998
H            2.96296495998343       -0.83450202956001       -0.52945157399724
H            3.25638955592399        1.61023807522942       -0.52202866401644
15
 energy: -26.171818233860 gnorm: 0.003039019986 xtb: 6.5.0 (97a52f5)
C            0.85773946138410       -0.73989482770237       -0.17305129819229
C           -0.23751798838069        0.09407382629124        0.02560309939070
C           -1.59748932560902       -0.45863108161694        0.20459733148589
O           -1.60052599355238       -1.66493807191751        0.79786553404269
C           -0.07392283554692        1.47590483320540       -0.00024325191625
O           -2.61802889320859        0.09973693479385       -0.10867083671405
C            2.11016249569601       -0.19061938619677       -0.37291451564198
C            2.27449542777412        1.18476786660209       -0.37455631954078
H            0.71950111212529       -1.80966142649658       -0.16966776590395
C            1.18293142839440        2.01726961323912       -0.18831093283306
H           -0.93870758008339        2.10652117279620        0.13670630496587
H            1.31289065039163        3.08881538967657       -0.19444526179813
H           -2.51677884961521       -1.97272413390363        0.88712938409844
H            2.96130928761395       -0.83572229459705       -0.53064292027791
H            3.25567660261669        1.60923558582638       -0.52586055116519
15
 energy: -26.171838500486 gnorm: 0.001413827213 xtb: 6.5.0 (97a52f5)
C            0.85733892107702       -0.73991350555012       -0.17057736688902
C           -0.23764405022545        0.09495507867673        0.03106711754456
C           -1.59880738599339       -0.45720338124948        0.20513382210986
O           -1.60259211275568       -1.66563346981394        0.79122746068656
C           -0.07344634429370        1.47749276242010        0.00284244611625
O           -2.61765890814290        0.10583796537496       -0.10730122600287
C            2.11028259972503       -0.19113848066403       -0.37229728953514
C            2.27493801222835        1.18483891538910       -0.37601937015517
H            0.71889438059664       -1.81000325640844       -0.16385831201928
C            1.18353080014105        2.01854333272341       -0.18834785262326
H           -0.93902012535919        2.10800409912369        0.13796868537152
H            1.31333502865151        3.09025042482071       -0.19887729104859
H           -2.51456282870117       -1.98364739288761        0.88291034121246
H            2.96099802982888       -0.83711762381757       -0.52964298285841
H            3.25614898322300        1.60886853186249       -0.53069018190949
15
 energy: -26.171839515835 gnorm: 0.001038500615 xtb: 6.5.0 (97a52f5)
C            0.85756000167689       -0.73982056034644       -0.16853875974667
C           -0.23760246113243        0.09530027861321        0.03214124246527
C           -1.59968476306725       -0.45743877427011        0.20486296125871
O           -1.60348899339779       -1.66579796809598        0.79097517048817
C           -0.07337346981102        1.47794461173750        0.00317590019247
O           -2.61755853997641        0.10597389936038       -0.10937240052924
C            2.11045957651785       -0.19106640945131       -0.37114786355921
C            2.27513477794601        1.18498233489674       -0.37696188337844
H            0.71879833412652       -1.80997564106639       -0.16326886712639
C            1.18356685035865        2.01869553529767       -0.18952513638879
H           -0.93858035283591        2.10860474175304        0.14092627166744
H            1.31385329443847        3.09053212515253       -0.19923794468402
H           -2.51473943688889       -1.98552170688406        0.88208898304538
H            2.96107103132065       -0.83726597138912       -0.52976384245702
H            3.25631915072468        1.60898750469236       -0.53281583124768
15
 energy: -26.171840029203 gnorm: 0.000351221890 xtb: 6.5.0 (97a52f5)
C            0.85737120358954       -0.73970232529176       -0.16904287207679
C           -0.23758110242642        0.09543563901914        0.03221641976608
C           -1.59978296558539       -0.45742226898256        0.20497342602104
O           -1.60325373664241       -1.66609953631984        0.79053016319761
C           -0.07324563197794        1.47795816684595        0.00395540338994
O           -2.61754425007091        0.10596472775867       -0.10944419936170
C            2.11024265531411       -0.19101968754033       -0.37161911246747
C            2.27506392353701        1.18493974370091       -0.37708369711101
H            0.71879136812560       -1.80984938003851       -0.16262604150073
C            1.18365351817547        2.01858694174870       -0.18897427953519
H           -0.93840852941709        2.10877732281175        0.14104872986653
H            1.31386252093473        3.09044455946182       -0.19979167760094
H           -2.51461457430301       -1.98553375705922        0.88175363160391
H            2.96103329755605       -0.83726770804055       -0.52900172887996
H            3.25614730319066        1.60892156192581       -0.53335616531134
