
    -----------------------------------------------------------------------
          Psi4: An Open-Source Ab Initio Electronic Structure Package
                               Psi4 1.3.2 release

                         Git: Rev {HEAD} ecbda83 


    R. M. Parrish, L. A. Burns, D. G. A. Smith, A. C. Simmonett,
    A. E. DePrince III, E. G. Hohenstein, U. Bozkaya, A. Yu. Sokolov,
    R. Di Remigio, R. M. Richard, J. F. Gonthier, A. M. James,
    H. R. McAlexander, A. Kumar, M. Saitow, X. Wang, B. P. Pritchard,
    P. Verma, H. F. Schaefer III, K. Patkowski, R. A. King, E. F. Valeev,
    F. A. Evangelista, J. M. Turney, T. D. Crawford, and C. D. Sherrill,
    J. Chem. Theory Comput. 13(7) pp 3185--3197 (2017).
    (doi: 10.1021/acs.jctc.7b00174)


                         Additional Contributions by
    P. Kraus, H. Kruse, M. H. Lechner, M. C. Schieber, R. A. Shaw,
    A. Alenaizan, R. Galvelis, Z. L. Glick, S. Lehtola, and J. P. Misiewicz

    -----------------------------------------------------------------------


    Psi4 started on: Tuesday, 09 November 2021 09:41AM

    Process ID: 63664
    Host:       node44.bme.utexas.edu
    PSIDATADIR: /home/bdw2292/miniconda3/envs/amoebamdpoltype/share/psi4
    Memory:     500.0 MiB
    Threads:    1
    
  ==> Input File <==

--------------------------------------------------------------------------
molecule { 
0 1
C          0.76840       -0.39010        0.07510
C          0.81870        0.79670        0.73960
N          2.01500        1.48570        1.02620
H          2.04670        2.35900        1.59500
C          3.32760        1.04510        0.55700
C         -0.38080        1.37730        1.15150
C         -0.45250       -0.99130       -0.17810
C         -1.58120        0.75890        0.88810
C         -1.67290       -0.44230        0.21710
H          1.69470       -0.88110       -0.25600
H         -0.33620        2.31250        1.67300
H         -0.49600       -1.93920       -0.70890
H         -2.48410        1.26410        1.24600
C          3.53340        1.16240       -0.86330
C          3.87280        0.15870       -1.73820
C          3.35530        2.44010       -1.39440
C          4.03720        0.37270       -3.08890
C          3.52170        2.63130       -2.72740
C          3.85900        1.63490       -3.60150
H          4.01560       -0.83530       -1.35160
H          3.08980        3.27710       -0.76290
H          4.30510       -0.43950       -3.75400
H          3.38170        3.62370       -3.13930
H          3.98460        1.81640       -4.66570
H          3.44930        0.01690        0.82690
H          4.04440        1.69140        1.01890
H         -2.57650       -0.90090        0.02180
}
memory 100GB
set_num_threads(12)
psi4_io.set_default_path("/scratch/bdw2292/Psi4-farH_in17")
set maxiter 500
set freeze_core True
set PROPERTIES_ORIGIN ["COM"]
set cubeprop_tasks ['esp']
E, wfn = properties('hf/MINIX',properties=['dipole'],return_wfn=True)
cubeprop(wfn)
fchk(wfn, "farH_in17-esp_frag.fchk")
oeprop(wfn,"WIBERG_LOWDIN_INDICES","MULLIKEN_CHARGES")
clean()
--------------------------------------------------------------------------

  Memory set to  93.132 GiB by Python driver.
  Threads set to 12 by Python driver.

*** tstart() called on node44.bme.utexas.edu
*** at Tue Nov  9 09:41:53 2021

   => Loading Basis Set <=

    Name: MINIX
    Role: ORBITAL
    Keyword: BASIS
    atoms 1-2, 5-9, 14-19 entry C          line    74 file /home/bdw2292/miniconda3/envs/amoebamdpoltype/share/psi4/basis/minix.gbs 
    atoms 3               entry N          line    88 file /home/bdw2292/miniconda3/envs/amoebamdpoltype/share/psi4/basis/minix.gbs 
    atoms 4, 10-13, 20-27 entry H          line    24 file /home/bdw2292/miniconda3/envs/amoebamdpoltype/share/psi4/basis/minix.gbs 


         ---------------------------------------------------------
                                   SCF
               by Justin Turney, Rob Parrish, Andy Simmonett
                          and Daniel G. A. Smith
                              RHF Reference
                       12 Threads,  95367 MiB Core
         ---------------------------------------------------------

  ==> Geometry <==

    Molecular point group: c1
    Full point group: C1

    Geometry (in Angstrom), charge = 0, multiplicity = 1:

       Center              X                  Y                   Z               Mass       
    ------------   -----------------  -----------------  -----------------  -----------------
         C           -1.026224869957    -1.257970202324     0.695030529075    12.000000000000
         C           -0.975924869957    -0.071170202324     1.359530529075    12.000000000000
         N            0.220375130043     0.617829797676     1.646130529075    14.003074004430
         H            0.252075130043     1.491129797676     2.214930529075     1.007825032230
         C            1.532975130043     0.177229797676     1.176930529075    12.000000000000
         C           -2.175424869957     0.509429797676     1.771430529075    12.000000000000
         C           -2.247124869957    -1.859170202324     0.441830529075    12.000000000000
         C           -3.375824869957    -0.108970202324     1.508030529075    12.000000000000
         C           -3.467524869957    -1.310170202324     0.837030529075    12.000000000000
         H           -0.099924869957    -1.748970202324     0.363930529075     1.007825032230
         H           -2.130824869957     1.444629797676     2.292930529075     1.007825032230
         H           -2.290624869957    -2.807070202324    -0.088969470925     1.007825032230
         H           -4.278724869957     0.396229797676     1.865930529075     1.007825032230
         C            1.738775130043     0.294529797676    -0.243369470925    12.000000000000
         C            2.078175130043    -0.709170202324    -1.118269470925    12.000000000000
         C            1.560675130043     1.572229797676    -0.774469470925    12.000000000000
         C            2.242575130043    -0.495170202324    -2.468969470925    12.000000000000
         C            1.727075130043     1.763429797676    -2.107469470925    12.000000000000
         C            2.064375130043     0.767029797676    -2.981569470925    12.000000000000
         H            2.220975130043    -1.703170202324    -0.731669470925     1.007825032230
         H            1.295175130043     2.409229797676    -0.142969470925     1.007825032230
         H            2.510475130043    -1.307370202324    -3.134069470925     1.007825032230
         H            1.587075130043     2.755829797676    -2.519369470925     1.007825032230
         H            2.189975130043     0.948529797676    -4.045769470925     1.007825032230
         H            1.654675130043    -0.850970202324     1.446830529075     1.007825032230
         H            2.249775130043     0.823529797676     1.638830529075     1.007825032230
         H           -4.371124869957    -1.768770202324     0.641730529075     1.007825032230

  Running in c1 symmetry.

  Rotational constants: A =      0.04768  B =      0.01351  C =      0.01256 [cm^-1]
  Rotational constants: A =   1429.33501  B =    404.90514  C =    376.53688 [MHz]
  Nuclear repulsion =  809.419186018336291

  Charge       = 0
  Multiplicity = 1
  Electrons    = 98
  Nalpha       = 49
  Nbeta        = 49

  ==> Algorithm <==

  SCF Algorithm Type is DF.
  DIIS enabled.
  MOM disabled.
  Fractional occupation disabled.
  Guess Type is SAD.
  Energy threshold   = 1.00e-06
  Density threshold  = 1.00e-06
  Integral threshold = 0.00e+00

  ==> Primary Basis <==

  Basis Set: MINIX
    Blend: MINIX
    Number of shells: 55
    Number of basis function: 83
    Number of Cartesian functions: 83
    Spherical Harmonics?: true
    Max angular momentum: 1

   => Loading Basis Set <=

    Name: (MINIX AUX)
    Role: JKFIT
    Keyword: DF_BASIS_SCF
    atoms 1-2, 5-9, 14-19 entry C          line   203 file /home/bdw2292/miniconda3/envs/amoebamdpoltype/share/psi4/basis/def2-svp-jkfit.gbs 
    atoms 3               entry N          line   263 file /home/bdw2292/miniconda3/envs/amoebamdpoltype/share/psi4/basis/def2-svp-jkfit.gbs 
    atoms 4, 10-13, 20-27 entry H          line    23 file /home/bdw2292/miniconda3/envs/amoebamdpoltype/share/psi4/basis/def2-svp-jkfit.gbs 

  ==> Pre-Iterations <==

   -------------------------------------------------------
    Irrep   Nso     Nmo     Nalpha   Nbeta   Ndocc  Nsocc
   -------------------------------------------------------
     A         83      83       0       0       0       0
   -------------------------------------------------------
    Total      83      83      49      49      49       0
   -------------------------------------------------------

  ==> Integral Setup <==

  DFHelper Memory: AOs need 0.076 GiB; user supplied 69.849 GiB. Using in-core AOs.

  ==> MemDFJK: Density-Fitted J/K Matrices <==

    J tasked:                   Yes
    K tasked:                   Yes
    wK tasked:                   No
    OpenMP threads:              12
    Memory [MiB]:             71525
    Algorithm:                 Core
    Schwarz Cutoff:           1E-12
    Mask sparsity (%):       5.8644
    Fitting Condition:        1E-10

   => Auxiliary Basis Set <=

  Basis Set: (MINIX AUX)
    Blend: DEF2-SVP-JKFIT
    Number of shells: 428
    Number of basis function: 1286
    Number of Cartesian functions: 1510
    Spherical Harmonics?: true
    Max angular momentum: 4

  Minimum eigenvalue in the overlap matrix is 1.6174758065E-01.
  Using Symmetric Orthogonalization.

  SCF Guess: Superposition of Atomic Densities via on-the-fly atomic UHF.

  ==> Iterations <==

                           Total Energy        Delta E     RMS |[F,P]|

   @DF-RHF iter SAD:  -544.13404668210887   -5.44134e+02   0.00000e+00 
   @DF-RHF iter   1:  -550.44684852407420   -6.31280e+00   2.40023e-03 DIIS
   @DF-RHF iter   2:  -550.47732595653235   -3.04774e-02   6.59469e-04 DIIS
   @DF-RHF iter   3:  -550.47970808705770   -2.38213e-03   2.52253e-04 DIIS
   @DF-RHF iter   4:  -550.48011775967166   -4.09673e-04   7.16368e-05 DIIS
   @DF-RHF iter   5:  -550.48015875376450   -4.09941e-05   2.16502e-05 DIIS
   @DF-RHF iter   6:  -550.48016470485845   -5.95109e-06   5.58191e-06 DIIS
   @DF-RHF iter   7:  -550.48016498968786   -2.84829e-07   1.26074e-06 DIIS
   @DF-RHF iter   8:  -550.48016500891731   -1.92294e-08   4.53588e-07 DIIS
  Energy and wave function converged.


  ==> Post-Iterations <==

    Orbital Energies [Eh]
    ---------------------

    Doubly Occupied:                                                      

       1A    -15.396230     2A    -11.232624     3A    -11.214995  
       4A    -11.187049     5A    -11.176846     6A    -11.174880  
       7A    -11.173331     8A    -11.172827     9A    -11.170300  
      10A    -11.170287    11A    -11.170012    12A    -11.154597  
      13A    -11.153110    14A    -11.152025    15A     -1.229113  
      16A     -1.178214    17A     -1.140924    18A     -1.062340  
      19A     -1.027764    20A     -1.013278    21A     -1.001918  
      22A     -0.924200    23A     -0.835743    24A     -0.825256  
      25A     -0.816579    26A     -0.786722    27A     -0.718873  
      28A     -0.707302    29A     -0.674196    30A     -0.654395  
      31A     -0.640026    32A     -0.622633    33A     -0.608338  
      34A     -0.593361    35A     -0.586246    36A     -0.580447  
      37A     -0.572970    38A     -0.554710    39A     -0.533244  
      40A     -0.524911    41A     -0.503956    42A     -0.498622  
      43A     -0.475244    44A     -0.465942    45A     -0.425073  
      46A     -0.355973    47A     -0.346752    48A     -0.342074  
      49A     -0.287010  

    Virtual:                                                              

      50A      0.181226    51A      0.198954    52A      0.199960  
      53A      0.215708    54A      0.428184    55A      0.453087  
      56A      0.513592    57A      0.554166    58A      0.574243  
      59A      0.589581    60A      0.633783    61A      0.642703  
      62A      0.657558    63A      0.675523    64A      0.688803  
      65A      0.695262    66A      0.715509    67A      0.719372  
      68A      0.723056    69A      0.739768    70A      0.758296  
      71A      0.792029    72A      0.880083    73A      0.886932  
      74A      0.889985    75A      0.906712    76A      0.913879  
      77A      0.919254    78A      0.933392    79A      0.954635  
      80A      1.093707    81A      1.100312    82A      1.155673  
      83A      1.159482  

    Final Occupation by Irrep:
              A 
    DOCC [    49 ]

  @DF-RHF Final Energy:  -550.48016500891731

   => Energetics <=

    Nuclear Repulsion Energy =            809.4191860183362905
    One-Electron Energy =               -2350.1718232709190488
    Two-Electron Energy =                 990.2724722436653337
    Total Energy =                       -550.4801650089173108

Computation Completed


Properties will be evaluated at  -0.000000,   0.000000,  -0.000000 [a0]

Properties computed using the HF density matrix

  Nuclear Dipole Moment: [e a0]
     X:     0.7390      Y:     0.0758      Z:    -0.1901

  Electronic Dipole Moment: [e a0]
     X:    -0.2561      Y:     0.2686      Z:     0.3498

  Dipole Moment: [e a0]
     X:     0.4829      Y:     0.3445      Z:     0.1597     Total:     0.6143

  Dipole Moment: [D]
     X:     1.2273      Y:     0.8755      Z:     0.4058     Total:     1.5613


*** tstop() called on node44.bme.utexas.edu at Tue Nov  9 09:41:57 2021
Module time:
	user time   =      24.66 seconds =       0.41 minutes
	system time =       1.35 seconds =       0.02 minutes
	total time  =          4 seconds =       0.07 minutes
Total time:
	user time   =      24.66 seconds =       0.41 minutes
	system time =       1.35 seconds =       0.02 minutes
	total time  =          4 seconds =       0.07 minutes
  ==> One Electron Grid Properties (v2.0) <==

  ==> CubicScalarGrid <==

    Filepath     = .
    Total Points =          1015858
    XYZ Blocking =               10
    X Points     =              107
    Y Points     =               94
    Z Points     =              101
    X Spacing    =        2.000E-01
    Y Spacing    =        2.000E-01
    Z Spacing    =        2.000E-01
    X Minimum    =       -1.236E+01
    Y Minimum    =       -9.348E+00
    Z Minimum    =       -1.166E+01
    X Maximum    =        8.842E+00
    Y Maximum    =        9.252E+00
    Z Maximum    =        8.344E+00

  Basis Set: MINIX
    Blend: MINIX
    Number of shells: 55
    Number of basis function: 83
    Number of Cartesian functions: 83
    Spherical Harmonics?: true
    Max angular momentum: 1



Properties will be evaluated at  -0.000000,   0.000000,  -0.000000 [a0]
OEProp: No title given, name of density matrix used for the following properties is 'SCF density'
  Mulliken Charges: (a.u.)
   Center  Symbol    Alpha    Beta     Spin     Total
       1     C     3.08746  3.08746  0.00000 -0.17491
       2     C     2.94354  2.94354  0.00000  0.11292
       3     N     3.69628  3.69628  0.00000 -0.39257
       4     H     0.38032  0.38032  0.00000  0.23936
       5     C     3.07168  3.07168  0.00000 -0.14336
       6     C     3.08337  3.08337  0.00000 -0.16674
       7     C     3.05794  3.05794  0.00000 -0.11587
       8     C     3.06139  3.06139  0.00000 -0.12278
       9     C     3.08953  3.08953  0.00000 -0.17905
      10     H     0.43131  0.43131  0.00000  0.13738
      11     H     0.43569  0.43569  0.00000  0.12862
      12     H     0.43172  0.43172  0.00000  0.13657
      13     H     0.43180  0.43180  0.00000  0.13640
      14     C     3.00871  3.00871  0.00000 -0.01742
      15     C     3.07025  3.07025  0.00000 -0.14049
      16     C     3.06438  3.06438  0.00000 -0.12877
      17     C     3.06872  3.06872  0.00000 -0.13744
      18     C     3.07076  3.07076  0.00000 -0.14152
      19     C     3.07135  3.07135  0.00000 -0.14270
      20     H     0.43350  0.43350  0.00000  0.13299
      21     H     0.43203  0.43203  0.00000  0.13594
      22     H     0.42951  0.42951  0.00000  0.14099
      23     H     0.43145  0.43145  0.00000  0.13711
      24     H     0.42882  0.42882  0.00000  0.14237
      25     H     0.43052  0.43052  0.00000  0.13897
      26     H     0.42630  0.42630  0.00000  0.14740
      27     H     0.43169  0.43169  0.00000  0.13662

   Total alpha = 49.00000, Total beta = 49.00000, Total charge =  0.00000



  Wiberg Bond Indices using Orthogonal Lowdin Orbitals:

  Irrep: 1 Size: 27 x 27

                 1                   2                   3                   4                   5

    1     0.00000000000000     1.39529465428734     0.04527914783375     0.00601102279727     0.00181717146720
    2     1.39529465428734     0.00000000000000     1.10283937404926     0.00057026523348     0.00192910574395
    3     0.04527914783375     1.10283937404926     0.00000000000000     0.95452197120127     0.99103782477251
    4     0.00601102279727     0.00057026523348     0.95452197120127     0.00000000000000     0.00039096984858
    5     0.00181717146720     0.00192910574395     0.99103782477251     0.00039096984858     0.00000000000000
    6     0.00610450552223     1.34483437979593     0.03701228770994     0.00171107075552     0.00650700927557
    7     1.43360636169450     0.00505279824287     0.00871766076265     0.00058639446653     0.00014254418547
    8     0.10016984673481     0.00386667049233     0.00820754249409     0.00004432832358     0.00084818261419
    9     0.00658995951720     0.09866802175682     0.02286384813201     0.00004754964528     0.00009841628465
   10     0.96277247409391     0.00069502796892     0.00408628300577     0.00015209348063     0.00074773953025
   11     0.00597077861292     0.00053161066049     0.00332592365140     0.00068436932209     0.00021401832250
   12     0.00082998327443     0.00699841675665     0.00043578432244     0.00024142814508     0.00001952250259
   13     0.00032079623667     0.00767828008332     0.00034625464885     0.00002447287694     0.00023284894079
   14     0.00165208700212     0.00115870772196     0.01438287295349     0.00114460138555     1.00738758070107
   15     0.00050884341139     0.00036207670107     0.01160757113265     0.00029329148990     0.00383725713876
   16     0.00015515766633     0.00033818359807     0.00673904603633     0.00025438667754     0.00349559423956
   17     0.00028898942895     0.00002333626257     0.00045662655763     0.00005838463283     0.00681550390611
   18     0.00012487896548     0.00001590104361     0.00063384372845     0.00000807853520     0.00654384478513
   19     0.00010810492583     0.00020466713798     0.00378595857366     0.00009918623670     0.00059130218137
   20     0.00010755889291     0.00000362748244     0.00017671008225     0.00002490793934     0.00324320393621
   21     0.00001149381371     0.00000095574900     0.00029696435954     0.00001368633484     0.00268059595253
   22     0.00000951326691     0.00000232435412     0.00011805965410     0.00000670268844     0.00035117363338
   23     0.00000452317603     0.00000354414443     0.00003929594758     0.00000001732952     0.00038333702227
   24     0.00000193319150     0.00000039770924     0.00000415721252     0.00000088790783     0.00012632893859
   25     0.00168209019830     0.00119905247908     0.00872920039293     0.00215644721292     0.96431844786626
   26     0.00032943476027     0.00498050820723     0.00119200579079     0.00182686177467     0.96019059901607
   27     0.00625754502897     0.00015667081751     0.00015592036737     0.00000406682499     0.00001509375528

                 6                   7                   8                   9                  10

    1     0.00610450552223     1.43360636169450     0.10016984673481     0.00658995951720     0.96277247409391
    2     1.34483437979593     0.00505279824287     0.00386667049233     0.09866802175682     0.00069502796892
    3     0.03701228770994     0.00871766076265     0.00820754249409     0.02286384813201     0.00408628300577
    4     0.00171107075552     0.00058639446653     0.00004432832358     0.00004754964528     0.00015209348063
    5     0.00650700927557     0.00014254418547     0.00084818261419     0.00009841628465     0.00074773953025
    6     0.00000000000000     0.11454965999004     1.47375940730563     0.00705032911632     0.00787344743931
    7     0.11454965999004     0.00000000000000     0.00432297352316     1.43912148422407     0.00103972252287
    8     1.47375940730563     0.00432297352316     0.00000000000000     1.41635876370336     0.00031532585060
    9     0.00705032911632     1.43912148422407     1.41635876370336     0.00000000000000     0.00748152497413
   10     0.00787344743931     0.00103972252287     0.00031532585060     0.00748152497413     0.00000000000000
   11     0.96890939870098     0.00039770096612     0.00121203432435     0.00718981491220     0.00072487776041
   12     0.00041193558247     0.96774410636850     0.00708949884379     0.00086793161823     0.00424076074391
   13     0.00100890847011     0.00811411686475     0.96570792974354     0.00091802376481     0.00011647138066
   14     0.00089195628176     0.00004142874978     0.00007923422524     0.00065570438065     0.00025185047963
   15     0.00017063584601     0.00007954537622     0.00007596549525     0.00005835855938     0.00041832491474
   16     0.00012187228138     0.00007288482329     0.00006944290649     0.00001968821729     0.00011525515190
   17     0.00002701798079     0.00001797356652     0.00000315495623     0.00003074159997     0.00001188833467
   18     0.00001945620057     0.00001206619148     0.00000261301840     0.00001525529071     0.00000362190930
   19     0.00006758533249     0.00004824051337     0.00004921123234     0.00001154818166     0.00001043344100
   20     0.00001083671390     0.00000132273196     0.00000017462971     0.00000970383752     0.00019627315610
   21     0.00000668093597     0.00000009357319     0.00000007419873     0.00000460159261     0.00000010830138
   22     0.00000718999569     0.00000037428115     0.00000013277662     0.00000547439971     0.00000007555888
   23     0.00000292746077     0.00000001079731     0.00000039338761     0.00000246541528     0.00000000528154
   24     0.00000023180466     0.00000005698454     0.00000001950197     0.00000012374860     0.00000030475171
   25     0.00069728983589     0.00001362982369     0.00003658969355     0.00062252295581     0.00053236984392
   26     0.00020278329186     0.00000374313007     0.00008526975962     0.00003883909977     0.00000174102427
   27     0.00674402834302     0.00114199716550     0.00126931812584     0.97034333355124     0.00029413883713

                11                  12                  13                  14                  15

    1     0.00597077861292     0.00082998327443     0.00032079623667     0.00165208700212     0.00050884341139
    2     0.00053161066049     0.00699841675665     0.00767828008332     0.00115870772196     0.00036207670107
    3     0.00332592365140     0.00043578432244     0.00034625464885     0.01438287295349     0.01160757113265
    4     0.00068436932209     0.00024142814508     0.00002447287694     0.00114460138555     0.00029329148990
    5     0.00021401832250     0.00001952250259     0.00023284894079     1.00738758070107     0.00383725713876
    6     0.96890939870098     0.00041193558247     0.00100890847011     0.00089195628176     0.00017063584601
    7     0.00039770096612     0.96774410636850     0.00811411686475     0.00004142874978     0.00007954537622
    8     0.00121203432435     0.00708949884379     0.96570792974354     0.00007923422524     0.00007596549525
    9     0.00718981491220     0.00086793161823     0.00091802376481     0.00065570438065     0.00005835855938
   10     0.00072487776041     0.00424076074391     0.00011647138066     0.00025185047963     0.00041832491474
   11     0.00000000000000     0.00005202718817     0.00408904995034     0.00000120785338     0.00001121774983
   12     0.00005202718817     0.00000000000000     0.00064089678280     0.00000420354459     0.00000252526314
   13     0.00408904995034     0.00064089678280     0.00000000000000     0.00000107015515     0.00000593672087
   14     0.00000120785338     0.00000420354459     0.00000107015515     0.00000000000000     1.44378491231207
   15     0.00001121774983     0.00000252526314     0.00000593672087     1.44378491231207     0.00000000000000
   16     0.00000861819306     0.00000066846800     0.00000711780795     1.37435622940309     0.00381824449100
   17     0.00000102975881     0.00000334596300     0.00000026077803     0.00377313705509     1.41739503620981
   18     0.00000052164868     0.00000235686140     0.00000006661024     0.00396671787070     0.10479143385536
   19     0.00000456158065     0.00000059550242     0.00000445347239     0.11505895405168     0.00398741351160
   20     0.00000007180644     0.00000047118647     0.00000000626827     0.00087523879506     0.96606802485225
   21     0.00000000782870     0.00000000394893     0.00000001111595     0.00067259286674     0.00649270402590
   22     0.00000000000069     0.00000005717304     0.00000002804267     0.00715862821064     0.00088346305015
   23     0.00000000182742     0.00000000477365     0.00000001360152     0.00830986049698     0.00034829814640
   24     0.00000000111432     0.00000001345724     0.00000000372809     0.00019837625187     0.00733570544190
   25     0.00000102825896     0.00000446739054     0.00000231603044     0.00079926205143     0.00237225567569
   26     0.00002487225645     0.00000616956941     0.00002287185256     0.00249999690447     0.00980892191829
   27     0.00031569173157     0.00310033034096     0.00337800688504     0.00000035300624     0.00000235862925

                16                  17                  18                  19                  20

    1     0.00015515766633     0.00028898942895     0.00012487896548     0.00010810492583     0.00010755889291
    2     0.00033818359807     0.00002333626257     0.00001590104361     0.00020466713798     0.00000362748244
    3     0.00673904603633     0.00045662655763     0.00063384372845     0.00378595857366     0.00017671008225
    4     0.00025438667754     0.00005838463283     0.00000807853520     0.00009918623670     0.00002490793934
    5     0.00349559423956     0.00681550390611     0.00654384478513     0.00059130218137     0.00324320393621
    6     0.00012187228138     0.00002701798079     0.00001945620057     0.00006758533249     0.00001083671390
    7     0.00007288482329     0.00001797356652     0.00001206619148     0.00004824051337     0.00000132273196
    8     0.00006944290649     0.00000315495623     0.00000261301840     0.00004921123234     0.00000017462971
    9     0.00001968821729     0.00003074159997     0.00001525529071     0.00001154818166     0.00000970383752
   10     0.00011525515190     0.00001188833467     0.00000362190930     0.00001043344100     0.00019627315610
   11     0.00000861819306     0.00000102975881     0.00000052164868     0.00000456158065     0.00000007180644
   12     0.00000066846800     0.00000334596300     0.00000235686140     0.00000059550242     0.00000047118647
   13     0.00000711780795     0.00000026077803     0.00000006661024     0.00000445347239     0.00000000626827
   14     1.37435622940309     0.00377313705509     0.00396671787070     0.11505895405168     0.00087523879506
   15     0.00381824449100     1.41739503620981     0.10479143385536     0.00398741351160     0.96606802485225
   16     0.00000000000000     0.11734302291917     1.47597845240243     0.00423204365735     0.00808473151508
   17     0.11734302291917     0.00000000000000     0.00441860296793     1.45580065641948     0.00107057030180
   18     1.47597845240243     0.00441860296793     0.00000000000000     1.41143288313328     0.00034908699609
   19     0.00423204365735     1.45580065641948     1.41143288313328     0.00000000000000     0.00742949317328
   20     0.00808473151508     0.00107057030180     0.00034908699609     0.00742949317328     0.00000000000000
   21     0.96780897694470     0.00027921451446     0.00120400463446     0.00764407117969     0.00057590821788
   22     0.00027835128629     0.96663141035965     0.00732805370603     0.00102748188041     0.00399264207116
   23     0.00121397467317     0.00788586838378     0.96411475634334     0.00110767082826     0.00010754118432
   24     0.00726963552217     0.00093205060414     0.00097717302675     0.96649786731191     0.00044678329923
   25     0.00715319923386     0.00008580200063     0.00045421797655     0.00005003429667     0.00048116963157
   26     0.00535274938185     0.00008208735164     0.00008785238707     0.00325175650937     0.00001274143514
   27     0.00000300988969     0.00000108855037     0.00000053944745     0.00000204138266     0.00000005219730

                21                  22                  23                  24                  25

    1     0.00001149381371     0.00000951326691     0.00000452317603     0.00000193319150     0.00168209019830
    2     0.00000095574900     0.00000232435412     0.00000354414443     0.00000039770924     0.00119905247908
    3     0.00029696435954     0.00011805965410     0.00003929594758     0.00000415721252     0.00872920039293
    4     0.00001368633484     0.00000670268844     0.00000001732952     0.00000088790783     0.00215644721292
    5     0.00268059595253     0.00035117363338     0.00038333702227     0.00012632893859     0.96431844786626
    6     0.00000668093597     0.00000718999569     0.00000292746077     0.00000023180466     0.00069728983589
    7     0.00000009357319     0.00000037428115     0.00000001079731     0.00000005698454     0.00001362982369
    8     0.00000007419873     0.00000013277662     0.00000039338761     0.00000001950197     0.00003658969355
    9     0.00000460159261     0.00000547439971     0.00000246541528     0.00000012374860     0.00062252295581
   10     0.00000010830138     0.00000007555888     0.00000000528154     0.00000030475171     0.00053236984392
   11     0.00000000782870     0.00000000000069     0.00000000182742     0.00000000111432     0.00000102825896
   12     0.00000000394893     0.00000005717304     0.00000000477365     0.00000001345724     0.00000446739054
   13     0.00000001111595     0.00000002804267     0.00000001360152     0.00000000372809     0.00000231603044
   14     0.00067259286674     0.00715862821064     0.00830986049698     0.00019837625187     0.00079926205143
   15     0.00649270402590     0.00088346305015     0.00034829814640     0.00733570544190     0.00237225567569
   16     0.96780897694470     0.00027835128629     0.00121397467317     0.00726963552217     0.00715319923386
   17     0.00027921451446     0.96663141035965     0.00788586838378     0.00093205060414     0.00008580200063
   18     0.00120400463446     0.00732805370603     0.96411475634334     0.00097717302675     0.00045421797655
   19     0.00764407117969     0.00102748188041     0.00110767082826     0.96649786731191     0.00005003429667
   20     0.00057590821788     0.00399264207116     0.00010754118432     0.00044678329923     0.00048116963157
   21     0.00000000000000     0.00011873211255     0.00431367574749     0.00035396921548     0.00029813290808
   22     0.00011873211255     0.00000000000000     0.00052056039924     0.00359858818043     0.00003731417643
   23     0.00431367574749     0.00052056039924     0.00000000000000     0.00411796662758     0.00022084958806
   24     0.00035396921548     0.00359858818043     0.00411796662758     0.00000000000000     0.00000266085970
   25     0.00029813290808     0.00003731417643     0.00022084958806     0.00000266085970     0.00000000000000
   26     0.00002662001099     0.00005157830036     0.00001004037136     0.00000067961592     0.00112931941662
   27     0.00000000000777     0.00000000714891     0.00000000037326     0.00000000480325     0.00000013731073

                26                  27

    1     0.00032943476027     0.00625754502897
    2     0.00498050820723     0.00015667081751
    3     0.00119200579079     0.00015592036737
    4     0.00182686177467     0.00000406682499
    5     0.96019059901607     0.00001509375528
    6     0.00020278329186     0.00674402834302
    7     0.00000374313007     0.00114199716550
    8     0.00008526975962     0.00126931812584
    9     0.00003883909977     0.97034333355124
   10     0.00000174102427     0.00029413883713
   11     0.00002487225645     0.00031569173157
   12     0.00000616956941     0.00310033034096
   13     0.00002287185256     0.00337800688504
   14     0.00249999690447     0.00000035300624
   15     0.00980892191829     0.00000235862925
   16     0.00535274938185     0.00000300988969
   17     0.00008208735164     0.00000108855037
   18     0.00008785238707     0.00000053944745
   19     0.00325175650937     0.00000204138266
   20     0.00001274143514     0.00000005219730
   21     0.00002662001099     0.00000000000777
   22     0.00005157830036     0.00000000714891
   23     0.00001004037136     0.00000000037326
   24     0.00000067961592     0.00000000480325
   25     0.00112931941662     0.00000013731073
   26     0.00000000000000     0.00000109171165
   27     0.00000109171165     0.00000000000000



  Atomic Valences: 

 #  #
 Irrep: 1
      1:  3.9760089
      2:  3.9774086
      3:  3.2269921
      4:  0.9708774
      5:  3.9639652
      6:  3.9787028
      7:  3.9848289
      8:  3.9835741
      9:  3.9790740
     10:  0.9920821
     11:  0.9936704
     12:  0.9926975
     13:  0.9926202
     14:  3.9891068
     15:  3.9845203
     16:  3.9842905
     17:  3.9834368
     18:  3.9824863
     19:  3.9825082
     20:  0.9932689
     21:  0.9928039
     22:  0.9921279
     23:  0.9927076
     24:  0.9918659
     25:  0.9930798
     26:  0.9912211
     27:  0.9931868


    Psi4 stopped on: Tuesday, 09 November 2021 09:42AM
    Psi4 wall time for execution: 0:00:36.65

*** Psi4 exiting successfully. Buy a developer a beer!
