Generated by Psi4
        SP                        DF-MP2                      6-311G**
Number of atoms                            I                4
Charge                                     I                0
Multiplicity                               I                1
Number of electrons                        I               10
Number of alpha electrons                  I                5
Number of beta electrons                   I                5
Number of basis functions                  I               36
Number of independent functions            I               36
Atomic numbers                             I   N=           4
           7           1           1           1
Nuclear charges                            R   N=           4
  7.00000000e+00  1.00000000e+00  1.00000000e+00  1.00000000e+00
Current cartesian coordinates              R   N=          12
 -3.05845276e-04  7.04078963e-04  1.29684518e-01  1.73628348e+00 -3.85287649e-01
 -5.94642856e-01 -1.19692124e+00 -1.31440285e+00 -5.96923062e-01 -5.35112727e-01
  1.68990778e+00 -6.10316205e-01
Integer atomic weights                     I   N=           4
          14           1           1           1
Real atomic weights                        R   N=           4
  1.40030740e+01  1.00782503e+00  1.00782503e+00  1.00782503e+00
Number of primitive shells                 I               35
Number of contracted shells                I               20
Pure/Cartesian d shells                    I                0
Pure/Cartesian f shells                    I                0
Highest angular momentum                   I                2
Largest degree of contraction              I                6
Shell types                                I   N=          20
           0           0           1           0           1           0
           1          -2           0           0           0           1
           0           0           0           1           0           0
           0           1
Number of primitives per shell             I   N=          20
           6           3           3           1           1           1
           1           1           3           1           1           1
           3           1           1           1           3           1
           1           1
Shell to atom map                          I   N=          20
           1           1           1           1           1           1
           1           1           2           2           2           2
           3           3           3           3           4           4
           4           4
Primitive exponents                        R   N=          35
  6.29348000e+03  9.49044000e+02  2.18776000e+02  6.36916000e+01  1.88282000e+01
  2.72023000e+00  3.06331000e+01  7.02614000e+00  2.11205000e+00  3.06331000e+01
  7.02614000e+00  2.11205000e+00  6.84009000e-01  6.84009000e-01  2.00878000e-01
  2.00878000e-01  9.13000000e-01  3.38650000e+01  5.09479000e+00  1.15879000e+00
  3.25840000e-01  1.02741000e-01  7.50000000e-01  3.38650000e+01  5.09479000e+00
  1.15879000e+00  3.25840000e-01  1.02741000e-01  7.50000000e-01  3.38650000e+01
  5.09479000e+00  1.15879000e+00  3.25840000e-01  1.02741000e-01  7.50000000e-01
Contraction coefficients                   R   N=          35
  1.96978815e-03  1.49612859e-02  7.35005308e-02  2.48936766e-01  6.02459433e-01
  2.56201759e-01  1.11906080e-01  9.21666655e-01 -2.56919183e-03  3.83119186e-02
  2.37403116e-01  8.17592398e-01  1.00000000e+00  1.00000000e+00  1.00000000e+00
  1.00000000e+00  1.00000000e+00  2.54938145e-02  1.90373109e-01  8.52161486e-01
  1.00000000e+00  1.00000000e+00  1.00000000e+00  2.54938145e-02  1.90373109e-01
  8.52161486e-01  1.00000000e+00  1.00000000e+00  1.00000000e+00  2.54938145e-02
  1.90373109e-01  8.52161486e-01  1.00000000e+00  1.00000000e+00  1.00000000e+00
Coordinates of each shell                  R   N=          60
 -3.05845276e-04  7.04078963e-04  1.29684518e-01 -3.05845276e-04  7.04078963e-04
  1.29684518e-01 -3.05845276e-04  7.04078963e-04  1.29684518e-01 -3.05845276e-04
  7.04078963e-04  1.29684518e-01 -3.05845276e-04  7.04078963e-04  1.29684518e-01
 -3.05845276e-04  7.04078963e-04  1.29684518e-01 -3.05845276e-04  7.04078963e-04
  1.29684518e-01 -3.05845276e-04  7.04078963e-04  1.29684518e-01  1.73628348e+00
 -3.85287649e-01 -5.94642856e-01  1.73628348e+00 -3.85287649e-01 -5.94642856e-01
  1.73628348e+00 -3.85287649e-01 -5.94642856e-01  1.73628348e+00 -3.85287649e-01
 -5.94642856e-01 -1.19692124e+00 -1.31440285e+00 -5.96923062e-01 -1.19692124e+00
 -1.31440285e+00 -5.96923062e-01 -1.19692124e+00 -1.31440285e+00 -5.96923062e-01
 -1.19692124e+00 -1.31440285e+00 -5.96923062e-01 -5.35112727e-01  1.68990778e+00
 -6.10316205e-01 -5.35112727e-01  1.68990778e+00 -6.10316205e-01 -5.35112727e-01
  1.68990778e+00 -6.10316205e-01 -5.35112727e-01  1.68990778e+00 -6.10316205e-01
Total Energy                               R     -5.640873037591843e+01
Alpha Orbital Energies                     R   N=          36
 -1.55302075e+01 -1.13399677e+00 -6.20074413e-01 -6.19955569e-01 -4.23598272e-01
  1.55779400e-01  2.29658322e-01  2.29674221e-01  5.16788562e-01  5.16888290e-01
  6.64827172e-01  8.19208650e-01  9.54874917e-01  9.54943169e-01  1.11905995e+00
  1.35429099e+00  1.35438419e+00  1.79670640e+00  1.81533140e+00  1.90345921e+00
  1.90354806e+00  2.16865202e+00  2.16884591e+00  2.45233162e+00  2.68174620e+00
  2.68196649e+00  2.86000574e+00  2.98778034e+00  2.98787625e+00  3.13051521e+00
  3.44935445e+00  3.44967292e+00  4.42249170e+00  5.20857888e+00  5.20928188e+00
  3.70321623e+01
Alpha MO coefficients                      R   N=        1296
  5.57651086e-01  4.68274282e-01  4.62009460e-06 -1.00048702e-05 -1.95718774e-03
  4.87695192e-03 -1.94380718e-06  4.31436133e-06  7.61209605e-04 -8.13697686e-04
  4.38699397e-08 -2.71866469e-08 -1.38009494e-05  1.19497554e-04 -4.21131899e-07
  8.25331190e-07 -2.33495412e-07 -1.85188833e-07  2.57898528e-04  2.49602689e-04
  9.48353281e-05 -1.21115095e-04  2.65956818e-05 -2.18741875e-05  2.57911976e-04
  2.49632439e-04  9.48231220e-05  8.37607361e-05  9.14734192e-05 -2.16943955e-05
  2.58074714e-04  2.49063751e-04  9.50873681e-05  3.74580739e-05 -1.18065381e-04
 -2.09631200e-05  1.07239868e-01  1.77403314e-01 -6.66889238e-05  1.43562942e-04
  3.45860812e-02 -4.73231674e-01 -1.11283803e-04  2.41671752e-04  5.56729484e-02
 -3.25476349e-01 -3.86784741e-05  8.26676091e-05  1.85407361e-02  4.08353329e-03
 -2.02743053e-05  4.17598538e-05  5.27812348e-06  5.80562713e-06 -8.98282405e-02
 -9.65966954e-02 -2.29896516e-03  2.22595237e-02 -4.93533991e-03 -6.32417268e-03
 -8.98325764e-02 -9.66013845e-02 -2.29980539e-03 -1.53495368e-02 -1.68487835e-02
 -6.35384379e-03 -8.99062462e-02 -9.66487102e-02 -2.29487620e-03 -6.86780630e-03
  2.16857570e-02 -6.52970619e-03 -1.07800364e-05 -1.85470042e-05  9.18670068e-02
 -1.84167842e-01  1.17579812e-03  5.02397596e-05  1.43458003e-01 -2.87590358e-01
  1.82849259e-03  1.29611337e-04  9.29716455e-02 -1.86378836e-01  1.17992048e-03
 -2.67958376e-04 -1.23480041e-02  2.48531597e-02  1.64796617e-02  8.04798383e-03
  1.05110061e-01  1.58577477e-01  5.79992723e-02 -1.60042529e-02 -9.35166621e-03
  7.47807331e-03  6.01282554e-02  9.07117285e-02  3.31840607e-02  1.64024209e-02
 -4.44487125e-03  4.33440048e-03 -1.65228245e-01 -2.49236958e-01 -9.11346062e-02
 -4.02168144e-03  2.10513421e-02 -1.18500630e-02 -2.87117344e-06 -4.82146515e-06
  1.84148424e-01  9.18676167e-02 -2.70229856e-05  1.36556349e-05  2.87570791e-01
  1.43461218e-01 -4.24547129e-05  1.68308494e-05  1.86425048e-01  9.30016130e-02
 -2.91663727e-05  6.64995670e-06 -2.46425243e-02 -1.23429492e-02  8.28162907e-03
 -1.66698032e-02  1.30083185e-01  1.96268588e-01  7.18139122e-02 -1.42535777e-02
  1.36178070e-02  9.13888137e-03 -1.56060571e-01 -2.35472066e-01 -8.61564128e-02
 -9.28212966e-03 -1.88847864e-02 -1.10131887e-02  2.59674638e-02  3.91675807e-02
  1.43344645e-02  1.62839708e-02  1.65390240e-03  1.87470207e-03  3.47408711e-02
  5.89394422e-02  6.02734493e-04 -1.27199720e-03 -2.51168409e-01 -1.77560777e-01
  9.03563869e-04 -1.90677045e-03 -3.76108322e-01 -2.32340458e-01  1.09647182e-03
 -2.32562062e-03 -4.59490893e-01  1.59404919e-02 -6.40933650e-05  1.37968089e-04
  7.51912357e-07 -1.50007351e-06  4.44079223e-02  4.00092792e-02  2.88692550e-02
 -8.54295534e-03  1.79549510e-03 -1.89066278e-02  4.43984262e-02  3.99911184e-02
  2.88586497e-02  5.97687399e-03  6.39524754e-03 -1.88970182e-02  4.43930708e-02
  3.99514735e-02  2.88130933e-02  2.70033561e-03 -8.47662422e-03 -1.88374121e-02
  4.17868979e-02  6.74792270e-02 -1.44736670e-04  3.32846782e-04  5.46548567e-02
 -9.80351152e-02 -2.26892727e-04  5.14229168e-04  9.13121534e-02 -1.29007821e+00
 -6.15304848e-04  1.41516632e-03  2.37766303e-01  1.92447167e-03 -1.11880710e-05
  2.13031937e-05  8.54488049e-06  7.53211635e-06  2.16907560e-02 -1.12960668e-02
  7.02198011e-01 -3.72740874e-03  8.43593680e-04  3.85172359e-03  2.16869337e-02
 -1.13097933e-02  7.02192140e-01  2.55616338e-03  2.83499582e-03  3.85642085e-03
  2.16584854e-02 -1.12586674e-02  7.01844957e-01  1.14517837e-03 -3.62558704e-03
  3.89734684e-03 -2.77636051e-07 -7.87669478e-07  1.28289715e-01  1.56419027e-02
  2.23113092e-04  1.03172028e-05  1.13891164e-01  1.38971513e-02  1.97343526e-04
 -6.07687019e-05  6.98250182e-01  8.51065275e-02  1.21778082e-03 -1.36413028e-05
 -5.18922008e-03 -6.38781786e-04 -3.52586093e-03  3.42420604e-03 -1.96483329e-02
  1.49903015e-01 -1.79714856e+00 -1.38979070e-02  3.44100348e-03  7.41086648e-03
  1.58076433e-02 -1.20587247e-01  1.44575192e+00 -7.25453485e-03 -8.95480068e-03
 -5.97509260e-03  3.82654332e-03 -2.93421871e-02  3.51470131e-01  1.06896301e-04
  2.95843118e-03 -1.47523554e-03  8.16871742e-06  1.18449916e-05  1.56234291e-02
 -1.28265144e-01  6.83958195e-04  1.40236118e-05  1.38534630e-02 -1.13822900e-01
  6.06135870e-04 -4.79284013e-04  8.50722993e-02 -6.98191001e-01  3.71877111e-03
 -4.25977644e-05 -6.19345638e-04  5.13481252e-03 -3.46410118e-03 -3.55490156e-03
 -6.89636012e-03  5.27155938e-02 -6.31725592e-01 -5.11920633e-03  1.72561036e-04
  2.60978711e-03 -1.35584229e-02  1.03485350e-01 -1.24054563e+00  7.20311687e-03
  6.79937485e-03  5.13368275e-03  2.04206223e-02 -1.56298301e-01  1.87287483e+00
 -4.66228950e-03  1.41086447e-02 -7.86430867e-03 -2.52004802e-06 -4.87771256e-06
  6.80760216e-02  3.48994075e-02 -1.40967498e-05  9.25123148e-06  1.14749472e-01
  5.88367258e-02 -2.86349908e-05  2.56043213e-04  1.18950397e+00  6.09957672e-01
 -3.53061058e-04  3.23037299e-06 -9.22585274e-03 -4.71182924e-03 -3.09773193e-03
  6.51776995e-03 -6.28092828e-02 -1.19480591e+00  3.74956175e-01  3.38678245e-02
  3.34189191e-03 -7.20527638e-03  7.63420954e-02  1.45220072e+00 -4.55737062e-01
  3.07660741e-02  2.51401653e-02  8.77827852e-03 -1.35522185e-02 -2.57726052e-01
  8.07904465e-02  1.35082170e-02  1.15934129e-02 -1.60822349e-03 -1.97991573e-05
 -3.24470451e-05  3.48978701e-02 -6.80415141e-02  3.86870355e-04  8.84916787e-05
  5.88667570e-02 -1.14793999e-01  6.88957096e-04 -5.18631634e-04  6.10363658e-01
 -1.19034769e+00  7.47473197e-03 -7.70151466e-05 -4.72028851e-03  9.16861186e-03
 -6.55996845e-03 -3.16530310e-03 -5.19043688e-02 -9.87784559e-01  3.09679388e-01
  2.33528340e-02 -1.82985108e-02 -5.86305769e-03 -2.84622349e-02 -5.41445125e-01
  1.69779596e-01  1.62491324e-03 -2.13175940e-02 -3.19246592e-03  8.02782245e-02
  1.52845929e+00 -4.78486161e-01  1.51424628e-02 -3.86382392e-02  9.55720676e-03
  4.90491657e-02  8.90940982e-02 -4.16037722e-05  1.39021887e-04  1.74959208e-02
 -1.98743158e-01 -3.37877047e-05  1.78288012e-04  2.97262500e-02 -2.07584297e+00
 -1.79018020e-03  4.47687086e-03  1.07870992e+00 -1.92435202e-02  6.48900763e-05
 -1.39140618e-04  2.55993588e-05  1.47950977e-05  4.23747229e-02  1.56720793e+00
 -3.43939792e-01 -3.07394101e-02  6.91095573e-03  3.35179009e-02  4.23791673e-02
  1.56778491e+00 -3.43959483e-01  2.11153398e-02  2.33787500e-02  3.35423375e-02
  4.23815128e-02  1.56888708e+00 -3.43356241e-01  9.42978815e-03 -2.99154274e-02
  3.38476990e-02  6.77554248e-04  8.32441141e-04 -5.72866898e-04  1.23904693e-03
  2.41128814e-01 -7.03073573e-02 -2.01867329e-03  4.33270769e-03  8.42340620e-01
  6.83898711e-01  3.14186029e-03 -6.89885901e-03 -1.29519256e+00 -3.01311523e-02
  1.27023712e-04 -2.60040782e-04  7.04183442e-07 -3.59397903e-06  1.28469338e-02
 -1.11745983e-01 -1.86968789e-01  9.08102652e-02 -1.99538408e-02  1.40019419e-02
  1.28469958e-02 -1.11747227e-01 -1.87000088e-01 -6.27808883e-02 -6.86176830e-02
  1.38827276e-02  1.28366364e-02 -1.11432168e-01 -1.86933445e-01 -2.81220493e-02
  8.87230229e-02  1.32557704e-02  2.27505413e-06  4.35101801e-06  2.50066266e-01
  6.81424133e-02  2.47394853e-04 -3.83283883e-05  7.97564531e-01  2.17358696e-01
  7.69634903e-04  1.66336686e-04 -1.66155852e+00 -4.52738834e-01 -1.67106508e-03
  5.59279892e-05  3.37685671e-02  9.21300100e-03 -3.30362798e-02  4.30496421e-02
 -2.41862481e-02  4.94445961e-03  1.08987065e+00 -1.34570572e-01  5.63658302e-02
  7.12900017e-02  2.30744087e-02 -4.76419372e-03 -1.03976077e+00 -7.01513423e-02
 -1.21304746e-01 -6.81502546e-02  1.10620888e-03 -2.92831113e-04 -5.01695037e-02
  5.09259488e-02  2.30686060e-02 -3.31159243e-03  4.40338274e-06  4.56576612e-06
  6.81473459e-02 -2.50075397e-01  1.44608668e-03  1.35615489e-04  2.17316055e-01
 -7.97559027e-01  4.63369129e-03 -8.29027994e-04 -4.52764734e-01  1.66136074e+00
 -9.18693644e-03  3.20345487e-04  9.35392331e-03 -3.43662529e-02 -4.27532760e-02
 -3.27890523e-02 -1.26765076e-02  3.05471708e-03  5.71403202e-01 -8.40582374e-02
 -3.16118343e-02  3.77024618e-02 -1.46098339e-02  3.38051392e-03  6.58321730e-01
  9.28948342e-02  3.24906369e-02  4.35301206e-02  2.72154474e-02 -4.67477097e-03
 -1.23004726e+00 -5.07955993e-02  1.52952192e-01 -8.19953685e-02  1.02250235e-01
  2.10765486e-01 -7.26135738e-05  1.21426689e-04  3.34578301e-02 -1.68009611e+00
  3.02562190e-04 -7.47845662e-04 -1.84652404e-01  4.28834802e+00  1.33727216e-03
 -3.16658682e-03 -6.61199168e-01 -1.41617500e-02  7.50934048e-05 -1.95625617e-04
 -8.38078264e-05 -6.21151508e-05  1.94164978e-02 -9.25885102e-01 -4.23221455e-01
  2.35647933e-01 -5.26673076e-02 -1.69165085e-01  1.94190168e-02 -9.26123198e-01
 -4.23120603e-01 -1.62093928e-01 -1.78743434e-01 -1.69389492e-01  1.93805778e-02
 -9.26389586e-01 -4.23841857e-01 -7.23862031e-02  2.29032859e-01 -1.71403605e-01
  6.38396927e-06  1.58476600e-05  1.59231863e-02 -1.17034692e-02  1.09969604e-04
 -1.40783519e-04  6.15475207e-02 -4.51929648e-02  5.22154954e-04  6.13578318e-05
  2.76454220e-01 -2.03569055e-01  1.63430704e-03  1.35202689e-03  1.30487539e-01
 -9.48865928e-02  1.61857976e-01 -1.67580418e-03  3.56197739e-02 -2.76543377e-01
  1.84932931e-02  2.30328387e-01  1.61298925e-01  4.05983286e-01 -4.14352629e-03
  3.19988684e-02 -2.21747652e-03 -3.56439413e-01  3.55619523e-01 -4.97317107e-02
 -3.15156180e-02  2.44659996e-01 -1.63386908e-02 -2.32065145e-01 -2.53404833e-01
 -3.58451309e-01  9.43522081e-06  2.07979436e-05  1.17219044e-02  1.59147395e-02
 -4.63331274e-05 -1.60614697e-04  4.52949451e-02  6.14363944e-02 -2.54176193e-04
  4.11615694e-04  2.03298020e-01  2.76525034e-01 -8.97187935e-04 -6.75105516e-04
  9.65763177e-02  1.29733658e-01 -3.50520634e-03 -1.61480802e-01  1.57955039e-02
 -1.22692828e-01  8.22334118e-03 -1.70314152e-02 -4.69118155e-01  1.82546704e-01
 -3.87692521e-02  3.00703626e-01 -2.01668104e-02  1.81227110e-01  1.15529886e-01
 -4.42297025e-01  2.29336155e-02 -1.78276690e-01  1.18385130e-02 -4.27760914e-01
 -4.59895988e-03  2.60658757e-01 -2.62543979e-08 -5.65079251e-08  5.60609774e-06
  3.66797368e-06  2.48245731e-08  4.35837031e-07 -3.14694281e-05 -1.49630400e-04
  7.69067652e-07 -8.98492922e-07  9.44329023e-05  5.96305590e-04 -2.28056944e-06
  5.66311007e-07  2.33346463e-05 -3.25338954e-05 -5.80888089e-05 -5.31999473e-05
 -4.91525177e-05  1.01706199e-04 -5.41635564e-05 -1.33203371e-01 -6.05067039e-01
  2.72820675e-03 -3.25628196e-05  3.02161440e-04  3.86275378e-05 -4.57118956e-01
  4.17522871e-01 -2.91717603e-03  8.15780632e-05 -4.02549409e-04  1.54301070e-05
  5.90222587e-01  1.86782850e-01  1.91693363e-04  3.74761439e-02  8.59720130e-02
  1.48621343e-04 -3.00761698e-04 -6.82529272e-02 -8.04749778e-01  2.04505720e-05
 -5.74700687e-05 -5.95377400e-02  2.25684728e+00  2.58307165e-03 -5.47597718e-03
 -1.11170262e+00 -3.35084292e-01  1.37497133e-03 -2.90355840e-03  5.01959013e-05
 -2.16014374e-05  5.00689022e-02 -9.29590808e-01 -1.46153735e-02  1.52129518e-01
 -3.12465485e-02  5.29212670e-01  5.00051540e-02 -9.29498964e-01 -1.46655655e-02
 -1.07248659e-01 -1.13358800e-01  5.28882007e-01  4.98703666e-02 -9.29836730e-01
 -1.49961210e-02 -4.89192898e-02  1.52764451e-01  5.27650890e-01  1.84160605e-06
  4.80623788e-06  1.63649649e-03 -1.15856759e-04  1.68996946e-05  2.57155105e-05
 -4.43365790e-02  2.89330773e-03 -1.00843105e-04 -7.69808846e-04  1.06988572e+00
 -7.16122385e-02  3.19646565e-03 -4.65200956e-04 -1.04510762e-01  7.68204270e-03
  1.79849379e-01 -1.19227070e-01  3.02133220e-01 -1.05313073e+00  1.51054026e-01
 -3.46094439e-01 -1.50204183e-02 -5.13404566e-01 -1.90725221e-01  6.64957569e-01
 -9.54083873e-02 -4.78834720e-01  1.50940177e-01  3.21428327e-01 -1.11410815e-01
  3.89111810e-01 -5.55580769e-02 -5.53126892e-01 -4.42265467e-02  1.88081038e-01
 -6.74637677e-06 -1.61475136e-05  1.03018108e-04  1.64743451e-03 -1.91892078e-05
  5.40794439e-05 -3.00144752e-03 -4.40877423e-02  2.41164343e-04  1.02339378e-03
  7.10508440e-02  1.07024387e+00 -5.59549789e-03  8.68567758e-04 -6.39101026e-03
 -1.06606425e-01 -1.18163261e-01 -1.79505746e-01 -4.56884056e-02  1.59329311e-01
 -2.27641490e-02 -7.38961626e-02 -5.70794061e-01  8.04829845e-02 -2.38887587e-01
  8.32457909e-01 -1.19455427e-01  8.73919037e-02 -4.38836987e-01  4.07633205e-01
  2.84559986e-01 -9.92932920e-01  1.42037595e-01 -1.05505180e-01 -3.68082048e-01
 -4.81281803e-01  3.26834733e-06  9.36400188e-06  1.33725536e-01  6.61687479e-02
 -1.87186785e-05 -5.25504914e-05  3.32036557e-01  1.64252077e-01  1.24727304e-05
 -3.00333411e-04  1.04335487e-01  5.15691678e-02  8.23165318e-05 -8.34892080e-05
  3.20899194e-01  1.59571438e-01 -1.28222147e-01  2.56408178e-01 -4.48175713e-01
  5.06255275e-01 -4.04500469e-01  1.62639656e-01 -2.55407561e-01 -3.66852751e-01
  5.35493800e-01 -6.04696290e-01  4.83394387e-01  7.94550660e-02  2.72836031e-01
  4.39236679e-01 -8.75234945e-02  9.91013477e-02 -7.89600754e-02 -3.32924999e-01
 -6.25861785e-02 -7.23039932e-02 -1.68220808e-06  6.14453234e-07  6.61953879e-02
 -1.33732330e-01  7.60517176e-04 -2.63373000e-04  1.64153312e-01 -3.31546038e-01
  1.88390471e-03  1.87742975e-03  5.13201538e-02 -1.03564148e-01 -6.82820206e-05
  3.31335660e-03  1.59719927e-01 -3.24268976e-01 -2.54198074e-01 -1.25319778e-01
 -3.59943257e-01  4.06266613e-01 -3.24787666e-01  2.24387877e-01  2.20715003e-01
 -2.96067894e-01 -2.08441213e-01  2.35109414e-01 -1.88109460e-01 -3.00130222e-01
  1.39894631e-01 -1.72390212e-01  5.68379290e-01 -6.43562544e-01  5.12683407e-01
  3.06948062e-02 -2.69169054e-01  4.68229071e-01  2.27314056e-02  3.07673907e-02
 -3.92725522e-04  9.00144406e-04  1.75640074e-01 -9.57915918e-03 -2.32632191e-04
  9.12999534e-04 -1.12551902e-02  5.71282937e-01 -2.20708138e-04  4.47461475e-04
 -7.08050954e-02 -3.97096893e-01  1.88023403e-03 -3.86228090e-03 -3.62091034e-04
 -3.46292680e-04  7.65106888e-01 -1.10278242e+00  2.95570806e-01 -1.28601688e-01
  2.74116807e-02 -1.98880909e-01  7.65136506e-01 -1.10286932e+00  2.95561430e-01
  8.97281388e-02  9.65484477e-02 -1.98599732e-01  7.65891339e-01 -1.10606553e+00
  2.95887955e-01  3.99554032e-02 -1.25387351e-01 -1.98500966e-01 -4.22604701e-05
 -1.24131457e-04  7.23029929e-03 -1.23842041e-02 -1.52768858e-05  1.37040511e-03
 -6.31580894e-01  1.08088793e+00 -7.42714736e-03  8.31634864e-04 -2.87040179e-01
  4.90894667e-01 -3.42940703e-03  2.87686393e-03  1.34299621e-01 -2.31792387e-01
 -3.30154244e-01 -1.35484556e-01 -5.78585524e-01  1.63970726e+00 -3.61027529e-01
 -8.19138728e-01  1.65243956e-01  3.64252332e-01 -2.53311549e-01  7.17527567e-01
 -1.58068741e-01  2.61595745e-01  2.55816133e-01  1.60013267e-01  8.30022448e-01
 -2.35740529e+00  5.18489598e-01 -3.56743052e-01  1.14365672e+00 -5.34358068e-01
 -3.83866582e-06 -9.79677839e-06  1.23657384e-02  7.23730721e-03  3.46327472e-06
 -5.08385265e-05 -1.07956128e+00 -6.31314032e-01  5.48154977e-04  7.07098003e-04
 -4.90646841e-01 -2.86723440e-01  1.28228043e-06 -1.71759469e-04  2.27722196e-01
  1.34312285e-01 -1.37798340e-01  3.31932634e-01 -6.25941707e-01  1.77416746e+00
 -3.90751119e-01 -8.79539990e-01  2.11079016e-01  3.93858510e-01  8.14228290e-01
 -2.30786716e+00  5.08151011e-01 -7.86085271e-01 -8.74085800e-01 -5.13614889e-01
 -1.87368863e-01  5.31881125e-01 -1.17145070e-01  1.02357672e-01 -2.51175445e-01
  1.20701152e-01  3.19725613e-02  9.05278343e-02 -2.27953767e-04  4.75416400e-04
  8.23295399e-02 -5.98676214e-01 -1.25898151e-03  1.90394411e-03  4.38804277e-01
 -2.54709202e+00 -2.71811599e-03  6.11249729e-03  1.12297907e+00 -5.81042892e-01
  2.20836797e-03 -5.87074850e-03  2.98565153e-04  8.85173748e-04 -5.00415995e-01
  1.75901053e+00 -1.19942179e-01 -7.32318231e-01  1.59825912e-01 -2.09164556e-01
 -5.00016680e-01  1.75799154e+00 -1.19657429e-01  5.06525721e-01  5.52145540e-01
 -2.08748134e-01 -4.99633968e-01  1.75828898e+00 -1.19582812e-01  2.26928070e-01
 -7.16179158e-01 -2.02433252e-01  7.43138124e-05  1.91703165e-04  4.85974046e-03
 -6.86426096e-02  6.09758926e-04 -1.23382757e-03  4.70081100e-03 -6.74488910e-02
  1.15752661e-03 -4.48346640e-03  3.65573010e-02 -5.12584783e-01  4.34067242e-03
 -8.08376167e-03 -6.12617022e-02  8.75791033e-01 -4.82436755e-01 -5.45301499e-01
 -3.90468975e-03 -8.59579708e-02 -2.76490273e-02  1.86030691e-01  5.31800301e-01
  7.19334727e-02 -8.72811274e-03 -2.12481822e-01 -6.68742523e-02 -4.24458283e-01
  1.64030477e-01  1.77475992e-01  1.12279377e-02  3.06492360e-01  9.43419394e-02
  2.01864623e-01 -1.86089476e-01 -2.52173873e-01 -2.10180689e-05 -5.63776795e-05
  6.88046762e-02  4.98302910e-03  1.23695074e-04  3.81005368e-04  6.74744060e-02
  4.95918177e-03 -9.31059008e-05  1.21431179e-03  5.12936173e-01  3.68809094e-02
  6.28713041e-04 -3.14077017e-03 -8.83300145e-01 -6.47191812e-02 -5.40649252e-01
  4.73574091e-01 -1.14185455e-02 -3.00357335e-01 -9.31554655e-02  1.91007297e-01
 -2.10702932e-01  2.51227615e-01  9.08396372e-03  2.25956627e-01  7.06262166e-02
 -1.77284610e-01  3.99363724e-01 -1.91455549e-01  3.11819413e-03  7.17740534e-02
  2.27237083e-02 -5.23833966e-01 -2.25136652e-01 -6.09992253e-02  7.29889684e-02
  1.69308793e-01 -5.94710549e-04  1.55882415e-03  2.43036058e-01 -9.65777861e-01
 -9.74333949e-04  2.07043062e-03  4.94167640e-01 -3.16410742e+00 -1.79920554e-03
  4.92296593e-03  8.05260296e-01  9.07284045e-01 -3.81512386e-03  6.90699910e-03
 -2.97622937e-04  1.26701193e-04  6.38988082e-02  1.53910654e+00  7.36856478e-02
 -8.76386248e-01  1.94850854e-01  4.38649237e-01  6.40982452e-02  1.53921532e+00
  7.38830692e-02  6.03718062e-01  6.63896104e-01  4.39705051e-01  6.40706401e-02
  1.53901370e+00  7.35347297e-02  2.69467370e-01 -8.51825900e-01  4.46822084e-01
  2.46441378e-06  7.08081095e-06  5.90092104e-01  1.05950478e-01  8.81110316e-04
 -7.66871589e-05  3.26477781e-02  5.82400751e-03  7.48311834e-05 -9.58833591e-05
  7.99126994e-01  1.43465805e-01  1.22521689e-03 -1.77342758e-03 -6.80808787e-01
 -1.21511015e-01  6.31256223e-01 -6.88473461e-01 -5.88875746e-01 -3.38309061e-01
 -4.06378465e-01  6.34527260e-01 -1.11278724e-01 -2.48408470e-01  5.06709327e-01
  2.91256028e-01  3.49673557e-01  4.06423006e-01  3.78567288e-01  2.14605305e-01
  8.21977400e-02  4.72238577e-02  5.67063678e-02  9.84353715e-02 -6.26528028e-02
  3.54029082e-02  6.71322305e-05  1.53645757e-04  1.06060944e-01 -5.90386395e-01
  3.56991417e-03 -1.14101156e-03  5.91559116e-03 -3.27190313e-02  4.78090371e-04
 -1.65520852e-03  1.43600401e-01 -7.99254349e-01  4.72838116e-03 -5.95767650e-03
 -1.24839061e-01  6.90847724e-01  6.81706826e-01  6.26737519e-01 -2.44908124e-01
 -1.40251643e-01 -1.69149275e-01  2.46075177e-01 -1.25938888e-01 -1.02661561e-01
 -3.87130985e-01 -2.22024147e-01 -2.67300164e-01 -2.40363171e-01 -3.52952407e-01
 -1.63250819e-01  6.33387155e-01  3.64027921e-01  4.36855731e-01  1.98876199e-01
 -6.60285223e-01  2.73079115e-01  3.46063083e-02  7.04553437e-02  3.14084967e-03
 -6.64525806e-03 -1.28793670e+00 -3.91513173e-01 -4.25175924e-03  8.89370954e-03
  1.78232381e+00 -1.51753478e+00  1.51680514e-04 -2.04819693e-04 -2.46801878e-02
  1.46632736e-01 -6.68110818e-04  1.40648280e-03  2.97723714e-05  1.41835611e-04
  1.21350083e-01  7.11292849e-01  9.97595167e-03 -4.66657600e-01  1.02885231e-01
  1.02866056e-02  1.21349656e-01  7.11211906e-01  1.00115361e-02  3.22238508e-01
  3.52721593e-01  1.08675510e-02  1.21710126e-01  7.11573807e-01  1.01157008e-02
  1.44386988e-01 -4.55584637e-01  1.44830544e-02  2.68445714e-07  2.03762773e-06
  1.16027186e+00  5.02643969e-01  2.55391209e-04 -6.67379417e-05 -2.30633319e+00
 -9.99221311e-01 -4.75512089e-04  1.22891272e-04  7.69723341e-02  3.33645955e-02
 -1.35619625e-05  1.84753594e-04  6.18012768e-01  2.69190743e-01 -3.54629320e-01
  6.29310804e-01  4.90247205e-01  7.37713831e-01 -1.85552018e-01 -7.58755598e-01
  2.57299070e-01  3.60143676e-01 -5.51904002e-01 -8.30530827e-01  2.08877586e-01
 -5.58272825e-01 -7.03565197e-01 -4.06684919e-01  6.16557179e-02  9.27218165e-02
 -2.33460635e-02  1.70020894e-01 -5.06618176e-02  4.63231671e-02 -3.78143623e-05
 -8.01833959e-05  5.02650648e-01 -1.16016605e+00  7.12278059e-03  9.47362735e-04
 -9.99577091e-01  2.30732723e+00 -1.44522318e-02  2.54617760e-04  3.32891881e-02
 -7.68794835e-02  5.09330340e-04  6.43892199e-03  2.69915332e-01 -6.26359783e-01
 -6.24540045e-01 -3.49387098e-01  3.54279071e-01  5.33099390e-01 -1.34077988e-01
 -5.87440375e-01  8.28457294e-03  2.61024802e-01  2.47549729e-01  3.72590783e-01
 -9.37407533e-02  3.69752273e-01  2.06585307e-01  1.83262246e-01 -6.02959467e-01
 -9.06074796e-01  2.27756970e-01 -2.79656863e-01  9.33120424e-01 -4.51499329e-01
  2.14962503e+00 -2.28340180e+00 -5.56461471e-05  1.16969326e-04  2.93505111e-02
  4.31903487e-01  2.27396700e-04 -4.53410373e-04 -1.32727234e-01  9.35871727e-02
  1.10534631e-04 -2.46886714e-04 -5.66287191e-02 -4.43912591e-02  2.10988313e-04
 -4.51970043e-04 -6.34067637e-05 -5.92766791e-05 -3.42171433e-03 -1.78278815e-01
  3.32683287e-02  1.19467175e-01 -2.65070087e-02 -3.77194305e-02 -3.42867462e-03
 -1.78280678e-01  3.32615801e-02 -8.23650347e-02 -9.04388673e-02 -3.78794531e-02
 -3.52974918e-03 -1.78596576e-01  3.33184838e-02 -3.69105886e-02  1.16551948e-01
 -3.89098587e-02
Total SCF Density                          R   N=         666
  6.47364102e-01  5.64411955e-01  5.08453194e-01  2.96903178e-05  4.65314944e-05
  8.47011139e-02 -6.53045567e-05 -1.02428924e-04 -4.89552957e-06  8.47181831e-02
 -1.22164860e-02 -1.91691257e-02 -1.01325202e-04  2.10887270e-04  1.28573961e-01
 -1.08396563e-01 -1.84268900e-01 -1.36620244e-04  2.99742900e-04  5.64418850e-02
  5.10999668e-01  3.20008425e-05  5.71119428e-05  1.32270635e-01 -6.14568013e-06
 -1.39770274e-04 -1.93299411e-04  2.06555974e-01 -7.04635576e-05 -1.25696133e-04
 -6.14678114e-06  1.32293591e-01  2.90491167e-04  4.23465082e-04 -7.26431742e-06
  2.06586058e-01 -1.33430026e-02 -2.38692559e-02 -1.40485075e-04  2.91487882e-04
  1.92785398e-01  8.08793742e-02 -1.91863414e-04  3.97325307e-04  2.89121743e-01
 -8.68590231e-02 -1.43631272e-01 -2.06662641e-04  4.52988363e-04  9.42027528e-02
  3.90552616e-01 -3.00557544e-04  6.58995149e-04  1.38529138e-01  3.19835243e-01
  6.48629588e-05  1.10322207e-04  8.57431382e-02  5.27461126e-06 -3.44917561e-04
 -3.38339341e-04  1.33897840e-01  9.83127034e-06 -5.04924287e-04 -4.53956003e-04
  8.67984582e-02 -1.40403673e-04 -2.38819280e-04  5.25493326e-06  8.57435891e-02
  7.30649134e-04  7.31448620e-04  9.80249889e-06  1.33894670e-01  1.06909384e-03
  9.81675835e-04  1.46598095e-05  8.67835718e-02 -2.79650331e-02 -4.75988666e-02
 -3.50325430e-04  7.34300355e-04  2.32104526e-01  1.45626977e-01 -5.12721975e-04
  1.07421275e-03  3.47705428e-01  2.01447835e-01 -8.00548275e-04  1.69501898e-03
  4.22954066e-01  2.11668992e-03  3.43983722e-03 -2.81116900e-05  6.05380378e-05
 -7.72612741e-03 -9.52458804e-03 -4.51597021e-05  9.72175748e-05 -1.15368172e-02
 -1.00656931e-02 -1.27049042e-05  2.76525260e-05 -1.44982343e-02  5.41721304e-04
 -8.86370587e-06 -1.44474596e-05 -1.13445870e-02  2.06677977e-05  3.08999722e-06
  4.00319745e-05 -1.77158917e-02  3.20753157e-05  2.88990869e-06  3.89508709e-05
 -1.14841350e-02  1.95189960e-05  3.04469860e-05  4.08071702e-06  1.51946345e-03
  1.89984409e-05  3.10502789e-05  2.06622367e-05 -1.14224792e-02 -7.30937849e-06
 -8.63514312e-05  3.20660130e-05 -1.78370332e-02 -7.19517825e-06 -8.52691528e-05
  1.95078399e-05 -1.15606691e-02 -6.58721644e-05 -8.74357363e-06 -5.47036232e-06
  1.54009744e-03  5.21018085e-07  1.05151211e-06  6.07797247e-03 -4.54842078e-03
  3.82942216e-05 -3.38279791e-06  9.49138812e-03 -7.10259870e-03  5.95844311e-05
  7.65847607e-07  6.15208995e-03 -4.60251322e-03  3.79110237e-05 -8.65455912e-06
 -8.15142660e-04  6.14704520e-04  6.80329314e-04  8.56628828e-07  1.57182343e-06
 -4.66075020e-03 -6.02718432e-03  2.09823991e-05 -4.61052711e-06 -7.27840560e-03
 -9.41197712e-03  3.26213122e-05 -1.55674574e-06 -4.71887286e-03 -6.10057695e-03
  2.15581838e-05 -4.53520944e-06  6.22818944e-04  8.11544794e-04 -1.08500932e-05
  6.85304837e-04 -1.58961760e-02 -2.64005176e-02  6.72870365e-02 -1.49536922e-02
 -2.82822116e-02  6.92655565e-02  1.05074250e-01 -2.33462624e-02 -4.30326510e-02
  3.78696274e-02  6.81503717e-02 -1.52060931e-02 -4.39005874e-02  6.27596520e-04
 -9.00900534e-03  2.01816569e-03  5.61807626e-03 -2.64625041e-03  7.60220057e-02
 -1.76642829e-02 -2.93309083e-02  1.01482295e-01 -2.24778122e-02 -2.64186107e-02
  7.72408029e-02  1.58474443e-01 -3.50961093e-02 -4.02876609e-02  4.43356382e-02