
    -----------------------------------------------------------------------
          Psi4: An Open-Source Ab Initio Electronic Structure Package
                               Psi4 1.5 release

                         Git: Rev {HEAD} e9f4d6d 


    D. G. A. Smith, L. A. Burns, A. C. Simmonett, R. M. Parrish,
    M. C. Schieber, R. Galvelis, P. Kraus, H. Kruse, R. Di Remigio,
    A. Alenaizan, A. M. James, S. Lehtola, J. P. Misiewicz, M. Scheurer,
    R. A. Shaw, J. B. Schriber, Y. Xie, Z. L. Glick, D. A. Sirianni,
    J. S. O'Brien, J. M. Waldrop, A. Kumar, E. G. Hohenstein,
    B. P. Pritchard, B. R. Brooks, H. F. Schaefer III, A. Yu. Sokolov,
    K. Patkowski, A. E. DePrince III, U. Bozkaya, R. A. King,
    F. A. Evangelista, J. M. Turney, T. D. Crawford, C. D. Sherrill,
    J. Chem. Phys. 152(18) 184108 (2020). https://doi.org/10.1063/5.0006002

                            Additional Code Authors
    E. T. Seidl, C. L. Janssen, E. F. Valeev, M. L. Leininger,
    J. F. Gonthier, R. M. Richard, H. R. McAlexander, M. Saitow, X. Wang,
    P. Verma, M. H. Lechner, and A. Jiang

             Previous Authors, Complete List of Code Contributors,
                       and Citations for Specific Modules
    https://github.com/psi4/psi4/blob/master/codemeta.json
    https://github.com/psi4/psi4/graphs/contributors
    http://psicode.org/psi4manual/master/introduction.html#citing-psifour

    -----------------------------------------------------------------------


    Psi4 started on: Wednesday, 08 June 2022 11:55AM

    Process ID: 1100389
    Host:       node74.bme.utexas.edu
    PSIDATADIR: /home/bdw2292/miniconda3/envs/newamoebamdpoltype/share/psi4
    Memory:     500.0 MiB
    Threads:    1
    
  ==> Input File <==

--------------------------------------------------------------------------
molecule { 
0 1
 C    1.528562    0.156760   -1.543945
 N    0.645640    0.249731   -0.389149
 C   -0.567028   -0.549674   -0.413703
 C   -1.827967    0.301008   -0.673014
 C    0.878169    1.077226    0.781690
 H   -0.688246   -1.090765    0.545008
 H   -0.515199   -1.348932   -1.171130
 N   -3.004656   -0.392524   -0.569684
 O   -1.799564    1.495444   -0.978182
 C    2.894125   -0.437869   -1.162192
 H    1.061220   -0.442431   -2.343177
 H    1.634973    1.167385   -1.975340
 C    1.334431    0.245846    1.997485
 H    1.626089    1.845279    0.522602
 H   -0.046576    1.638086    1.003158
 H    2.779150   -1.383498   -0.629163
 H    3.507773   -0.616751   -2.046554
 H    1.488380    0.888700    2.864863
 H    0.593825   -0.504891    2.275469
 H   -3.036864   -1.253854   -0.050073
 H   -3.855192    0.137680   -0.662204
 H    3.445535    0.249534   -0.516422
 H    2.274831   -0.266177    1.785329
}
set optking { 
  frozen_dihedral = ("
    1 2 3 4
    10 1 2 5
    13 5 2 1
    2 3 4 8
    3 4 8 20
  ")
}
set {
  geom_maxiter 400
  g_convergence GAU_LOOSE
  dynamic_level 1
}
memory 8.166666666666666GB
set_num_threads(2)
psi4_io.set_default_path("/scratch/bdw2292/Psi4-4_27_Index_0-farH_in17")
for _ in range(1):
  try:
    set opt_coordinates both
    optimize('wb97x-d/6-311G')
    break
  except OptimizationConvergenceError:
    break
  else:
    try:
      set opt_coordinates cartesian
      optimize('wb97x-d/6-311G')
      break
    except OptimizationConvergenceError:
      pass
clean()
--------------------------------------------------------------------------

  Memory set to   7.606 GiB by Python driver.
  Threads set to 2 by Python driver.

Scratch directory: /scratch/bdw2292/Psi4-4_27_Index_0-farH_in17/

Scratch directory: /scratch/bdw2292/Psi4-4_27_Index_0-farH_in17/
gradient() will perform analytic gradient computation.

*** tstart() called on node74.bme.utexas.edu
*** at Wed Jun  8 11:55:16 2022

   => Loading Basis Set <=

    Name: 6-311G
    Role: ORBITAL
    Keyword: BASIS
    atoms 1, 3-5, 10, 13    entry C          line    92 file /home/bdw2292/miniconda3/envs/newamoebamdpoltype/share/psi4/basis/6-311g.gbs 
    atoms 2, 8              entry N          line   109 file /home/bdw2292/miniconda3/envs/newamoebamdpoltype/share/psi4/basis/6-311g.gbs 
    atoms 6-7, 11-12, 14-23 entry H          line    21 file /home/bdw2292/miniconda3/envs/newamoebamdpoltype/share/psi4/basis/6-311g.gbs 
    atoms 9                 entry O          line   126 file /home/bdw2292/miniconda3/envs/newamoebamdpoltype/share/psi4/basis/6-311g.gbs 

   => WB97X-D: Empirical Dispersion <=

    Chai and Head-Gordon Dispersion Correction
    Chai, J.-D.; Head-Gordon, M. (2010), J. Chem. Phys., 132: 6615-6620

        s6 =       1.000000


         ---------------------------------------------------------
                                   SCF
               by Justin Turney, Rob Parrish, Andy Simmonett
                          and Daniel G. A. Smith
                              RKS Reference
                        2 Threads,   7788 MiB Core
         ---------------------------------------------------------

  ==> Geometry <==

    Molecular point group: c1
    Full point group: C1

    Geometry (in Angstrom), charge = 0, multiplicity = 1:

       Center              X                  Y                   Z               Mass       
    ------------   -----------------  -----------------  -----------------  -----------------
         C            1.533048831770    -0.077280966611    -1.223929287656    12.000000000000
         N            0.650126831770     0.015690033389    -0.069133287656    14.003074004430
         C           -0.562541168230    -0.783714966611    -0.093687287656    12.000000000000
         C           -1.823480168230     0.066967033389    -0.352998287656    12.000000000000
         C            0.882655831770     0.843185033389     1.101705712344    12.000000000000
         H           -0.683759168230    -1.324805966611     0.865023712344     1.007825032230
         H           -0.510712168230    -1.582972966611    -0.851114287656     1.007825032230
         N           -3.000169168230    -0.626564966611    -0.249668287656    14.003074004430
         O           -1.795077168230     1.261403033389    -0.658166287656    15.994914619570
         C            2.898611831770    -0.671909966611    -0.842176287656    12.000000000000
         H            1.065706831770    -0.676471966611    -2.023161287656     1.007825032230
         H            1.639459831770     0.933344033389    -1.655324287656     1.007825032230
         C            1.338917831770     0.011805033389     2.317500712344    12.000000000000
         H            1.630575831770     1.611238033389     0.842617712344     1.007825032230
         H           -0.042089168230     1.404045033389     1.323173712344     1.007825032230
         H            2.783636831770    -1.617538966611    -0.309147287656     1.007825032230
         H            3.512259831770    -0.850791966611    -1.726538287656     1.007825032230
         H            1.492866831770     0.654659033389     3.184878712344     1.007825032230
         H            0.598311831770    -0.738931966611     2.595484712344     1.007825032230
         H           -3.032377168230    -1.487894966611     0.269942712344     1.007825032230
         H           -3.850705168230    -0.096360966611    -0.342188287656     1.007825032230
         H            3.450021831770     0.015493033389    -0.196406287656     1.007825032230
         H            2.279317831770    -0.500217966611     2.105344712344     1.007825032230

  Running in c1 symmetry.

  Rotational constants: A =      0.07824  B =      0.03186  C =      0.02751 [cm^-1]
  Rotational constants: A =   2345.63484  B =    955.01707  C =    824.60680 [MHz]
  Nuclear repulsion =  482.814337846526371

  Charge       = 0
  Multiplicity = 1
  Electrons    = 72
  Nalpha       = 36
  Nbeta        = 36

  ==> Algorithm <==

  SCF Algorithm Type is DF.
  DIIS enabled.
  MOM disabled.
  Fractional occupation disabled.
  Guess Type is SAD.
  Energy threshold   = 1.00e-08
  Density threshold  = 1.00e-08
  Integral threshold = 1.00e-12

  ==> Primary Basis <==

  Basis Set: 6-311G
    Blend: 6-311G
    Number of shells: 105
    Number of basis functions: 159
    Number of Cartesian functions: 159
    Spherical Harmonics?: true
    Max angular momentum: 1

  ==> DFT Potential <==

   => LibXC <=

    Version 5.1.5
    S. Lehtola, C. Steigemann, M. J. Oliveira, and M. A. Marques, SoftwareX 7, 1 (2018) (10.1016/j.softx.2017.11.002)

   => Composite Functional: WB97X-D <= 

    wB97X-D Hyb-GGA Exchange-Correlation Functional

    J.-D. Chai and M. Head-Gordon, Phys. Chem. Chem. Phys. 10, 6615 (2008) (10.1039/B810189B)

    Deriv               =              1
    GGA                 =           TRUE
    Meta                =          FALSE

    Exchange Hybrid     =           TRUE
    MP2 Hybrid          =          FALSE

   => Exchange-Correlation Functionals <=

    1.0000   wB97X-D range-separated functional

   => Exact (HF) Exchange <=

    0.7780            HF,LR [omega = 0.2000]
    0.2220               HF 

   => LibXC Density Thresholds  <==

    XC_HYB_GGA_XC_WB97X_D:  1.00E-14 

   => Molecular Quadrature <=

    Radial Scheme          =       TREUTLER
    Pruning Scheme         =           NONE
    Nuclear Scheme         =       TREUTLER

    BS radius alpha        =              1
    Pruning alpha          =              1
    Radial Points          =             75
    Spherical Points       =            302
    Total Points           =         481761
    Total Blocks           =           3491
    Max Points             =            256
    Max Functions          =            139
    Weights Tolerance      =       1.00E-15

   => Loading Basis Set <=

    Name: (6-311G AUX)
    Role: JKFIT
    Keyword: DF_BASIS_SCF
    atoms 1, 3-5, 10, 13    entry C          line   125 file /home/bdw2292/miniconda3/envs/newamoebamdpoltype/share/psi4/basis/cc-pvtz-jkfit.gbs 
    atoms 2, 8              entry N          line   177 file /home/bdw2292/miniconda3/envs/newamoebamdpoltype/share/psi4/basis/cc-pvtz-jkfit.gbs 
    atoms 6-7, 11-12, 14-23 entry H          line    51 file /home/bdw2292/miniconda3/envs/newamoebamdpoltype/share/psi4/basis/cc-pvtz-jkfit.gbs 
    atoms 9                 entry O          line   229 file /home/bdw2292/miniconda3/envs/newamoebamdpoltype/share/psi4/basis/cc-pvtz-jkfit.gbs 

  ==> Integral Setup <==

  DFHelper Memory: AOs need 0.586 GiB; user supplied 4.291 GiB. Using in-core AOs.

  ==> MemDFJK: Density-Fitted J/K Matrices <==

    J tasked:                   Yes
    K tasked:                   Yes
    wK tasked:                  Yes
    Omega:                2.000E-01
    OpenMP threads:               2
    Memory [MiB]:              4394
    Algorithm:                 Core
    Schwarz Cutoff:           1E-12
    Mask sparsity (%):      10.6008
    Fitting Condition:        1E-10

   => Auxiliary Basis Set <=

  Basis Set: (6-311G AUX)
    Blend: CC-PVTZ-JKFIT
    Number of shells: 365
    Number of basis functions: 1131
    Number of Cartesian functions: 1354
    Spherical Harmonics?: true
    Max angular momentum: 4

  Cached 100.0% of DFT collocation blocks in 1.413 [GiB].

  Minimum eigenvalue in the overlap matrix is 2.2219358705E-03.
  Reciprocal condition number of the overlap matrix is 3.0385988278E-04.
    Using symmetric orthogonalization.

  ==> Pre-Iterations <==

  SCF Guess: Superposition of Atomic Densities via on-the-fly atomic UHF (no occupation information).

   -------------------------
    Irrep   Nso     Nmo    
   -------------------------
     A        159     159 
   -------------------------
    Total     159     159
   -------------------------

  ==> Iterations <==

                           Total Energy        Delta E     RMS |[F,P]|

   @DF-RKS iter SAD:  -420.79967408854338   -4.20800e+02   0.00000e+00 
   @DF-RKS iter   1:  -421.13959993941870   -3.39926e-01   6.51041e-03 DIIS
   @DF-RKS iter   2:  -421.21587876722407   -7.62788e-02   6.44034e-03 DIIS
   @DF-RKS iter   3:  -421.61805105176501   -4.02172e-01   1.40606e-03 DIIS
   @DF-RKS iter   4:  -421.63601806071233   -1.79670e-02   3.16141e-04 DIIS
   @DF-RKS iter   5:  -421.63698028117159   -9.62220e-04   1.15705e-04 DIIS
   @DF-RKS iter   6:  -421.63712641801158   -1.46137e-04   2.22127e-05 DIIS
   @DF-RKS iter   7:  -421.63713316847645   -6.75046e-06   6.32377e-06 DIIS
   @DF-RKS iter   8:  -421.63713378921187   -6.20735e-07   1.98660e-06 DIIS
   @DF-RKS iter   9:  -421.63713387363555   -8.44237e-08   9.67323e-07 DIIS
   @DF-RKS iter  10:  -421.63713388843047   -1.47949e-08   2.04999e-07 DIIS
   @DF-RKS iter  11:  -421.63713388997525   -1.54478e-09   5.20190e-08 DIIS
   @DF-RKS iter  12:  -421.63713389010087   -1.25624e-10   1.91320e-08 DIIS
   @DF-RKS iter  13:  -421.63713389011377   -1.29035e-11   6.64070e-09 DIIS
  Energy and wave function converged.


  ==> Post-Iterations <==

   Electrons on quadrature grid:
      Ntotal   =   72.0001579380 ; deviation = 1.579e-04 

    Orbital Energies [Eh]
    ---------------------

    Doubly Occupied:                                                      

       1A    -19.212361     2A    -14.454187     3A    -14.408719  
       4A    -10.395938     5A    -10.327212     6A    -10.307683  
       7A    -10.305982     8A    -10.265173     9A    -10.264700  
      10A     -1.150490    11A     -1.016483    12A     -1.012548  
      13A     -0.860229    14A     -0.850913    15A     -0.788876  
      16A     -0.727939    17A     -0.696967    18A     -0.658324  
      19A     -0.627349    20A     -0.583027    21A     -0.572507  
      22A     -0.560036    23A     -0.520272    24A     -0.516705  
      25A     -0.503274    26A     -0.490895    27A     -0.475770  
      28A     -0.467429    29A     -0.454744    30A     -0.447617  
      31A     -0.436769    32A     -0.418697    33A     -0.411392  
      34A     -0.353204    35A     -0.335613    36A     -0.262534  

    Virtual:                                                              

      37A      0.088393    38A      0.104086    39A      0.126615  
      40A      0.147226    41A      0.151015    42A      0.161790  
      43A      0.173432    44A      0.182404    45A      0.189462  
      46A      0.203996    47A      0.205855    48A      0.215780  
      49A      0.229679    50A      0.237046    51A      0.243161  
      52A      0.256923    53A      0.287191    54A      0.297594  
      55A      0.323056    56A      0.340848    57A      0.347796  
      58A      0.363369    59A      0.373228    60A      0.398265  
      61A      0.408407    62A      0.412686    63A      0.436431  
      64A      0.440947    65A      0.449310    66A      0.471821  
      67A      0.488888    68A      0.522223    69A      0.530894  
      70A      0.550233    71A      0.567796    72A      0.580441  
      73A      0.589124    74A      0.612046    75A      0.619270  
      76A      0.634571    77A      0.647808    78A      0.656881  
      79A      0.663771    80A      0.674047    81A      0.680734  
      82A      0.684896    83A      0.687592    84A      0.696365  
      85A      0.707173    86A      0.709928    87A      0.715679  
      88A      0.726525    89A      0.749688    90A      0.763197  
      91A      0.765682    92A      0.791963    93A      0.811514  
      94A      0.819413    95A      0.872341    96A      0.903695  
      97A      0.932497    98A      0.982141    99A      1.030133  
     100A      1.041495   101A      1.077591   102A      1.084261  
     103A      1.140421   104A      1.188449   105A      1.203327  
     106A      1.266374   107A      1.349677   108A      1.473687  
     109A      1.724171   110A      2.242263   111A      2.318672  
     112A      2.330182   113A      2.333615   114A      2.362712  
     115A      2.366889   116A      2.371542   117A      2.385742  
     118A      2.392336   119A      2.410413   120A      2.414624  
     121A      2.429123   122A      2.445536   123A      2.460529  
     124A      2.690859   125A      2.843966   126A      2.892892  
     127A      2.904065   128A      2.925848   129A      2.940244  
     130A      2.963363   131A      2.985627   132A      2.987388  
     133A      3.010746   134A      3.027617   135A      3.070824  
     136A      3.142066   137A      3.150462   138A      3.165816  
     139A      3.210385   140A      3.289867   141A      3.324997  
     142A      3.788415   143A      4.043215   144A      4.066611  
     145A      4.162941   146A      4.179319   147A      4.203141  
     148A      4.998018   149A      5.062322   150A      5.088019  
     151A     23.424772   152A     23.487498   153A     23.532615  
     154A     23.628411   155A     23.688560   156A     23.712606  
     157A     35.473123   158A     35.566927   159A     50.053278  

    Final Occupation by Irrep:
              A 
    DOCC [    36 ]

  @DF-RKS Final Energy:  -421.63713389011377

   => Energetics <=

    Nuclear Repulsion Energy =            482.8143378465263709
    One-Electron Energy =               -1528.6447493969963034
    Two-Electron Energy =                 665.4911718918765473
    DFT Exchange-Correlation Energy =     -41.2829075138309136
    Empirical Dispersion Energy =          -0.0149867176893410
    VV10 Nonlocal Energy =                  0.0000000000000000
    Total Energy =                       -421.6371338901137165

Computation Completed


Properties will be evaluated at   0.000000,   0.000000,   0.000000 [a0]

Properties computed using the SCF density matrix

  Nuclear Dipole Moment: [e a0]
     X:     9.6846      Y:    -3.9832      Z:     3.8251

  Electronic Dipole Moment: [e a0]
     X:    -9.9818      Y:     2.6839      Z:    -3.3059

  Dipole Moment: [e a0]
     X:    -0.2972      Y:    -1.2993      Z:     0.5192     Total:     1.4304

  Dipole Moment: [D]
     X:    -0.7554      Y:    -3.3025      Z:     1.3197     Total:     3.6357


*** tstop() called on node74.bme.utexas.edu at Wed Jun  8 11:55:50 2022
Module time:
	user time   =      63.29 seconds =       1.05 minutes
	system time =       2.75 seconds =       0.05 minutes
	total time  =         34 seconds =       0.57 minutes
Total time:
	user time   =      63.29 seconds =       1.05 minutes
	system time =       2.75 seconds =       0.05 minutes
	total time  =         34 seconds =       0.57 minutes

*** tstart() called on node74.bme.utexas.edu
*** at Wed Jun  8 11:55:50 2022


         ------------------------------------------------------------
                                   SCF GRAD                          
                          Rob Parrish, Justin Turney,                
                       Andy Simmonett, and Alex Sokolov              
         ------------------------------------------------------------

  ==> Geometry <==

    Molecular point group: c1
    Full point group: C1

    Geometry (in Angstrom), charge = 0, multiplicity = 1:

       Center              X                  Y                   Z               Mass       
    ------------   -----------------  -----------------  -----------------  -----------------
         C            1.533048831770    -0.077280966611    -1.223929287656    12.000000000000
         N            0.650126831770     0.015690033389    -0.069133287656    14.003074004430
         C           -0.562541168230    -0.783714966611    -0.093687287656    12.000000000000
         C           -1.823480168230     0.066967033389    -0.352998287656    12.000000000000
         C            0.882655831770     0.843185033389     1.101705712344    12.000000000000
         H           -0.683759168230    -1.324805966611     0.865023712344     1.007825032230
         H           -0.510712168230    -1.582972966611    -0.851114287656     1.007825032230
         N           -3.000169168230    -0.626564966611    -0.249668287656    14.003074004430
         O           -1.795077168230     1.261403033389    -0.658166287656    15.994914619570
         C            2.898611831770    -0.671909966611    -0.842176287656    12.000000000000
         H            1.065706831770    -0.676471966611    -2.023161287656     1.007825032230
         H            1.639459831770     0.933344033389    -1.655324287656     1.007825032230
         C            1.338917831770     0.011805033389     2.317500712344    12.000000000000
         H            1.630575831770     1.611238033389     0.842617712344     1.007825032230
         H           -0.042089168230     1.404045033389     1.323173712344     1.007825032230
         H            2.783636831770    -1.617538966611    -0.309147287656     1.007825032230
         H            3.512259831770    -0.850791966611    -1.726538287656     1.007825032230
         H            1.492866831770     0.654659033389     3.184878712344     1.007825032230
         H            0.598311831770    -0.738931966611     2.595484712344     1.007825032230
         H           -3.032377168230    -1.487894966611     0.269942712344     1.007825032230
         H           -3.850705168230    -0.096360966611    -0.342188287656     1.007825032230
         H            3.450021831770     0.015493033389    -0.196406287656     1.007825032230
         H            2.279317831770    -0.500217966611     2.105344712344     1.007825032230

  Nuclear repulsion =  482.814337846526371

  ==> Basis Set <==

  Basis Set: 6-311G
    Blend: 6-311G
    Number of shells: 105
    Number of basis functions: 159
    Number of Cartesian functions: 159
    Spherical Harmonics?: true
    Max angular momentum: 1

  ==> DFJKGrad: Density-Fitted SCF Gradients <==

    Gradient:                    1
    J tasked:                  Yes
    K tasked:                  Yes
    wK tasked:                 Yes
    Omega:               2.000E-01
    OpenMP threads:              2
    Integrals threads:           2
    Memory [MiB]:             5841
    Schwarz Cutoff:          1E-12
    Fitting Condition:       1E-10

   => Auxiliary Basis Set <=

  Basis Set: (6-311G AUX)
    Blend: CC-PVTZ-JKFIT
    Number of shells: 365
    Number of basis functions: 1131
    Number of Cartesian functions: 1354
    Spherical Harmonics?: true
    Max angular momentum: 4

  ==> DFT Potential <==

   => LibXC <=

    Version 5.1.5
    S. Lehtola, C. Steigemann, M. J. Oliveira, and M. A. Marques, SoftwareX 7, 1 (2018) (10.1016/j.softx.2017.11.002)

   => Composite Functional: WB97X-D <= 

    wB97X-D Hyb-GGA Exchange-Correlation Functional

    J.-D. Chai and M. Head-Gordon, Phys. Chem. Chem. Phys. 10, 6615 (2008) (10.1039/B810189B)

    Deriv               =              1
    GGA                 =           TRUE
    Meta                =          FALSE

    Exchange Hybrid     =           TRUE
    MP2 Hybrid          =          FALSE

   => Exchange-Correlation Functionals <=

    1.0000   wB97X-D range-separated functional

   => Exact (HF) Exchange <=

    0.7780            HF,LR [omega = 0.2000]
    0.2220               HF 

   => LibXC Density Thresholds  <==

    XC_HYB_GGA_XC_WB97X_D:  1.00E-14 

   => Molecular Quadrature <=

    Radial Scheme          =       TREUTLER
    Pruning Scheme         =           NONE
    Nuclear Scheme         =       TREUTLER

    BS radius alpha        =              1
    Pruning alpha          =              1
    Radial Points          =             75
    Spherical Points       =            302
    Total Points           =         481761
    Total Blocks           =           3491
    Max Points             =            256
    Max Functions          =            139
    Weights Tolerance      =       1.00E-15


  -Total Gradient:
     Atom            X                  Y                   Z
    ------   -----------------  -----------------  -----------------
       1       -0.005727359390    -0.012479768096    -0.005618996456
       2        0.021781756900     0.027130758730     0.012821586237
       3       -0.005800458480    -0.008542165583    -0.008624884592
       4       -0.001648472397     0.011573440553     0.000572547577
       5       -0.001830748781    -0.001029809109     0.005370982049
       6        0.002959835284    -0.003578457045     0.002583103022
       7       -0.001419194809    -0.007913249947    -0.001847315332
       8        0.000648364226    -0.002203143868    -0.008868314530
       9       -0.001809582620    -0.005074529393     0.002902394617
      10       -0.001931075986    -0.003361759179     0.005823123078
      11        0.000053835436    -0.001997490766    -0.009634380383
      12       -0.005791521148     0.004268885709     0.000243002812
      13       -0.002434730398    -0.007841678850     0.000414466208
      14        0.002233530448     0.005980929211    -0.002134149523
      15       -0.004916858204     0.003350740511    -0.001565579458
      16        0.002410983763    -0.000417799020     0.000748004481
      17       -0.001306560156    -0.000248831009     0.001282755643
      18        0.000047497963    -0.000938884753    -0.001948767036
      19        0.001096788480     0.000416203486     0.001077389025
      20        0.001731217454     0.000295008951     0.005072606535
      21        0.000081326785     0.002446271334     0.001069121446
      22        0.000619480939     0.000433068546    -0.000918868559
      23        0.000923629962    -0.000271492985     0.001027096908


*** tstop() called on node74.bme.utexas.edu at Wed Jun  8 11:56:04 2022
Module time:
	user time   =      26.87 seconds =       0.45 minutes
	system time =       0.27 seconds =       0.00 minutes
	total time  =         14 seconds =       0.23 minutes
Total time:
	user time   =      90.17 seconds =       1.50 minutes
	system time =       3.02 seconds =       0.05 minutes
	total time  =         48 seconds =       0.80 minutes

			-----------------------------------------
			 OPTKING 2.0: for geometry optimizations 
			  - R.A. King,  Bethel University        
			-----------------------------------------
	At level 1: Red. Int., RFO, no backsteps, dynamic trust

	Internal coordinates to be generated automatically.
	Detected frag 1 with atoms:  1 2 3 4 5 6 7 8 9 10 11 12 13 14 15 16 17 18 19 20
	 21 22 23
	---Fragment 1 Bond Connectivity---
	 1 : 2 10 11 12
	 2 : 1 3 5
	 3 : 2 4 6 7
	 4 : 3 8 9
	 5 : 2 13 14 15
	 6 : 3
	 7 : 3
	 8 : 4 20 21
	 9 : 4
	 10 : 1 16 17 22
	 11 : 1
	 12 : 1
	 13 : 5 18 19 23
	 14 : 5
	 15 : 5
	 16 : 10
	 17 : 10
	 18 : 13
	 19 : 13
	 20 : 8
	 21 : 8
	 22 : 10
	 23 : 13

	Assuming in current code that numbering for constraints corresponds to unified fragment.
	Frozen dihedral atom list: 
	     1     2     3     4
	    10     1     2     5
	    13     5     2     1
	     2     3     4     8
	     3     4     8    20
	---Fragment 1 Geometry and Gradient---
	 C           2.8970424290       -0.1460398616       -2.3128911506
	 N           1.2285616589        0.0296498660       -0.1306429798
	 C          -1.0630487422       -1.4810066473       -0.1770433151
	 C          -3.4458781132        0.1265493525       -0.6670700864
	 C           1.6679777851        1.5933887862        2.0819220672
	 H          -1.2921175637       -2.5035204463        1.6346579084
	 H          -0.9651061269       -2.9913853709       -1.6083729051
	 N          -5.6694980580       -1.1840361867       -0.4718046859
	 O          -3.3922042220        2.3837062669       -1.2437540287
	 C           5.4775825061       -1.2697258179       -1.5914825330
	 H           2.0138940421       -1.2783467484       -3.8232207413
	 H           3.0981300757        1.7637646039       -3.1281095525
	 C           2.5301880065        0.0223082800        4.3794416419
	 H           3.0813417488        3.0447986060        1.5923167048
	 H          -0.0795370008        2.6532605809        2.5004359327
	 H           5.2603112448       -3.0567056442       -0.5842037061
	 H           6.6372091635       -1.6077638066       -3.2626845088
	 H           2.8211094538        1.2371262787        6.0185485091
	 H           1.1306454997       -1.3963790422        4.9047552691
	 H          -5.7303623570       -2.8117139903        0.5101177959
	 H          -7.2767781578       -0.1820958361       -0.6466421470
	 H           6.5195963889        0.0292775900       -0.3711540930
	 H           4.3072864549       -0.9452749599        3.9785249060
	            -0.0057273594       -0.0124797681       -0.0056189965
	             0.0217817569        0.0271307587        0.0128215862
	            -0.0058004585       -0.0085421656       -0.0086248846
	            -0.0016484724        0.0115734406        0.0005725476
	            -0.0018307488       -0.0010298091        0.0053709820
	             0.0029598353       -0.0035784570        0.0025831030
	            -0.0014191948       -0.0079132499       -0.0018473153
	             0.0006483642       -0.0022031439       -0.0088683145
	            -0.0018095826       -0.0050745294        0.0029023946
	            -0.0019310760       -0.0033617592        0.0058231231
	             0.0000538354       -0.0019974908       -0.0096343804
	            -0.0057915211        0.0042688857        0.0002430028
	            -0.0024347304       -0.0078416788        0.0004144662
	             0.0022335304        0.0059809292       -0.0021341495
	            -0.0049168582        0.0033507405       -0.0015655795
	             0.0024109838       -0.0004177990        0.0007480045
	            -0.0013065602       -0.0002488310        0.0012827556
	             0.0000474980       -0.0009388848       -0.0019487670
	             0.0010967885        0.0004162035        0.0010773890
	             0.0017312175        0.0002950090        0.0050726065
	             0.0000813268        0.0024462713        0.0010691214
	             0.0006194809        0.0004330685       -0.0009188686
	             0.0009236300       -0.0002714930        0.0010270969

	Previous optimization step data not found.  Starting new optimization.

	---Fragment 1 Intrafragment Coordinates---
	 - Coordinate -           - BOHR/RAD -       - ANG/DEG -
	 R(1,2)           =         2.752617	       1.456622
	 R(1,10)          =         2.905561	       1.537557
	 R(1,11)          =         2.084026	       1.102819
	 R(1,12)          =         2.086234	       1.103987
	 R(2,3)           =         2.745126	       1.452658
	 R(2,5)           =         2.744779	       1.452474
	 R(3,4)           =         2.915860	       1.543007
	 R(3,6)           =         2.092909	       1.107520
	 R(3,7)           =         2.083157	       1.102359
	 R(4,8)           =         2.588484	       1.369767
	 R(4,9)           =         2.330280	       1.233131
	 R(5,13)          =         2.913811	       1.541923
	 R(5,14)          =         2.084203	       1.102913
	 R(5,15)          =         2.086214	       1.103977
	 R(8,20)          =         1.901897	       1.006440
	 R(8,21)          =         1.902052	       1.006523
	 R(10,16)         =         2.062793	       1.091583
	 R(10,17)         =         2.062018	       1.091173
	 R(10,22)         =         2.064559	       1.092518
	 R(13,18)         =         2.060847	       1.090553
	 R(13,19)         =         2.060909	       1.090586
	 R(13,23)         =         2.062773	       1.091572
	 B(1,2,3)         =         2.045955	     117.224590
	 B(1,2,5)         =         2.187553	     125.337541
	 B(1,10,16)       =         1.941981	     111.267318
	 B(1,10,17)       =         1.940821	     111.200853
	 B(1,10,22)       =         1.930165	     110.590291
	 B(2,1,10)        =         1.945702	     111.480515
	 B(2,1,11)        =         1.930890	     110.631838
	 B(2,1,12)        =         1.885766	     108.046427
	 B(2,3,4)         =         1.962365	     112.435223
	 B(2,3,6)         =         1.923668	     110.218055
	 B(2,3,7)         =         1.951270	     111.799510
	 B(2,5,13)        =         1.956051	     112.073456
	 B(2,5,14)        =         1.892245	     108.417644
	 B(2,5,15)        =         1.893409	     108.484353
	 B(3,2,5)         =         2.049676	     117.437785
	 B(3,4,8)         =         1.993460	     114.216846
	 B(3,4,9)         =         2.161302	     123.833505
	 B(4,3,6)         =         1.902214	     108.988845
	 B(4,3,7)         =         1.899354	     108.824965
	 B(4,8,20)        =         2.094107	     119.983485
	 B(4,8,21)        =         2.040103	     116.889310
	 B(5,13,18)       =         1.929508	     110.552692
	 B(5,13,19)       =         1.951097	     111.789612
	 B(5,13,23)       =         1.933271	     110.768275
	 B(6,3,7)         =         1.819033	     104.222896
	 B(8,4,9)         =         2.128078	     121.929896
	 B(10,1,11)       =         1.924292	     110.253795
	 B(10,1,12)       =         1.944907	     111.434979
	 B(11,1,12)       =         1.828679	     104.775579
	 B(13,5,14)       =         1.939112	     111.102948
	 B(13,5,15)       =         1.942937	     111.322066
	 B(14,5,15)       =         1.835240	     105.151525
	 B(16,10,17)      =         1.889122	     108.238729
	 B(16,10,22)      =         1.885561	     108.034704
	 B(17,10,22)      =         1.873774	     107.359337
	 B(18,13,19)      =         1.874352	     107.392467
	 B(18,13,23)      =         1.885435	     108.027462
	 B(19,13,23)      =         1.887763	     108.160841
	 B(20,8,21)       =         2.061484	     118.114335
	*D(1,2,3,4)       =        -1.845180	    -105.721052
	 D(1,2,3,6)       =         2.311901	     132.462156
	 D(1,2,3,7)       =         0.297394	      17.039430
	*D(1,2,5,13)      =        -1.830295	    -104.868170
	 D(1,2,5,14)      =         0.316335	      18.124659
	 D(1,2,5,15)      =         2.300599	     131.814586
	 D(2,1,10,16)     =         0.915425	      52.449976
	 D(2,1,10,17)     =         3.022810	     173.194274
	 D(2,1,10,22)     =        -1.180257	     -67.623725
	*D(2,3,4,8)       =        -3.032171	    -173.730581
	 D(2,3,4,9)       =         0.137215	       7.861836
	 D(2,5,13,18)     =        -3.128028	    -179.222811
	 D(2,5,13,19)     =        -1.040913	     -59.639950
	 D(2,5,13,23)     =         1.065761	      61.063620
	 D(3,2,1,10)      =        -2.027986	    -116.195050
	 D(3,2,1,11)      =         0.120007	       6.875890
	 D(3,2,1,12)      =         2.112472	     121.035746
	 D(3,2,5,13)      =         1.313197	      75.240640
	 D(3,2,5,14)      =        -2.823359	    -161.766531
	 D(3,2,5,15)      =        -0.839095	     -48.076603
	*D(3,4,8,20)      =         0.366686	      21.009535
	 D(3,4,8,21)      =         3.063183	     175.507437
	 D(4,3,2,5)       =         1.294670	      74.179127
	*D(5,2,1,10)      =         1.115502	      63.913552
	 D(5,2,1,11)      =        -3.019690	    -173.015508
	 D(5,2,1,12)      =        -1.027225	     -58.855653
	 D(5,2,3,6)       =        -0.831434	     -47.637665
	 D(5,2,3,7)       =        -2.845941	    -163.060391
	 D(6,3,4,8)       =        -0.893916	     -51.217634
	 D(6,3,4,9)       =         2.275469	     130.374783
	 D(7,3,4,8)       =         1.079501	      61.850825
	 D(7,3,4,9)       =        -2.034299	    -116.556758
	 D(9,4,8,20)      =        -2.802109	    -160.549031
	 D(9,4,8,21)      =        -0.105612	      -6.051129
	 D(11,1,10,16)    =        -1.236330	     -70.836479
	 D(11,1,10,17)    =         0.871056	      49.907819
	 D(11,1,10,22)    =         2.951174	     169.089820
	 D(12,1,10,16)    =         3.023900	     173.256683
	 D(12,1,10,17)    =        -1.151900	     -65.999019
	 D(12,1,10,22)    =         0.928218	      53.182982
	 D(14,5,13,18)    =         1.035238	      59.314779
	 D(14,5,13,19)    =         3.122353	     178.897639
	 D(14,5,13,23)    =        -1.054158	     -60.398790
	 D(15,5,13,18)    =        -1.003875	     -57.517822
	 D(15,5,13,19)    =         1.083239	      62.065038
	 D(15,5,13,23)    =        -3.093271	    -177.231391
	 R(5,9)           =         6.106567	       3.231456
	 R(10,13)         =         6.782951	       3.589383

	Current energy   :      -421.6371338901

	Generating empirical Hessian (Schlegel '84) for each fragment.
	Taking RFO optimization step.
	Going to follow RFO solution 1.
	Using RFO vector 1.
	Norm of target step-size    0.31215
	Projected energy change by RFO approximation:        -0.0016456130

	Back-transformation to cartesian coordinates...
	Successfully converged to displaced geometry.

	Back-transformation to cartesian coordinates to adjust frozen coordinates...
	Successfully converged to displaced geometry.

	--- Internal Coordinate Step in ANG or DEG, aJ/ANG or AJ/DEG ---
	 ---------------------------------------------------------------------------
	   Coordinate                Previous        Force       Change         New 
	   ----------                --------       ------       ------       ------
	    1 R(1,2)          =      1.456622    -0.003380     0.067147     1.523770
	    2 R(1,10)         =      1.537557    -0.024795     0.115761     1.653318
	    3 R(1,11)         =      1.102819    -0.066279     0.025447     1.128266
	    4 R(1,12)         =      1.103987    -0.026731     0.079719     1.183706
	    5 R(2,3)          =      1.452658    -0.098848     0.107207     1.559865
	    6 R(2,5)          =      1.452474    -0.011059     0.023476     1.475951
	    7 R(3,4)          =      1.543007    -0.041031     0.099926     1.642933
	    8 R(3,6)          =      1.107520    -0.030245     0.083741     1.191261
	    9 R(3,7)          =      1.102359    -0.057131    -0.006192     1.096167
	   10 R(4,8)          =      1.369767     0.021306     0.120846     1.490612
	   11 R(4,9)          =      1.233131     0.045776     0.090627     1.323758
	   12 R(5,13)         =      1.541923    -0.041966     0.121021     1.662944
	   13 R(5,14)         =      1.102913    -0.050968     0.084322     1.187235
	   14 R(5,15)         =      1.103977    -0.045395     0.041706     1.145683
	   15 R(8,20)         =      1.006440    -0.019126     0.080099     1.086540
	   16 R(8,21)         =      1.006523    -0.009196     0.069594     1.076117
	   17 R(10,16)        =      1.091583    -0.003971     0.086336     1.177919
	   18 R(10,17)        =      1.091173     0.014334     0.045401     1.136575
	   19 R(10,22)        =      1.092518    -0.000375     0.042071     1.134589
	   20 R(13,18)        =      1.090553     0.017161     0.018332     1.108885
	   21 R(13,19)        =      1.090586     0.006322     0.095185     1.185771
	   22 R(13,23)        =      1.091572    -0.005900     0.053782     1.145354
	   23 B(1,2,3)        =    117.224590     0.001344     6.796625   124.021215
	   24 B(1,2,5)        =    125.337541    -0.001491    -7.293808   118.043733
	   25 B(1,10,16)      =    111.267318    -0.000289    -1.560717   109.706600
	   26 B(1,10,17)      =    111.200853     0.000076     0.994317   112.195170
	   27 B(1,10,22)      =    110.590291     0.000027     1.449509   112.039800
	   28 B(2,1,10)       =    111.480515     0.000761     2.808148   114.288663
	   29 B(2,1,11)       =    110.631838    -0.000561    -6.206500   104.425338
	   30 B(2,1,12)       =    108.046427     0.000152     4.205780   112.252207
	   31 B(2,3,4)        =    112.435223     0.000444     3.009234   115.444457
	   32 B(2,3,6)        =    110.218055     0.000033     2.316861   112.534915
	   33 B(2,3,7)        =    111.799510    -0.000263    -2.622175   109.177335
	   34 B(2,5,13)       =    112.073456     0.000707     1.373481   113.446938
	   35 B(2,5,14)       =    108.417644    -0.000222    -0.526914   107.890730
	   36 B(2,5,15)       =    108.484353    -0.000081    -2.331218   106.153134
	   37 B(3,2,5)        =    117.437785     0.000147     0.480222   117.918007
	   38 B(3,4,8)        =    114.216846     0.000154     0.964785   115.181631
	   39 B(3,4,9)        =    123.833505    -0.000262    -0.428640   123.404865
	   40 B(4,3,6)        =    108.988845    -0.000354    -2.513982   106.474863
	   41 B(4,3,7)        =    108.824965    -0.000099    -0.407744   108.417221
	   42 B(4,8,20)       =    119.983485     0.000212     1.318602   121.302088
	   43 B(4,8,21)       =    116.889310     0.000088     1.673348   118.562659
	   44 B(5,13,18)      =    110.552692     0.000094    -0.764585   109.788108
	   45 B(5,13,19)      =    111.789612    -0.000148     0.221598   112.011210
	   46 B(5,13,23)      =    110.768275    -0.000098     0.913502   111.681777
	   47 B(6,3,7)        =    104.222896     0.000210    -0.101650   104.121246
	   48 B(8,4,9)        =    121.929896     0.000108    -0.728133   121.201764
	   49 B(10,1,11)      =    110.253795    -0.000047     1.554767   111.808561
	   50 B(10,1,12)      =    111.434979    -0.000583    -2.428796   109.006183
	   51 B(11,1,12)      =    104.775579     0.000229    -0.182608   104.592971
	   52 B(13,5,14)      =    111.102948    -0.000308    -0.968561   110.134387
	   53 B(13,5,15)      =    111.322066    -0.000318     0.769492   112.091558
	   54 B(14,5,15)      =    105.151525     0.000191     1.637014   106.788540
	   55 B(16,10,17)     =    108.238729     0.000102     2.515125   110.753854
	   56 B(16,10,22)     =    108.034704     0.000090    -0.171351   107.863353
	   57 B(17,10,22)     =    107.359337     0.000006    -3.260008   104.099328
	   58 B(18,13,19)     =    107.392467     0.000038     0.722285   108.114751
	   59 B(18,13,23)     =    108.027462     0.000047    -2.333579   105.693883
	   60 B(19,13,23)     =    108.160841     0.000076     1.137416   109.298257
	   61 B(20,8,21)      =    118.114335    -0.000213    -1.006160   117.108176
	   62 *D(1,2,3,4)     =   -105.721052    -0.000000     0.000000  -105.721052
	   63 D(1,2,3,6)      =    132.462156     0.000028    -0.692486   131.769671
	   64 D(1,2,3,7)      =     17.039430     0.000000    -0.355342    16.684088
	   65 *D(1,2,5,13)    =   -104.868170    -0.000000     0.000000  -104.868170
	   66 D(1,2,5,14)     =     18.124659    -0.000018    -0.697934    17.426725
	   67 D(1,2,5,15)     =    131.814586    -0.000002    -0.214968   131.599618
	   68 D(2,1,10,16)    =     52.449976    -0.000036    -2.092054    50.357922
	   69 D(2,1,10,17)    =    173.194274    -0.000040     0.713153   173.907427
	   70 D(2,1,10,22)    =    -67.623725    -0.000023    -1.788612   -69.412337
	   71 *D(2,3,4,8)     =   -173.730581    -0.000000     0.000000  -173.730581
	   72 D(2,3,4,9)      =      7.861836     0.000007     3.647820    11.509656
	   73 D(2,5,13,18)    =   -179.222811    -0.000009    -0.380585  -179.603396
	   74 D(2,5,13,19)    =    -59.639950    -0.000006     0.159492   -59.480458
	   75 D(2,5,13,23)    =     61.063620    -0.000022     2.434946    63.498566
	   76 D(3,2,1,10)     =   -116.195050    -0.000020    -1.427398  -117.622448
	   77 D(3,2,1,11)     =      6.875890    -0.000003    -2.023193     4.852697
	   78 D(3,2,1,12)     =    121.035746     0.000012    -3.456572   117.579174
	   79 D(3,2,5,13)     =     75.240640     0.000020     1.331930    76.572570
	   80 D(3,2,5,14)     =   -161.766531     0.000002     0.633996  -161.132534
	   81 D(3,2,5,15)     =    -48.076603     0.000017     1.116962   -46.959641
	   82 *D(3,4,8,20)    =     21.009535    -0.000000     0.000000    21.009535
	   83 D(3,4,8,21)     =    175.507437     0.000035     5.255028   180.762465
	   84 D(4,3,2,5)      =     74.179127    -0.000019    -1.434388    72.744739
	   85 *D(5,2,1,10)    =     63.913552     0.000000     0.000000    63.913552
	   86 D(5,2,1,11)     =   -173.015508     0.000017    -0.595795  -173.611303
	   87 D(5,2,1,12)     =    -58.855653     0.000032    -2.029174   -60.884826
	   88 D(5,2,3,6)      =    -47.637665     0.000010    -2.126874   -49.764539
	   89 D(5,2,3,7)      =   -163.060391    -0.000018    -1.789730  -164.850122
	   90 D(6,3,4,8)      =    -51.217634     0.000021     3.169430   -48.048204
	   91 D(6,3,4,9)      =    130.374783     0.000027     6.817250   137.192033
	   92 D(7,3,4,8)      =     61.850825     0.000023     1.609009    63.459834
	   93 D(7,3,4,9)      =   -116.556758     0.000030     5.256829  -111.299929
	   94 D(9,4,8,20)     =   -160.549031    -0.000008    -3.555451  -164.104482
	   95 D(9,4,8,21)     =     -6.051129     0.000027     1.699577    -4.351551
	   96 D(11,1,10,16)   =    -70.836479     0.000014     2.837919   -67.998560
	   97 D(11,1,10,17)   =     49.907819     0.000011     5.643127    55.550945
	   98 D(11,1,10,22)   =    169.089820     0.000028     3.141362   172.231181
	   99 D(12,1,10,16)   =    173.256683     0.000037     3.603636   176.860318
	  100 D(12,1,10,17)   =    -65.999019     0.000033     6.408843   -59.590176
	  101 D(12,1,10,22)   =     53.182982     0.000050     3.907078    57.090060
	  102 D(14,5,13,18)   =     59.314779    -0.000007     0.040357    59.355136
	  103 D(14,5,13,19)   =    178.897639    -0.000004     0.580434   179.478073
	  104 D(14,5,13,23)   =    -60.398790    -0.000020     2.855888   -57.542902
	  105 D(15,5,13,18)   =    -57.517822     0.000029    -1.866389   -59.384211
	  106 D(15,5,13,19)   =     62.065038     0.000032    -1.326311    60.738727
	  107 D(15,5,13,23)   =   -177.231391     0.000016     0.949142  -176.282249
	  108 R(5,9)          =      3.231456     0.004297     0.280146     3.511602
	  109 R(10,13)        =      3.589383     0.002015     0.115953     3.705336
	 ---------------------------------------------------------------------------
	Successfully symmetrized geometry.

  ==> Convergence Check <==

  Measures of convergence in internal coordinates in au.
  Criteria marked as inactive (o), active & met (*), and active & unmet ( ).
  --------------------------------------------------------------------------------------------- ~
   Step     Total Energy     Delta E     MAX Force     RMS Force      MAX Disp      RMS Disp    ~
  --------------------------------------------------------------------------------------------- ~
    Convergence Criteria             o    2.50e-03 *    1.70e-03 *    1.00e-02 *    6.70e-03 *  ~
  --------------------------------------------------------------------------------------------- ~
      1    -421.63713389   -4.22e+02 o    1.96e-02      3.99e-03      5.29e-01      9.52e-02    ~
  ---------------------------------------------------------------------------------------------

	Writing optimization data to binary file.
	Structure for next step:
	Cartesian Geometry (in Angstrom)
	    C     1.1822486175   0.3151977680  -1.4734788970
	    N     0.5093922125   0.0335756722  -0.1356344938
	    C    -0.4627459368  -1.1595891533   0.1183042943
	    C    -2.0529968958  -0.7626626390   0.2313478191
	    C     0.7669435894   0.9646589448   0.9802425846
	    H    -0.1942582323  -1.7643767539   1.1088841180
	    H    -0.3459603626  -1.8964194099  -0.6848297826
	    N    -2.9598090755  -1.8806890920   0.6181734506
	    O    -2.5322205990   0.4271409899  -0.0958339088
	    C     2.8330697085   0.2328615990  -1.4351232440
	    H     0.7406845520  -0.4488274791  -2.1765233884
	    H     0.8587971010   1.3597146815  -1.9268265626
	    C     1.8089559569   0.3548202354   2.1237851509
	    H     1.2042020613   1.9694371382   0.5233486185
	    H    -0.2575931487   1.2213453971   1.4241195843
	    H     3.1687684832  -0.7771691406  -0.9305079759
	    H     3.2923734159   0.3384951912  -2.4693782796
	    H     1.9534883358   1.0977604476   2.9342020473
	    H     1.3989590975  -0.6459916137   2.6099250922
	    H    -2.5821088507  -2.7641086888   1.1255987671
	    H    -4.0149101094  -1.6839264559   0.6961051796
	    H     3.2882568691   1.0863209772  -0.8420770826
	    H     2.8510712997   0.1648021688   1.6882102771
			--------------------------
			 OPTKING Finished Execution 
			--------------------------

    Structure for next step:
    Molecular point group: c1
    Full point group: C1

    Geometry (in Angstrom), charge = 0, multiplicity = 1:

    C            1.293382091300     0.487775147143    -1.587762122288
    N            0.620525683585     0.206153050190    -0.249917713891
    C           -0.351612469495    -0.987011779936     0.004021075239
    C           -1.941863434754    -0.590085264125     0.117064600426
    C            0.878077061572     1.137236326501     0.865959368924
    H           -0.083124763908    -1.591799382993     0.994600902798
    H           -0.234826894821    -1.723842039492    -0.799113004848
    N           -2.848675618025    -1.708111721539     0.503890233480
    O           -2.421087139875     0.599718369416    -0.210117128724
    C            2.944203188795     0.405438977847    -1.549406469155
    H            0.851818023990    -0.276250102973    -2.290806616541
    H            0.969930573491     1.532292064728    -2.041109789730
    C            1.920089433166     0.527397614646     2.009501939693
    H            1.315335535208     2.142014523778     0.409065401025
    H           -0.146459680570     1.393922779815     1.309836370356
    H            3.279901964736    -0.604591765753    -1.044791199077
    H            3.403506897979     0.511072570370    -2.583661508806
    H            2.064621812566     1.270337829784     2.819918839334
    H            1.510092572143    -0.473414238398     2.495641882914
    H           -2.470975391680    -2.591531321800     1.011315551959
    H           -3.903776656022    -1.511349084625     0.581821962813
    H            3.399390351118     1.258898359311    -0.956360305459
    H            2.962204780066     0.337379547325     1.573927064201


Scratch directory: /scratch/bdw2292/Psi4-4_27_Index_0-farH_in17/

Scratch directory: /scratch/bdw2292/Psi4-4_27_Index_0-farH_in17/
gradient() will perform analytic gradient computation.

*** tstart() called on node74.bme.utexas.edu
*** at Wed Jun  8 11:56:04 2022

   => Loading Basis Set <=

    Name: 6-311G
    Role: ORBITAL
    Keyword: BASIS
    atoms 1, 3-5, 10, 13    entry C          line    92 file /home/bdw2292/miniconda3/envs/newamoebamdpoltype/share/psi4/basis/6-311g.gbs 
    atoms 2, 8              entry N          line   109 file /home/bdw2292/miniconda3/envs/newamoebamdpoltype/share/psi4/basis/6-311g.gbs 
    atoms 6-7, 11-12, 14-23 entry H          line    21 file /home/bdw2292/miniconda3/envs/newamoebamdpoltype/share/psi4/basis/6-311g.gbs 
    atoms 9                 entry O          line   126 file /home/bdw2292/miniconda3/envs/newamoebamdpoltype/share/psi4/basis/6-311g.gbs 

   => WB97X-D: Empirical Dispersion <=

    Chai and Head-Gordon Dispersion Correction
    Chai, J.-D.; Head-Gordon, M. (2010), J. Chem. Phys., 132: 6615-6620

        s6 =       1.000000


         ---------------------------------------------------------
                                   SCF
               by Justin Turney, Rob Parrish, Andy Simmonett
                          and Daniel G. A. Smith
                              RKS Reference
                        2 Threads,   7788 MiB Core
         ---------------------------------------------------------

  ==> Geometry <==

    Molecular point group: c1
    Full point group: C1

    Geometry (in Angstrom), charge = 0, multiplicity = 1:

       Center              X                  Y                   Z               Mass       
    ------------   -----------------  -----------------  -----------------  -----------------
         C            1.293382091300     0.487775147143    -1.587762122288    12.000000000000
         N            0.620525683585     0.206153050190    -0.249917713891    14.003074004430
         C           -0.351612469495    -0.987011779936     0.004021075239    12.000000000000
         C           -1.941863434754    -0.590085264125     0.117064600426    12.000000000000
         C            0.878077061572     1.137236326501     0.865959368924    12.000000000000
         H           -0.083124763908    -1.591799382993     0.994600902798     1.007825032230
         H           -0.234826894821    -1.723842039492    -0.799113004848     1.007825032230
         N           -2.848675618025    -1.708111721539     0.503890233480    14.003074004430
         O           -2.421087139875     0.599718369416    -0.210117128724    15.994914619570
         C            2.944203188795     0.405438977847    -1.549406469155    12.000000000000
         H            0.851818023990    -0.276250102973    -2.290806616541     1.007825032230
         H            0.969930573491     1.532292064728    -2.041109789730     1.007825032230
         C            1.920089433166     0.527397614646     2.009501939693    12.000000000000
         H            1.315335535208     2.142014523778     0.409065401025     1.007825032230
         H           -0.146459680570     1.393922779815     1.309836370356     1.007825032230
         H            3.279901964736    -0.604591765753    -1.044791199077     1.007825032230
         H            3.403506897979     0.511072570370    -2.583661508806     1.007825032230
         H            2.064621812566     1.270337829784     2.819918839334     1.007825032230
         H            1.510092572143    -0.473414238398     2.495641882914     1.007825032230
         H           -2.470975391680    -2.591531321800     1.011315551959     1.007825032230
         H           -3.903776656022    -1.511349084625     0.581821962813     1.007825032230
         H            3.399390351118     1.258898359311    -0.956360305459     1.007825032230
         H            2.962204780066     0.337379547325     1.573927064201     1.007825032230

  Running in c1 symmetry.

  Rotational constants: A =      0.07378  B =      0.02665  C =      0.02358 [cm^-1]
  Rotational constants: A =   2211.74972  B =    798.83753  C =    706.81778 [MHz]
  Nuclear repulsion =  452.827254461808536

  Charge       = 0
  Multiplicity = 1
  Electrons    = 72
  Nalpha       = 36
  Nbeta        = 36

  ==> Algorithm <==

  SCF Algorithm Type is DF.
  DIIS enabled.
  MOM disabled.
  Fractional occupation disabled.
  Guess Type is READ.
  Energy threshold   = 1.00e-08
  Density threshold  = 1.00e-08
  Integral threshold = 1.00e-12

  ==> Primary Basis <==

  Basis Set: 6-311G
    Blend: 6-311G
    Number of shells: 105
    Number of basis functions: 159
    Number of Cartesian functions: 159
    Spherical Harmonics?: true
    Max angular momentum: 1

  ==> DFT Potential <==

   => LibXC <=

    Version 5.1.5
    S. Lehtola, C. Steigemann, M. J. Oliveira, and M. A. Marques, SoftwareX 7, 1 (2018) (10.1016/j.softx.2017.11.002)

   => Composite Functional: WB97X-D <= 

    wB97X-D Hyb-GGA Exchange-Correlation Functional

    J.-D. Chai and M. Head-Gordon, Phys. Chem. Chem. Phys. 10, 6615 (2008) (10.1039/B810189B)

    Deriv               =              1
    GGA                 =           TRUE
    Meta                =          FALSE

    Exchange Hybrid     =           TRUE
    MP2 Hybrid          =          FALSE

   => Exchange-Correlation Functionals <=

    1.0000   wB97X-D range-separated functional

   => Exact (HF) Exchange <=

    0.7780            HF,LR [omega = 0.2000]
    0.2220               HF 

   => LibXC Density Thresholds  <==

    XC_HYB_GGA_XC_WB97X_D:  1.00E-14 

   => Molecular Quadrature <=

    Radial Scheme          =       TREUTLER
    Pruning Scheme         =           NONE
    Nuclear Scheme         =       TREUTLER

    BS radius alpha        =              1
    Pruning alpha          =              1
    Radial Points          =             75
    Spherical Points       =            302
    Total Points           =         484588
    Total Blocks           =           3528
    Max Points             =            256
    Max Functions          =            134
    Weights Tolerance      =       1.00E-15

   => Loading Basis Set <=

    Name: (6-311G AUX)
    Role: JKFIT
    Keyword: DF_BASIS_SCF
    atoms 1, 3-5, 10, 13    entry C          line   125 file /home/bdw2292/miniconda3/envs/newamoebamdpoltype/share/psi4/basis/cc-pvtz-jkfit.gbs 
    atoms 2, 8              entry N          line   177 file /home/bdw2292/miniconda3/envs/newamoebamdpoltype/share/psi4/basis/cc-pvtz-jkfit.gbs 
    atoms 6-7, 11-12, 14-23 entry H          line    51 file /home/bdw2292/miniconda3/envs/newamoebamdpoltype/share/psi4/basis/cc-pvtz-jkfit.gbs 
    atoms 9                 entry O          line   229 file /home/bdw2292/miniconda3/envs/newamoebamdpoltype/share/psi4/basis/cc-pvtz-jkfit.gbs 

   => Loading Basis Set <=

    Name: 6-311G
    Role: ORBITAL
    Keyword: BASIS
    atoms 1, 3-5, 10, 13    entry C          line    92 file /home/bdw2292/miniconda3/envs/newamoebamdpoltype/share/psi4/basis/6-311g.gbs 
    atoms 2, 8              entry N          line   109 file /home/bdw2292/miniconda3/envs/newamoebamdpoltype/share/psi4/basis/6-311g.gbs 
    atoms 6-7, 11-12, 14-23 entry H          line    21 file /home/bdw2292/miniconda3/envs/newamoebamdpoltype/share/psi4/basis/6-311g.gbs 
    atoms 9                 entry O          line   126 file /home/bdw2292/miniconda3/envs/newamoebamdpoltype/share/psi4/basis/6-311g.gbs 

  Reading orbitals from file /scratch/bdw2292/Psi4-4_27_Index_0-farH_in17/4_27_Index_0-opt-1_2-3-254.default.1100389.180.npy, no projection.

  ==> Integral Setup <==

  DFHelper Memory: AOs need 0.574 GiB; user supplied 4.349 GiB. Using in-core AOs.

  ==> MemDFJK: Density-Fitted J/K Matrices <==

    J tasked:                   Yes
    K tasked:                   Yes
    wK tasked:                  Yes
    Omega:                2.000E-01
    OpenMP threads:               2
    Memory [MiB]:              4453
    Algorithm:                 Core
    Schwarz Cutoff:           1E-12
    Mask sparsity (%):      12.4916
    Fitting Condition:        1E-10

   => Auxiliary Basis Set <=

  Basis Set: (6-311G AUX)
    Blend: CC-PVTZ-JKFIT
    Number of shells: 365
    Number of basis functions: 1131
    Number of Cartesian functions: 1354
    Spherical Harmonics?: true
    Max angular momentum: 4

  Cached 100.0% of DFT collocation blocks in 1.355 [GiB].

  Minimum eigenvalue in the overlap matrix is 3.8029282037E-03.
  Reciprocal condition number of the overlap matrix is 5.7041733335E-04.
    Using symmetric orthogonalization.

  ==> Pre-Iterations <==

  SCF Guess: Orbitals guess was supplied from a previous computation.

   -------------------------------------------------------
    Irrep   Nso     Nmo     Nalpha   Nbeta   Ndocc  Nsocc
   -------------------------------------------------------
     A        159     159      36      36      36       0
   -------------------------------------------------------
    Total     159     159      36      36      36       0
   -------------------------------------------------------

  ==> Iterations <==

                           Total Energy        Delta E     RMS |[F,P]|

   @DF-RKS iter   0:  -420.46284612665642   -4.20463e+02   7.33250e-03 
   @DF-RKS iter   1:  -421.47775336322030   -1.01491e+00   1.88860e-03 DIIS
   @DF-RKS iter   2:  -421.51324716263144   -3.54938e-02   1.61307e-03 DIIS
   @DF-RKS iter   3:  -421.54285723615317   -2.96101e-02   5.78206e-04 DIIS
   @DF-RKS iter   4:  -421.54575927249476   -2.90204e-03   2.16212e-04 DIIS
   @DF-RKS iter   5:  -421.54633356910909   -5.74297e-04   6.78146e-05 DIIS
   @DF-RKS iter   6:  -421.54638907669101   -5.55076e-05   1.81975e-05 DIIS
   @DF-RKS iter   7:  -421.54639633844721   -7.26176e-06   5.08795e-06 DIIS
   @DF-RKS iter   8:  -421.54639735655297   -1.01811e-06   2.39127e-06 DIIS
   @DF-RKS iter   9:  -421.54639771839021   -3.61837e-07   6.68177e-07 DIIS
   @DF-RKS iter  10:  -421.54639776522447   -4.68343e-08   2.39001e-07 DIIS
   @DF-RKS iter  11:  -421.54639776858812   -3.36365e-09   1.17608e-07 DIIS
   @DF-RKS iter  12:  -421.54639776896624   -3.78122e-10   2.71048e-08 DIIS
   @DF-RKS iter  13:  -421.54639776899063   -2.43858e-11   1.67687e-08 DIIS
   @DF-RKS iter  14:  -421.54639776899415   -3.52429e-12   3.69427e-09 DIIS
  Energy and wave function converged.


  ==> Post-Iterations <==

   Electrons on quadrature grid:
      Ntotal   =   71.9999817335 ; deviation = -1.827e-05 

    Orbital Energies [Eh]
    ---------------------

    Doubly Occupied:                                                      

       1A    -19.229291     2A    -14.474677     3A    -14.432815  
       4A    -10.429456     5A    -10.364145     6A    -10.338540  
       7A    -10.329312     8A    -10.296456     9A    -10.290816  
      10A     -1.102628    11A     -0.986056    12A     -0.973042  
      13A     -0.831897    14A     -0.825398    15A     -0.775391  
      16A     -0.718163    17A     -0.680668    18A     -0.639281  
      19A     -0.600128    20A     -0.564225    21A     -0.547293  
      22A     -0.540484    23A     -0.508331    24A     -0.493868  
      25A     -0.484380    26A     -0.480149    27A     -0.465011  
      28A     -0.456631    29A     -0.448490    30A     -0.438048  
      31A     -0.426306    32A     -0.420137    33A     -0.408979  
      34A     -0.348718    35A     -0.338728    36A     -0.271949  

    Virtual:                                                              

      37A      0.054739    38A      0.086034    39A      0.110399  
      40A      0.132072    41A      0.139515    42A      0.151408  
      43A      0.157966    44A      0.160480    45A      0.172500  
      46A      0.184460    47A      0.186942    48A      0.200764  
      49A      0.203463    50A      0.219495    51A      0.225899  
      52A      0.227811    53A      0.230230    54A      0.254293  
      55A      0.274738    56A      0.304210    57A      0.325389  
      58A      0.332148    59A      0.357790    60A      0.369365  
      61A      0.381083    62A      0.394369    63A      0.412633  
      64A      0.424885    65A      0.436473    66A      0.439340  
      67A      0.457844    68A      0.493632    69A      0.504402  
      70A      0.514701    71A      0.521390    72A      0.535914  
      73A      0.548476    74A      0.565023    75A      0.580561  
      76A      0.587546    77A      0.600061    78A      0.616950  
      79A      0.631467    80A      0.638917    81A      0.647666  
      82A      0.654132    83A      0.661694    84A      0.669355  
      85A      0.674060    86A      0.688999    87A      0.692204  
      88A      0.695309    89A      0.719763    90A      0.736273  
      91A      0.750975    92A      0.772095    93A      0.799140  
      94A      0.808135    95A      0.865243    96A      0.897328  
      97A      0.922439    98A      0.983729    99A      1.013126  
     100A      1.034879   101A      1.063713   102A      1.079641  
     103A      1.108922   104A      1.127902   105A      1.164574  
     106A      1.223912   107A      1.310576   108A      1.420425  
     109A      1.674935   110A      2.240349   111A      2.315924  
     112A      2.323991   113A      2.331715   114A      2.352132  
     115A      2.355122   116A      2.360496   117A      2.363345  
     118A      2.381855   119A      2.391252   120A      2.396034  
     121A      2.410882   122A      2.429198   123A      2.434940  
     124A      2.666785   125A      2.762631   126A      2.797902  
     127A      2.808678   128A      2.861279   129A      2.920154  
     130A      2.946599   131A      2.982493   132A      2.997456  
     133A      3.003179   134A      3.021298   135A      3.047133  
     136A      3.068967   137A      3.079721   138A      3.095231  
     139A      3.122570   140A      3.206989   141A      3.259586  
     142A      3.770175   143A      3.994897   144A      4.026487  
     145A      4.076470   146A      4.141646   147A      4.189855  
     148A      4.970704   149A      5.003039   150A      5.035411  
     151A     23.362996   152A     23.431297   153A     23.501609  
     154A     23.539404   155A     23.581705   156A     23.638101  
     157A     35.407939   158A     35.516071   159A     50.012868  

    Final Occupation by Irrep:
              A 
    DOCC [    36 ]

  @DF-RKS Final Energy:  -421.54639776899415

   => Energetics <=

    Nuclear Repulsion Energy =            452.8272544618085362
    One-Electron Energy =               -1469.1823006886843359
    Two-Electron Energy =                 635.6134039539522291
    DFT Exchange-Correlation Energy =     -40.7906150953952960
    Empirical Dispersion Energy =          -0.0141404006751528
    VV10 Nonlocal Energy =                  0.0000000000000000
    Total Energy =                       -421.5463977689940975

Computation Completed


Properties will be evaluated at   0.000000,   0.000000,   0.000000 [a0]

Properties computed using the SCF density matrix

  Nuclear Dipole Moment: [e a0]
     X:    12.1047      Y:    -0.2992      Z:     1.3860

  Electronic Dipole Moment: [e a0]
     X:   -11.7734      Y:    -1.0693      Z:    -0.9225

  Dipole Moment: [e a0]
     X:     0.3313      Y:    -1.3685      Z:     0.4635     Total:     1.4824

  Dipole Moment: [D]
     X:     0.8422      Y:    -3.4783      Z:     1.1782     Total:     3.7678


*** tstop() called on node74.bme.utexas.edu at Wed Jun  8 11:56:37 2022
Module time:
	user time   =      62.33 seconds =       1.04 minutes
	system time =       1.98 seconds =       0.03 minutes
	total time  =         33 seconds =       0.55 minutes
Total time:
	user time   =     153.22 seconds =       2.55 minutes
	system time =       5.04 seconds =       0.08 minutes
	total time  =         81 seconds =       1.35 minutes

*** tstart() called on node74.bme.utexas.edu
*** at Wed Jun  8 11:56:37 2022


         ------------------------------------------------------------
                                   SCF GRAD                          
                          Rob Parrish, Justin Turney,                
                       Andy Simmonett, and Alex Sokolov              
         ------------------------------------------------------------

  ==> Geometry <==

    Molecular point group: c1
    Full point group: C1

    Geometry (in Angstrom), charge = 0, multiplicity = 1:

       Center              X                  Y                   Z               Mass       
    ------------   -----------------  -----------------  -----------------  -----------------
         C            1.293382091300     0.487775147143    -1.587762122288    12.000000000000
         N            0.620525683585     0.206153050190    -0.249917713891    14.003074004430
         C           -0.351612469495    -0.987011779936     0.004021075239    12.000000000000
         C           -1.941863434754    -0.590085264125     0.117064600426    12.000000000000
         C            0.878077061572     1.137236326501     0.865959368924    12.000000000000
         H           -0.083124763908    -1.591799382993     0.994600902798     1.007825032230
         H           -0.234826894821    -1.723842039492    -0.799113004848     1.007825032230
         N           -2.848675618025    -1.708111721539     0.503890233480    14.003074004430
         O           -2.421087139875     0.599718369416    -0.210117128724    15.994914619570
         C            2.944203188795     0.405438977847    -1.549406469155    12.000000000000
         H            0.851818023990    -0.276250102973    -2.290806616541     1.007825032230
         H            0.969930573491     1.532292064728    -2.041109789730     1.007825032230
         C            1.920089433166     0.527397614646     2.009501939693    12.000000000000
         H            1.315335535208     2.142014523778     0.409065401025     1.007825032230
         H           -0.146459680570     1.393922779815     1.309836370356     1.007825032230
         H            3.279901964736    -0.604591765753    -1.044791199077     1.007825032230
         H            3.403506897979     0.511072570370    -2.583661508806     1.007825032230
         H            2.064621812566     1.270337829784     2.819918839334     1.007825032230
         H            1.510092572143    -0.473414238398     2.495641882914     1.007825032230
         H           -2.470975391680    -2.591531321800     1.011315551959     1.007825032230
         H           -3.903776656022    -1.511349084625     0.581821962813     1.007825032230
         H            3.399390351118     1.258898359311    -0.956360305459     1.007825032230
         H            2.962204780066     0.337379547325     1.573927064201     1.007825032230

  Nuclear repulsion =  452.827254461808536

  ==> Basis Set <==

  Basis Set: 6-311G
    Blend: 6-311G
    Number of shells: 105
    Number of basis functions: 159
    Number of Cartesian functions: 159
    Spherical Harmonics?: true
    Max angular momentum: 1

  ==> DFJKGrad: Density-Fitted SCF Gradients <==

    Gradient:                    1
    J tasked:                  Yes
    K tasked:                  Yes
    wK tasked:                 Yes
    Omega:               2.000E-01
    OpenMP threads:              2
    Integrals threads:           2
    Memory [MiB]:             5841
    Schwarz Cutoff:          1E-12
    Fitting Condition:       1E-10

   => Auxiliary Basis Set <=

  Basis Set: (6-311G AUX)
    Blend: CC-PVTZ-JKFIT
    Number of shells: 365
    Number of basis functions: 1131
    Number of Cartesian functions: 1354
    Spherical Harmonics?: true
    Max angular momentum: 4

  ==> DFT Potential <==

   => LibXC <=

    Version 5.1.5
    S. Lehtola, C. Steigemann, M. J. Oliveira, and M. A. Marques, SoftwareX 7, 1 (2018) (10.1016/j.softx.2017.11.002)

   => Composite Functional: WB97X-D <= 

    wB97X-D Hyb-GGA Exchange-Correlation Functional

    J.-D. Chai and M. Head-Gordon, Phys. Chem. Chem. Phys. 10, 6615 (2008) (10.1039/B810189B)

    Deriv               =              1
    GGA                 =           TRUE
    Meta                =          FALSE

    Exchange Hybrid     =           TRUE
    MP2 Hybrid          =          FALSE

   => Exchange-Correlation Functionals <=

    1.0000   wB97X-D range-separated functional

   => Exact (HF) Exchange <=

    0.7780            HF,LR [omega = 0.2000]
    0.2220               HF 

   => LibXC Density Thresholds  <==

    XC_HYB_GGA_XC_WB97X_D:  1.00E-14 

   => Molecular Quadrature <=

    Radial Scheme          =       TREUTLER
    Pruning Scheme         =           NONE
    Nuclear Scheme         =       TREUTLER

    BS radius alpha        =              1
    Pruning alpha          =              1
    Radial Points          =             75
    Spherical Points       =            302
    Total Points           =         484588
    Total Blocks           =           3528
    Max Points             =            256
    Max Functions          =            134
    Weights Tolerance      =       1.00E-15


  -Total Gradient:
     Atom            X                  Y                   Z
    ------   -----------------  -----------------  -----------------
       1        0.003491978604    -0.001344634766    -0.000174576080
       2        0.009665544117     0.022822600302     0.004088919003
       3       -0.009880976722    -0.025014802710    -0.024316013184
       4        0.039104563312    -0.030704531802     0.015775373908
       5       -0.007669281144    -0.007555821061    -0.007246381872
       6        0.007024927381    -0.029445042418     0.035269616382
       7        0.002440249276    -0.006514244469     0.000981208071
       8       -0.020028790321    -0.019541188313    -0.011807242934
       9       -0.036757545033     0.096273827562    -0.027773546935
      10        0.010555534536     0.011724924525    -0.010090249937
      11       -0.015426179855    -0.013058893953    -0.010576145344
      12       -0.011924694472     0.035794718929    -0.022550839725
      13        0.012969320725     0.009812524808     0.012395079428
      14        0.015531207564     0.040584184266    -0.020043510995
      15       -0.029915465007     0.003931011179     0.003264898553
      16        0.013336536526    -0.037722911395     0.021311128151
      17        0.015076786814     0.007706205811    -0.020547033958
      18        0.005257540875     0.006874489882     0.006030639875
      19       -0.015174320508    -0.039593852774     0.022072787030
      20        0.018197754715    -0.047910659589     0.028532248296
      21       -0.052211225849     0.005740284661     0.004045195208
      22        0.015165239610     0.018563257485     0.007843996937
      23        0.030872321837    -0.001656174486    -0.006203091862


*** tstop() called on node74.bme.utexas.edu at Wed Jun  8 11:56:50 2022
Module time:
	user time   =      25.55 seconds =       0.43 minutes
	system time =       0.17 seconds =       0.00 minutes
	total time  =         13 seconds =       0.22 minutes
Total time:
	user time   =     178.77 seconds =       2.98 minutes
	system time =       5.21 seconds =       0.09 minutes
	total time  =         94 seconds =       1.57 minutes

			-----------------------------------------
			 OPTKING 2.0: for geometry optimizations 
			  - R.A. King,  Bethel University        
			-----------------------------------------
	At level 1: Red. Int., RFO, no backsteps, dynamic trust

	Previous internal coordinate definitions found.
	---Fragment 1 Geometry and Gradient---
	 C           2.4441379281        0.9217614389       -3.0004355635
	 N           1.1726235958        0.3895728048       -0.4722760332
	 C          -0.6644512696       -1.8651819467        0.0075987309
	 C          -3.6695900647       -1.1150995399        0.2212200338
	 C           1.6593251634        2.1490651970        1.6364260430
	 H          -0.1570830380       -3.0080648805        1.8795233104
	 H          -0.4437585181       -3.2575893382       -1.5101047225
	 N          -5.3832167383       -3.2278633454        0.9522145386
	 O          -4.5751916202        1.1333034706       -0.3970638276
	 C           5.5637376845        0.7661686287       -2.9279538837
	 H           1.6097027741       -0.5220370367       -4.3289971116
	 H           1.8329031446        2.8956123465       -3.8571384946
	 C           3.6284431651        0.9966370509        3.7974083146
	 H           2.4856239246        4.0478208067        0.7730215753
	 H          -0.2767686847        2.6341322939        2.4752320091
	 H           6.1981164317       -1.1425128550       -1.9743692245
	 H           6.4316959033        0.9657871882       -4.8824126525
	 H           3.9015697784        2.4005905851        5.3288743024
	 H           2.8536613854       -0.8946232545        4.7160796659
	 H          -4.6694667530       -4.8972844437        1.9111094196
	 H          -7.3770687348       -2.8560358499        1.0994841635
	 H           6.4239167571        2.3789731189       -1.8072590546
	 H           5.5977557618        0.6375549448        2.9742910928
	             0.0034919786       -0.0013446348       -0.0001745761
	             0.0096655441        0.0228226003        0.0040889190
	            -0.0098809767       -0.0250148027       -0.0243160132
	             0.0391045633       -0.0307045318        0.0157753739
	            -0.0076692811       -0.0075558211       -0.0072463819
	             0.0070249274       -0.0294450424        0.0352696164
	             0.0024402493       -0.0065142445        0.0009812081
	            -0.0200287903       -0.0195411883       -0.0118072429
	            -0.0367575450        0.0962738276       -0.0277735469
	             0.0105555345        0.0117249245       -0.0100902499
	            -0.0154261799       -0.0130588940       -0.0105761453
	            -0.0119246945        0.0357947189       -0.0225508397
	             0.0129693207        0.0098125248        0.0123950794
	             0.0155312076        0.0405841843       -0.0200435110
	            -0.0299154650        0.0039310112        0.0032648986
	             0.0133365365       -0.0377229114        0.0213111282
	             0.0150767868        0.0077062058       -0.0205470340
	             0.0052575409        0.0068744899        0.0060306399
	            -0.0151743205       -0.0395938528        0.0220727870
	             0.0181977547       -0.0479106596        0.0285322483
	            -0.0522112258        0.0057402847        0.0040451952
	             0.0151652396        0.0185632575        0.0078439969
	             0.0308723218       -0.0016561745       -0.0062030919

	---Fragment 1 Intrafragment Coordinates---
	 - Coordinate -           - BOHR/RAD -       - ANG/DEG -
	 R(1,2)           =         2.879508	       1.523770
	 R(1,10)          =         3.124318	       1.653318
	 R(1,11)          =         2.132114	       1.128266
	 R(1,12)          =         2.236881	       1.183706
	 R(2,3)           =         2.947718	       1.559865
	 R(2,5)           =         2.789143	       1.475951
	 R(3,4)           =         3.104693	       1.642933
	 R(3,6)           =         2.251156	       1.191261
	 R(3,7)           =         2.071455	       1.096167
	 R(4,8)           =         2.816849	       1.490612
	 R(4,9)           =         2.501541	       1.323758
	 R(5,13)          =         3.142509	       1.662944
	 R(5,14)          =         2.243548	       1.187235
	 R(5,15)          =         2.165028	       1.145683
	 R(8,20)          =         2.053262	       1.086540
	 R(8,21)          =         2.033566	       1.076117
	 R(10,16)         =         2.225944	       1.177919
	 R(10,17)         =         2.147815	       1.136575
	 R(10,22)         =         2.144062	       1.134589
	 R(13,18)         =         2.095488	       1.108885
	 R(13,19)         =         2.240783	       1.185771
	 R(13,23)         =         2.164406	       1.145354
	 B(1,2,3)         =         2.164579	     124.021215
	 B(1,2,5)         =         2.060252	     118.043733
	 B(1,10,16)       =         1.914741	     109.706600
	 B(1,10,17)       =         1.958175	     112.195170
	 B(1,10,22)       =         1.955463	     112.039800
	 B(2,1,10)        =         1.994713	     114.288663
	 B(2,1,11)        =         1.822566	     104.425338
	 B(2,1,12)        =         1.959171	     112.252207
	 B(2,3,4)         =         2.014886	     115.444457
	 B(2,3,6)         =         1.964105	     112.534915
	 B(2,3,7)         =         1.905504	     109.177335
	 B(2,5,13)        =         1.980023	     113.446938
	 B(2,5,14)        =         1.883048	     107.890730
	 B(2,5,15)        =         1.852722	     106.153134
	 B(3,2,5)         =         2.058057	     117.918007
	 B(3,4,8)         =         2.010299	     115.181631
	 B(3,4,9)         =         2.153821	     123.404865
	 B(4,3,6)         =         1.858337	     106.474863
	 B(4,3,7)         =         1.892237	     108.417221
	 B(4,8,20)        =         2.117121	     121.302088
	 B(4,8,21)        =         2.069309	     118.562659
	 B(5,13,18)       =         1.916164	     109.788108
	 B(5,13,19)       =         1.954964	     112.011210
	 B(5,13,23)       =         1.949215	     111.681777
	 B(6,3,7)         =         1.817259	     104.121246
	 B(8,4,9)         =         2.115370	     121.201764
	 B(10,1,11)       =         1.951428	     111.808561
	 B(10,1,12)       =         1.902517	     109.006183
	 B(11,1,12)       =         1.825492	     104.592971
	 B(13,5,14)       =         1.922208	     110.134387
	 B(13,5,15)       =         1.956367	     112.091558
	 B(14,5,15)       =         1.863812	     106.788540
	 B(16,10,17)      =         1.933019	     110.753854
	 B(16,10,22)      =         1.882571	     107.863353
	 B(17,10,22)      =         1.816876	     104.099328
	 B(18,13,19)      =         1.886958	     108.114751
	 B(18,13,23)      =         1.844706	     105.693883
	 B(19,13,23)      =         1.907614	     109.298257
	 B(20,8,21)       =         2.043923	     117.108176
	*D(1,2,3,4)       =        -1.845180	    -105.721052
	 D(1,2,3,6)       =         2.299815	     131.769671
	 D(1,2,3,7)       =         0.291192	      16.684088
	*D(1,2,5,13)      =        -1.830295	    -104.868170
	 D(1,2,5,14)      =         0.304154	      17.426725
	 D(1,2,5,15)      =         2.296847	     131.599618
	 D(2,1,10,16)     =         0.878912	      50.357922
	 D(2,1,10,17)     =         3.035257	     173.907427
	 D(2,1,10,22)     =        -1.211474	     -69.412337
	*D(2,3,4,8)       =        -3.032171	    -173.730581
	 D(2,3,4,9)       =         0.200881	      11.509656
[...]
	 B(2,1,10)        =         1.985557	     113.764040
	 B(2,1,11)        =         1.882486	     107.858478
	 B(2,1,12)        =         1.925847	     110.342911
	 B(2,3,4)         =         1.994126	     114.255008
	 B(2,3,6)         =         1.948317	     111.630365
	 B(2,3,7)         =         1.915145	     109.729703
	 B(2,5,13)        =         1.987099	     113.852409
	 B(2,5,14)        =         1.884333	     107.964329
	 B(2,5,15)        =         1.910141	     109.443016
	 B(3,2,5)         =         2.068995	     118.544688
	 B(3,4,8)         =         2.001432	     114.673613
	 B(3,4,9)         =         2.150857	     123.235053
	 B(4,3,6)         =         1.882053	     107.833720
	 B(4,3,7)         =         1.869741	     107.128291
	 B(4,8,20)        =         2.127946	     121.922349
	 B(4,8,21)        =         2.053963	     117.683429
	 B(5,13,18)       =         1.935160	     110.876528
	 B(5,13,19)       =         1.935843	     110.915623
	 B(5,13,23)       =         1.934588	     110.843734
	 B(6,3,7)         =         1.847092	     105.830592
	 B(8,4,9)         =         2.127905	     121.919991
	 B(10,1,11)       =         1.909288	     109.394151
	 B(10,1,12)       =         1.903112	     109.040265
	 B(11,1,12)       =         1.852766	     106.155695
	 B(13,5,14)       =         1.914283	     109.680361
	 B(13,5,15)       =         1.918329	     109.912160
	 B(14,5,15)       =         1.843917	     105.648670
	 B(16,10,17)      =         1.897792	     108.735461
	 B(16,10,22)      =         1.885992	     108.059362
	 B(17,10,22)      =         1.880391	     107.738441
	 B(18,13,19)      =         1.880290	     107.732675
	 B(18,13,23)      =         1.895338	     108.594895
	 B(19,13,23)      =         1.880676	     107.754794
	 B(20,8,21)       =         2.056908	     117.852167
	*D(1,2,3,4)       =        -1.845180	    -105.721052
	 D(1,2,3,6)       =         2.296743	     131.593677
	 D(1,2,3,7)       =         0.254725	      14.594677
	*D(1,2,5,13)      =        -1.830295	    -104.868170
	 D(1,2,5,14)      =         0.299634	      17.167777
	 D(1,2,5,15)      =         2.298554	     131.697430
	 D(2,1,10,16)     =         1.017121	      58.276769
	 D(2,1,10,17)     =         3.120624	     178.798586
	 D(2,1,10,22)     =        -1.075518	     -61.622668
	*D(2,3,4,8)       =        -3.032171	    -173.730581
	 D(2,3,4,9)       =         0.191133	      10.951111
	 D(2,5,13,18)     =        -3.109976	    -178.188519
	 D(2,5,13,19)     =        -1.021655	     -58.536546
	 D(2,5,13,23)     =         1.066774	      61.121662
	 D(3,2,1,10)      =        -2.150215	    -123.198227
	 D(3,2,1,11)      =        -0.028985	      -1.660699
	 D(3,2,1,12)      =         1.987675	     113.885364
	 D(3,2,5,13)      =         1.431637	      82.026770
	 D(3,2,5,14)      =        -2.721619	    -155.937283
	 D(3,2,5,15)      =        -0.722699	     -41.407630
	*D(3,4,8,20)      =         0.366686	      21.009535
	 D(3,4,8,21)      =        -3.097435	    -177.469964
	 D(4,3,2,5)       =         1.173425	      67.232273
	*D(5,2,1,10)      =         1.115502	      63.913552
	 D(5,2,1,11)      =        -3.046453	    -174.548920
	 D(5,2,1,12)      =        -1.029794	     -59.002857
	 D(5,2,3,6)       =        -0.967837	     -55.452998
	 D(5,2,3,7)       =        -3.009855	    -172.451997
	 D(6,3,4,8)       =        -0.855270	     -49.003342
	 D(6,3,4,9)       =         2.368034	     135.678351
	 D(7,3,4,8)       =         1.125963	      64.512916
	 D(7,3,4,9)       =        -1.933919	    -110.805392
	 D(9,4,8,20)      =        -2.855426	    -163.603844
	 D(9,4,8,21)      =        -0.036361	      -2.083343
	 D(11,1,10,16)    =        -1.089138	     -62.402987
	 D(11,1,10,17)    =         1.014365	      58.118830
	 D(11,1,10,22)    =         3.101408	     177.697576
	 D(12,1,10,16)    =        -3.108367	    -178.096315
	 D(12,1,10,17)    =        -1.004865	     -57.574498
	 D(12,1,10,22)    =         1.082178	      62.004248
	 D(14,5,13,18)    =         1.059901	      60.727873
	 D(14,5,13,19)    =        -3.134963	    -179.620154
	 D(14,5,13,23)    =        -1.046533	     -59.961945
	 D(15,5,13,18)    =        -0.960096	     -55.009461
	 D(15,5,13,19)    =         1.128225	      64.642511
	 D(15,5,13,23)    =        -3.066531	    -175.699280
	 R(5,9)           =         6.004564	       3.177479
	 R(10,13)         =         6.713716	       3.552745

	Current energy   :      -421.6419457633

	Energy change for the previous step:
		Projected    :         0.0000946183
		Actual       :        -0.0000201975

	Performing BFGS update.
	Previous computed or guess Hessian on step 1.
	Steps to be used in Hessian update: 7 6
	Taking RFO optimization step.
	Going to follow RFO solution 1.
	Using RFO vector 1.
	Norm of target step-size    0.01453
	Projected energy change by RFO approximation:        -0.0000002512

	Back-transformation to cartesian coordinates...
	Successfully converged to displaced geometry.

	Back-transformation to cartesian coordinates to adjust frozen coordinates...
	Successfully converged to displaced geometry.

	--- Internal Coordinate Step in ANG or DEG, aJ/ANG or AJ/DEG ---
	 ---------------------------------------------------------------------------
	   Coordinate                Previous        Force       Change         New 
	   ----------                --------       ------       ------       ------
	    1 R(1,2)          =      1.452393     0.000924     0.000224     1.452617
	    2 R(1,10)         =      1.531905    -0.002113    -0.000450     1.531454
	    3 R(1,11)         =      1.092443    -0.001477    -0.000270     1.092174
	    4 R(1,12)         =      1.099588    -0.000521    -0.000077     1.099511
	    5 R(2,3)          =      1.428035     0.001133     0.000280     1.428315
	    6 R(2,5)          =      1.453966     0.000947     0.000262     1.454228
	    7 R(3,4)          =      1.535799    -0.003449    -0.000673     1.535126
	    8 R(3,6)          =      1.102533    -0.000755    -0.000134     1.102399
	    9 R(3,7)          =      1.092819    -0.001925    -0.000364     1.092455
	   10 R(4,8)          =      1.368378    -0.001491    -0.000232     1.368147
	   11 R(4,9)          =      1.239263    -0.006804    -0.000502     1.238761
	   12 R(5,13)         =      1.534132    -0.001120    -0.000229     1.533903
	   13 R(5,14)         =      1.093452    -0.001056    -0.000192     1.093259
	   14 R(5,15)         =      1.094803    -0.002422    -0.000479     1.094324
	   15 R(8,20)         =      1.003434    -0.002012    -0.000278     1.003156
	   16 R(8,21)         =      1.004905    -0.001750    -0.000234     1.004671
	   17 R(10,16)        =      1.091958    -0.002447    -0.000447     1.091511
	   18 R(10,17)        =      1.092825    -0.000485    -0.000072     1.092753
	   19 R(10,22)        =      1.092068    -0.000711    -0.000102     1.091966
	   20 R(13,18)        =      1.093048    -0.000362    -0.000049     1.092999
	   21 R(13,19)        =      1.093357    -0.002117    -0.000379     1.092978
	   22 R(13,23)        =      1.090967    -0.001045    -0.000174     1.090793
	   23 B(1,2,3)        =    121.592850    -0.000012    -0.044951   121.547899
	   24 B(1,2,5)        =    119.489745     0.000016     0.035837   119.525582
	   25 B(1,10,16)      =    110.538050    -0.000015    -0.065355   110.472695
	   26 B(1,10,17)      =    110.662551    -0.000002    -0.000667   110.661884
	   27 B(1,10,22)      =    111.007301     0.000003     0.015699   111.023000
	   28 B(2,1,10)       =    113.764040    -0.000009    -0.020477   113.743563
	   29 B(2,1,11)       =    107.858478     0.000008     0.024344   107.882822
	   30 B(2,1,12)       =    110.342911     0.000003     0.034076   110.376986
	   31 B(2,3,4)        =    114.255008     0.000014     0.092451   114.347460
	   32 B(2,3,6)        =    111.630365    -0.000003    -0.015335   111.615029
	   33 B(2,3,7)        =    109.729703    -0.000006    -0.033757   109.695946
	   34 B(2,5,13)       =    113.852409    -0.000010    -0.033741   113.818668
	   35 B(2,5,14)       =    107.964329    -0.000000    -0.024357   107.939972
	   36 B(2,5,15)       =    109.443016     0.000005     0.009643   109.452659
	   37 B(3,2,5)        =    118.544688    -0.000004    -0.007744   118.536944
	   38 B(3,4,8)        =    114.673613    -0.000009    -0.036047   114.637565
	   39 B(3,4,9)        =    123.235053     0.000001     0.017772   123.252825
	   40 B(4,3,6)        =    107.833720    -0.000005    -0.035748   107.797972
	   41 B(4,3,7)        =    107.128291    -0.000005    -0.024445   107.103845
	   42 B(4,8,20)       =    121.922349    -0.000006    -0.025527   121.896822
	   43 B(4,8,21)       =    117.683429     0.000010     0.047838   117.731266
	   44 B(5,13,18)      =    110.876528    -0.000002    -0.013333   110.863195
	   45 B(5,13,19)      =    110.915623    -0.000007    -0.023227   110.892396
	   46 B(5,13,23)      =    110.843734    -0.000004    -0.016801   110.826933
	   47 B(6,3,7)        =    105.830592     0.000005     0.010904   105.841495
	   48 B(8,4,9)        =    121.919991     0.000008     0.024121   121.944112
	   49 B(10,1,11)      =    109.394151    -0.000004    -0.049630   109.344521
	   50 B(10,1,12)      =    109.040265     0.000002     0.004301   109.044566
	   51 B(11,1,12)      =    106.155695    -0.000000     0.008483   106.164177
	   52 B(13,5,14)      =    109.680361     0.000004     0.020918   109.701279
	   53 B(13,5,15)      =    109.912160     0.000003     0.019086   109.931245
	   54 B(14,5,15)      =    105.648670    -0.000001     0.011065   105.659735
	   55 B(16,10,17)     =    108.735461     0.000010     0.061960   108.797421
	   56 B(16,10,22)     =    108.059362     0.000005     0.013984   108.073345
	   57 B(17,10,22)     =    107.738441    -0.000001    -0.022976   107.715465
	   58 B(18,13,19)     =    107.732675     0.000006     0.031722   107.764396
	   59 B(18,13,23)     =    108.594895     0.000001    -0.021463   108.573433
	   60 B(19,13,23)     =    107.754794     0.000007     0.045934   107.800728
	   61 B(20,8,21)      =    117.852167    -0.000005    -0.026935   117.825232
	   62 *D(1,2,3,4)     =   -105.721052     0.000000    -0.000000  -105.721052
	   63 D(1,2,3,6)      =    131.593677    -0.000000    -0.010476   131.583201
	   64 D(1,2,3,7)      =     14.594677    -0.000000     0.006512    14.601189
	   65 *D(1,2,5,13)    =   -104.868170     0.000000    -0.000000  -104.868170
	   66 D(1,2,5,14)     =     17.167777    -0.000000    -0.013153    17.154624
	   67 D(1,2,5,15)     =    131.697430     0.000000    -0.008164   131.689266
	   68 D(2,1,10,16)    =     58.276769    -0.000000     0.052751    58.329520
	   69 D(2,1,10,17)    =    178.798586     0.000000     0.087000   178.885586
	   70 D(2,1,10,22)    =    -61.622668     0.000000     0.067984   -61.554684
	   71 *D(2,3,4,8)     =   -173.730581     0.000000    -0.000000  -173.730581
	   72 D(2,3,4,9)      =     10.951111    -0.000001    -0.081320    10.869790
	   73 D(2,5,13,18)    =   -178.188519    -0.000001    -0.206811  -178.395330
	   74 D(2,5,13,19)    =    -58.536546    -0.000001    -0.190979   -58.727526
	   75 D(2,5,13,23)    =     61.121662    -0.000000    -0.159577    60.962086
	   76 D(3,2,1,10)     =   -123.198227    -0.000000    -0.158782  -123.357008
	   77 D(3,2,1,11)     =     -1.660699    -0.000001    -0.217714    -1.878413
	   78 D(3,2,1,12)     =    113.885364     0.000000    -0.175592   113.709772
	   79 D(3,2,5,13)     =     82.026770     0.000000     0.156786    82.183556
	   80 D(3,2,5,14)     =   -155.937283     0.000000     0.143634  -155.793649
	   81 D(3,2,5,15)     =    -41.407630     0.000000     0.148622   -41.259007
	   82 *D(3,4,8,20)    =     21.009535    -0.000000    -0.000000    21.009535
	   83 D(3,4,8,21)     =   -177.469964    -0.000000    -0.020681  -177.490645
	   84 D(4,3,2,5)      =     67.232273     0.000000    -0.154217    67.078056
	   85 *D(5,2,1,10)    =     63.913552     0.000000     0.000000    63.913552
	   86 D(5,2,1,11)     =   -174.548920    -0.000001    -0.058932  -174.607852
	   87 D(5,2,1,12)     =    -59.002857     0.000000    -0.016810   -59.019668
	   88 D(5,2,3,6)      =    -55.452998    -0.000000    -0.164693   -55.617691
	   89 D(5,2,3,7)      =   -172.451997    -0.000000    -0.147706  -172.599703
	   90 D(6,3,4,8)      =    -49.003342     0.000000     0.017498   -48.985843
	   91 D(6,3,4,9)      =    135.678351    -0.000001    -0.063822   135.614528
	   92 D(7,3,4,8)      =     64.512916     0.000001     0.001227    64.514143
	   93 D(7,3,4,9)      =   -110.805392    -0.000001    -0.080093  -110.885485
	   94 D(9,4,8,20)     =   -163.603844     0.000001     0.079861  -163.523984
	   95 D(9,4,8,21)     =     -2.083343     0.000001     0.059180    -2.024163
	   96 D(11,1,10,16)   =    -62.402987    -0.000000     0.071009   -62.331977
	   97 D(11,1,10,17)   =     58.118830     0.000000     0.105258    58.224088
	   98 D(11,1,10,22)   =    177.697576    -0.000000     0.086242   177.783818
	   99 D(12,1,10,16)   =   -178.096315    -0.000000     0.085879  -178.010436
	  100 D(12,1,10,17)   =    -57.574498     0.000000     0.120128   -57.454370
	  101 D(12,1,10,22)   =     62.004248     0.000000     0.101112    62.105360
	  102 D(14,5,13,18)   =     60.727873     0.000000    -0.167624    60.560249
	  103 D(14,5,13,19)   =   -179.620154     0.000000    -0.151792  -179.771946
	  104 D(14,5,13,23)   =    -59.961945     0.000001    -0.120390   -60.082335
	  105 D(15,5,13,18)   =    -55.009461    -0.000001    -0.203938   -55.213400
	  106 D(15,5,13,19)   =     64.642511    -0.000000    -0.188106    64.454405
	  107 D(15,5,13,23)   =   -175.699280     0.000000    -0.156704  -175.855984
	  108 R(5,9)          =      3.177479     0.000581    -0.000758     3.176720
	  109 R(10,13)        =      3.552745     0.000076    -0.000114     3.552631
	 ---------------------------------------------------------------------------
	Successfully symmetrized geometry.

  ==> Convergence Check <==

  Measures of convergence in internal coordinates in au.
  Criteria marked as inactive (o), active & met (*), and active & unmet ( ).
  ---------------------------------------------------------------------------------------------
   Step     Total Energy     Delta E     MAX Force     RMS Force      MAX Disp      RMS Disp   
  ---------------------------------------------------------------------------------------------
    Convergence Criteria             o    2.50e-03 *    1.70e-03 *    1.00e-02 *    6.70e-03 *
  ---------------------------------------------------------------------------------------------
      8    -421.64194576   -2.02e-05 o    8.26e-04 *    1.31e-04 *    3.80e-03 *    1.39e-03 *  ~
  ---------------------------------------------------------------------------------------------


  **** Optimization is complete! (in 8 steps) ****

  ==> Optimization Summary <==

  Measures of convergence in internal coordinates in au.
  --------------------------------------------------------------------------------------------------------------- ~
   Step         Total Energy             Delta E       MAX Force       RMS Force        MAX Disp        RMS Disp  ~
  --------------------------------------------------------------------------------------------------------------- ~
      1    -421.637133890114   -421.637133890114      0.01959496      0.00399236      0.52939920      0.09515652  ~
      2    -421.546397768994      0.090736121120      0.10362717      0.02256025      0.15842581      0.04790879  ~
      3    -421.627609178348     -0.081211409354      0.03171757      0.00859353      0.17865435      0.03231438  ~
      4    -421.640768840512     -0.013159662165      0.00407576      0.00099637      0.17252442      0.03442598  ~
      5    -421.641571286885     -0.000802446372      0.00165295      0.00051192      0.09237784      0.02687562  ~
      6    -421.641711315087     -0.000140028202      0.00154858      0.00056466      0.04163108      0.01180830  ~
      7    -421.641925565803     -0.000214250716      0.00047619      0.00014849      0.07796024      0.01454890  ~
      8    -421.641945763280     -0.000020197477      0.00082584      0.00013109      0.00379982      0.00139173  ~
  --------------------------------------------------------------------------------------------------------------- ~

	Writing optimization data to binary file.
	Final energy is   -421.6419457632799
	Final (previous) structure:
	Cartesian Geometry (in Angstrom)
	    C     1.2256670029   0.3543789678  -1.4936057169
	    N     0.5890840494   0.1171295719  -0.2098921488
	    C    -0.3127169827  -0.9723112984  -0.0120120021
	    C    -1.7901625494  -0.5612632784   0.0708823340
	    C     0.7480260062   1.0903346060   0.8585774763
	    H    -0.0688105444  -1.5412125497   0.9003694240
	    H    -0.2217876710  -1.6812998090  -0.8386439575
	    N    -2.6483879428  -1.5768969457   0.3939875688
	    O    -2.1966987971   0.5733717498  -0.2173945654
	    C     2.7559574881   0.3805303256  -1.4283420381
	    H     0.9051762748  -0.4349680906  -2.1774547990
	    H     0.8689602794   1.2992884979  -1.9283475167
	    C     1.7210237227   0.6493904620   1.9596699400
	    H     1.0957347948   2.0264485229   0.4131276174
	    H    -0.2305976185   1.3162310768   1.2943074327
	    H     3.1385937124  -0.5617015159  -1.0306463732
	    H     3.1816221596   0.5407732884  -2.4220213923
	    H     1.7794102794   1.4005367256   2.7515823385
	    H     1.3955721906  -0.2898836267   2.4149444042
	    H    -2.3338411804  -2.4110162689   0.8546225238
	    H    -3.6306721938  -1.3668031782   0.4224749386
	    H     3.1065000011   1.1880133686  -0.7820422435
	    H     2.7215866329   0.4932493660   1.5538340782
	Saving final (previous) structure.
	Cleaning optimization helper files.
			--------------------------
			 OPTKING Finished Execution 
			--------------------------

    Final optimized geometry and variables:
    Molecular point group: c1
    Full point group: C1

    Geometry (in Angstrom), charge = 0, multiplicity = 1:

    C            1.225667007744     0.354378969205    -1.493605722793
    N            0.589084051684     0.117129572402    -0.209892149674
    C           -0.312716983956    -0.972311302230    -0.012012002184
    C           -1.790162556480    -0.561263280569     0.070882334321
    C            0.748026009185     1.090334610327     0.858577479713
    H           -0.068810544640    -1.541212555775     0.900369427559
    H           -0.221787671865    -1.681299815640    -0.838643960816
    N           -2.648387953226    -1.576896951868     0.393987570352
    O           -2.196698805715     0.573371752097    -0.217394566239
    C            2.755957498951     0.380530327116    -1.428342043746
    H            0.905176278345    -0.434968092301    -2.177454807587
    H            0.868960282861     1.299288503014    -1.928347524257
    C            1.721023729467     0.649390464548     1.959669947705
    H            1.095734799140     2.026448530871     0.413127619040
    H           -0.230597619392     1.316231081928     1.294307437744
    H            3.138593724691    -0.561701518060    -1.030646377203
    H            3.181622172059     0.540773290529    -2.422021401869
    H            1.779410286345     1.400536731064     2.751582349320
    H            1.395572196102    -0.289883627815     2.414944413687
    H           -2.333841189574    -2.411016278364     0.854622527136
    H           -3.630672208055    -1.366803183604     0.422474940276
    H            3.106500013261     1.188013373282    -0.782042246558
    H            2.721586643630     0.493249367980     1.553834084277

	Removing binary optimization data file.
	Cleaning optimization helper files.

    Psi4 stopped on: Wednesday, 08 June 2022 12:00PM
    Psi4 wall time for execution: 0:05:40.83

*** Psi4 exiting successfully. Buy a developer a beer!
