
    -----------------------------------------------------------------------
          Psi4: An Open-Source Ab Initio Electronic Structure Package
                               Psi4 1.5 release

                         Git: Rev {HEAD} e9f4d6d 


    D. G. A. Smith, L. A. Burns, A. C. Simmonett, R. M. Parrish,
    M. C. Schieber, R. Galvelis, P. Kraus, H. Kruse, R. Di Remigio,
    A. Alenaizan, A. M. James, S. Lehtola, J. P. Misiewicz, M. Scheurer,
    R. A. Shaw, J. B. Schriber, Y. Xie, Z. L. Glick, D. A. Sirianni,
    J. S. O'Brien, J. M. Waldrop, A. Kumar, E. G. Hohenstein,
    B. P. Pritchard, B. R. Brooks, H. F. Schaefer III, A. Yu. Sokolov,
    K. Patkowski, A. E. DePrince III, U. Bozkaya, R. A. King,
    F. A. Evangelista, J. M. Turney, T. D. Crawford, C. D. Sherrill,
    J. Chem. Phys. 152(18) 184108 (2020). https://doi.org/10.1063/5.0006002

                            Additional Code Authors
    E. T. Seidl, C. L. Janssen, E. F. Valeev, M. L. Leininger,
    J. F. Gonthier, R. M. Richard, H. R. McAlexander, M. Saitow, X. Wang,
    P. Verma, M. H. Lechner, and A. Jiang

             Previous Authors, Complete List of Code Contributors,
                       and Citations for Specific Modules
    https://github.com/psi4/psi4/blob/master/codemeta.json
    https://github.com/psi4/psi4/graphs/contributors
    http://psicode.org/psi4manual/master/introduction.html#citing-psifour

    -----------------------------------------------------------------------


    Psi4 started on: Wednesday, 08 June 2022 11:06AM

    Process ID: 1090531
    Host:       node74.bme.utexas.edu
    PSIDATADIR: /home/bdw2292/miniconda3/envs/newamoebamdpoltype/share/psi4
    Memory:     500.0 MiB
    Threads:    1
    
  ==> Input File <==

--------------------------------------------------------------------------
molecule { 
0 1
 C    1.620027   -0.449941   -1.380583
 N    0.599841   -0.126824   -0.338718
 C   -0.761990   -0.118350   -0.908345
 C   -1.893497   -0.184468    0.149865
 C    0.894560    1.148255    0.415060
 H   -0.898054   -0.983875   -1.580949
 H   -0.918028    0.773928   -1.540789
 N   -3.146587   -0.306495   -0.395235
 O   -1.717098   -0.112886    1.366607
 C    3.018704   -0.731068   -0.795110
 H    1.282312   -1.347445   -1.926368
 H    1.657674    0.366743   -2.122450
 C    1.420982    0.852190    1.830351
 H    1.606052    1.773478   -0.149730
 H   -0.014845    1.765346    0.499237
 H    2.970651   -1.506170   -0.028188
 H    3.698450   -1.075520   -1.576363
 H    1.625814    1.778138    2.369783
 H    0.676586    0.291731    2.399923
 H   -3.252047   -0.654745   -1.332896
 H   -3.914203   -0.417738    0.246116
 H    3.456292    0.164787   -0.353574
 H    2.339813    0.266240    1.804025
}
set optking { 
  frozen_dihedral = ("
    1 2 3 4
    10 1 2 5
    13 5 2 1
    2 3 4 8
    3 4 8 20
  ")
}
set {
  geom_maxiter 400
  g_convergence GAU_LOOSE
  dynamic_level 1
}
memory 8.166666666666666GB
set_num_threads(2)
psi4_io.set_default_path("/scratch/bdw2292/Psi4-4_27_Index_0-farH_in17")
for _ in range(1):
  try:
    set opt_coordinates both
    optimize('wb97x-d/6-311G')
    break
  except OptimizationConvergenceError:
    break
  else:
    try:
      set opt_coordinates cartesian
      optimize('wb97x-d/6-311G')
      break
    except OptimizationConvergenceError:
      pass
clean()
--------------------------------------------------------------------------

  Memory set to   7.606 GiB by Python driver.
  Threads set to 2 by Python driver.

Scratch directory: /scratch/bdw2292/Psi4-4_27_Index_0-farH_in17/

Scratch directory: /scratch/bdw2292/Psi4-4_27_Index_0-farH_in17/
gradient() will perform analytic gradient computation.

*** tstart() called on node74.bme.utexas.edu
*** at Wed Jun  8 11:06:16 2022

   => Loading Basis Set <=

    Name: 6-311G
    Role: ORBITAL
    Keyword: BASIS
    atoms 1, 3-5, 10, 13    entry C          line    92 file /home/bdw2292/miniconda3/envs/newamoebamdpoltype/share/psi4/basis/6-311g.gbs 
    atoms 2, 8              entry N          line   109 file /home/bdw2292/miniconda3/envs/newamoebamdpoltype/share/psi4/basis/6-311g.gbs 
    atoms 6-7, 11-12, 14-23 entry H          line    21 file /home/bdw2292/miniconda3/envs/newamoebamdpoltype/share/psi4/basis/6-311g.gbs 
    atoms 9                 entry O          line   126 file /home/bdw2292/miniconda3/envs/newamoebamdpoltype/share/psi4/basis/6-311g.gbs 

   => WB97X-D: Empirical Dispersion <=

    Chai and Head-Gordon Dispersion Correction
    Chai, J.-D.; Head-Gordon, M. (2010), J. Chem. Phys., 132: 6615-6620

        s6 =       1.000000


         ---------------------------------------------------------
                                   SCF
               by Justin Turney, Rob Parrish, Andy Simmonett
                          and Daniel G. A. Smith
                              RKS Reference
                        2 Threads,   7788 MiB Core
         ---------------------------------------------------------

  ==> Geometry <==

    Molecular point group: c1
    Full point group: C1

    Geometry (in Angstrom), charge = 0, multiplicity = 1:

       Center              X                  Y                   Z               Mass       
    ------------   -----------------  -----------------  -----------------  -----------------
         C            1.628823230362    -0.446330719257    -1.380567900214    12.000000000000
         N            0.608637230362    -0.123213719257    -0.338702900214    14.003074004430
         C           -0.753193769638    -0.114739719257    -0.908329900214    12.000000000000
         C           -1.884700769638    -0.180857719257     0.149880099786    12.000000000000
         C            0.903356230362     1.151865280743     0.415075099786    12.000000000000
         H           -0.889257769638    -0.980264719257    -1.580933900214     1.007825032230
         H           -0.909231769638     0.777538280743    -1.540773900214     1.007825032230
         N           -3.137790769638    -0.302884719257    -0.395219900214    14.003074004430
         O           -1.708301769638    -0.109275719257     1.366622099786    15.994914619570
         C            3.027500230362    -0.727457719257    -0.795094900214    12.000000000000
         H            1.291108230362    -1.343834719257    -1.926352900214     1.007825032230
         H            1.666470230362     0.370353280743    -2.122434900214     1.007825032230
         C            1.429778230362     0.855800280743     1.830366099786    12.000000000000
         H            1.614848230362     1.777088280743    -0.149714900214     1.007825032230
         H           -0.006048769638     1.768956280743     0.499252099786     1.007825032230
         H            2.979447230362    -1.502559719257    -0.028172900214     1.007825032230
         H            3.707246230362    -1.071909719257    -1.576347900214     1.007825032230
         H            1.634610230362     1.781748280743     2.369798099786     1.007825032230
         H            0.685382230362     0.295341280743     2.399938099786     1.007825032230
         H           -3.243250769638    -0.651134719257    -1.332880900214     1.007825032230
         H           -3.905406769638    -0.414127719257     0.246131099786     1.007825032230
         H            3.465088230362     0.168397280743    -0.353558900214     1.007825032230
         H            2.348609230362     0.269850280743     1.804040099786     1.007825032230

  Running in c1 symmetry.

  Rotational constants: A =      0.08495  B =      0.03197  C =      0.02531 [cm^-1]
  Rotational constants: A =   2546.64187  B =    958.37692  C =    758.81408 [MHz]
  Nuclear repulsion =  480.357439745275542

  Charge       = 0
  Multiplicity = 1
  Electrons    = 72
  Nalpha       = 36
  Nbeta        = 36

  ==> Algorithm <==

  SCF Algorithm Type is DF.
  DIIS enabled.
  MOM disabled.
  Fractional occupation disabled.
  Guess Type is SAD.
  Energy threshold   = 1.00e-08
  Density threshold  = 1.00e-08
  Integral threshold = 1.00e-12

  ==> Primary Basis <==

  Basis Set: 6-311G
    Blend: 6-311G
    Number of shells: 105
    Number of basis functions: 159
    Number of Cartesian functions: 159
    Spherical Harmonics?: true
    Max angular momentum: 1

  ==> DFT Potential <==

   => LibXC <=

    Version 5.1.5
    S. Lehtola, C. Steigemann, M. J. Oliveira, and M. A. Marques, SoftwareX 7, 1 (2018) (10.1016/j.softx.2017.11.002)

   => Composite Functional: WB97X-D <= 

    wB97X-D Hyb-GGA Exchange-Correlation Functional

    J.-D. Chai and M. Head-Gordon, Phys. Chem. Chem. Phys. 10, 6615 (2008) (10.1039/B810189B)

    Deriv               =              1
    GGA                 =           TRUE
    Meta                =          FALSE

    Exchange Hybrid     =           TRUE
    MP2 Hybrid          =          FALSE

   => Exchange-Correlation Functionals <=

    1.0000   wB97X-D range-separated functional

   => Exact (HF) Exchange <=

    0.7780            HF,LR [omega = 0.2000]
    0.2220               HF 

   => LibXC Density Thresholds  <==

    XC_HYB_GGA_XC_WB97X_D:  1.00E-14 

   => Molecular Quadrature <=

    Radial Scheme          =       TREUTLER
    Pruning Scheme         =           NONE
    Nuclear Scheme         =       TREUTLER

    BS radius alpha        =              1
    Pruning alpha          =              1
    Radial Points          =             75
    Spherical Points       =            302
    Total Points           =         481874
    Total Blocks           =           3533
    Max Points             =            256
    Max Functions          =            143
    Weights Tolerance      =       1.00E-15

   => Loading Basis Set <=

    Name: (6-311G AUX)
    Role: JKFIT
    Keyword: DF_BASIS_SCF
    atoms 1, 3-5, 10, 13    entry C          line   125 file /home/bdw2292/miniconda3/envs/newamoebamdpoltype/share/psi4/basis/cc-pvtz-jkfit.gbs 
    atoms 2, 8              entry N          line   177 file /home/bdw2292/miniconda3/envs/newamoebamdpoltype/share/psi4/basis/cc-pvtz-jkfit.gbs 
    atoms 6-7, 11-12, 14-23 entry H          line    51 file /home/bdw2292/miniconda3/envs/newamoebamdpoltype/share/psi4/basis/cc-pvtz-jkfit.gbs 
    atoms 9                 entry O          line   229 file /home/bdw2292/miniconda3/envs/newamoebamdpoltype/share/psi4/basis/cc-pvtz-jkfit.gbs 

  ==> Integral Setup <==

  DFHelper Memory: AOs need 0.585 GiB; user supplied 4.300 GiB. Using in-core AOs.

  ==> MemDFJK: Density-Fitted J/K Matrices <==

    J tasked:                   Yes
    K tasked:                   Yes
    wK tasked:                  Yes
    Omega:                2.000E-01
    OpenMP threads:               2
    Memory [MiB]:              4403
    Algorithm:                 Core
    Schwarz Cutoff:           1E-12
    Mask sparsity (%):      10.7432
    Fitting Condition:        1E-10

   => Auxiliary Basis Set <=

  Basis Set: (6-311G AUX)
    Blend: CC-PVTZ-JKFIT
    Number of shells: 365
    Number of basis functions: 1131
    Number of Cartesian functions: 1354
    Spherical Harmonics?: true
    Max angular momentum: 4

  Cached 100.0% of DFT collocation blocks in 1.404 [GiB].

  Minimum eigenvalue in the overlap matrix is 2.6453760749E-03.
  Reciprocal condition number of the overlap matrix is 3.6051325917E-04.
    Using symmetric orthogonalization.

  ==> Pre-Iterations <==

  SCF Guess: Superposition of Atomic Densities via on-the-fly atomic UHF (no occupation information).

   -------------------------
    Irrep   Nso     Nmo    
   -------------------------
     A        159     159 
   -------------------------
    Total     159     159
   -------------------------

  ==> Iterations <==

                           Total Energy        Delta E     RMS |[F,P]|

   @DF-RKS iter SAD:  -420.69060969158704   -4.20691e+02   0.00000e+00 
   @DF-RKS iter   1:  -421.14548910912021   -4.54879e-01   6.45564e-03 DIIS
   @DF-RKS iter   2:  -421.20518607090327   -5.96970e-02   6.51026e-03 DIIS
   @DF-RKS iter   3:  -421.61689752664483   -4.11711e-01   1.45891e-03 DIIS
   @DF-RKS iter   4:  -421.63629257516027   -1.93950e-02   3.16152e-04 DIIS
   @DF-RKS iter   5:  -421.63726765374309   -9.75079e-04   1.14491e-04 DIIS
   @DF-RKS iter   6:  -421.63741283054213   -1.45177e-04   2.44244e-05 DIIS
   @DF-RKS iter   7:  -421.63742097515234   -8.14461e-06   6.83463e-06 DIIS
   @DF-RKS iter   8:  -421.63742169883648   -7.23684e-07   2.33460e-06 DIIS
   @DF-RKS iter   9:  -421.63742181642209   -1.17586e-07   1.04992e-06 DIIS
   @DF-RKS iter  10:  -421.63742183621468   -1.97926e-08   2.51773e-07 DIIS
   @DF-RKS iter  11:  -421.63742183844244   -2.22775e-09   6.56440e-08 DIIS
   @DF-RKS iter  12:  -421.63742183864292   -2.00487e-10   3.11906e-08 DIIS
   @DF-RKS iter  13:  -421.63742183867151   -2.85922e-11   7.75008e-09 DIIS
  Energy and wave function converged.


  ==> Post-Iterations <==

   Electrons on quadrature grid:
      Ntotal   =   71.9999579599 ; deviation = -4.204e-05 

    Orbital Energies [Eh]
    ---------------------

    Doubly Occupied:                                                      

       1A    -19.218629     2A    -14.458921     3A    -14.426767  
       4A    -10.406859     5A    -10.330575     6A    -10.313739  
       7A    -10.302193     8A    -10.270878     9A    -10.248466  
      10A     -1.157152    11A     -1.019987    12A     -1.013806  
      13A     -0.857529    14A     -0.845577    15A     -0.787450  
      16A     -0.718609    17A     -0.692310    18A     -0.663395  
      19A     -0.635707    20A     -0.580810    21A     -0.565162  
      22A     -0.556246    23A     -0.533691    24A     -0.520849  
      25A     -0.495225    26A     -0.483663    27A     -0.473982  
      28A     -0.463098    29A     -0.453248    30A     -0.437904  
      31A     -0.431133    32A     -0.414410    33A     -0.404129  
      34A     -0.357362    35A     -0.338328    36A     -0.284965  

    Virtual:                                                              

      37A      0.085702    38A      0.105753    39A      0.125101  
      40A      0.141642    41A      0.154834    42A      0.163034  
      43A      0.169480    44A      0.184889    45A      0.195353  
      46A      0.200580    47A      0.213479    48A      0.219463  
      49A      0.225410    50A      0.238724    51A      0.247918  
      52A      0.251882    53A      0.276206    54A      0.300440  
      55A      0.306662    56A      0.321789    57A      0.339255  
      58A      0.367558    59A      0.377097    60A      0.394392  
      61A      0.421701    62A      0.429170    63A      0.440722  
      64A      0.444014    65A      0.463553    66A      0.478166  
      67A      0.488273    68A      0.510045    69A      0.523155  
      70A      0.551235    71A      0.555942    72A      0.579280  
      73A      0.595046    74A      0.611891    75A      0.619743  
      76A      0.627684    77A      0.656605    78A      0.666088  
      79A      0.668194    80A      0.673298    81A      0.686920  
      82A      0.690155    83A      0.694024    84A      0.698740  
      85A      0.702959    86A      0.707904    87A      0.718174  
      88A      0.727785    89A      0.735617    90A      0.755678  
      91A      0.788571    92A      0.793139    93A      0.809502  
      94A      0.823699    95A      0.885068    96A      0.901395  
      97A      0.945517    98A      0.977264    99A      0.998836  
     100A      1.060233   101A      1.085504   102A      1.093117  
     103A      1.108053   104A      1.145156   105A      1.223358  
     106A      1.300229   107A      1.380649   108A      1.508632  
     109A      1.718824   110A      2.245363   111A      2.316475  
     112A      2.342087   113A      2.343397   114A      2.363182  
     115A      2.379379   116A      2.384834   117A      2.389831  
     118A      2.394535   119A      2.404345   120A      2.417574  
     121A      2.426549   122A      2.452535   123A      2.458642  
     124A      2.672825   125A      2.853292   126A      2.901760  
     127A      2.920203   128A      2.926342   129A      2.946923  
     130A      2.971555   131A      2.987474   132A      3.010451  
     133A      3.034771   134A      3.046232   135A      3.081734  
     136A      3.104655   137A      3.152677   138A      3.161515  
     139A      3.195911   140A      3.215341   141A      3.328173  
     142A      3.782375   143A      3.979256   144A      4.037317  
     145A      4.134639   146A      4.170120   147A      4.185897  
     148A      4.988575   149A      5.068635   150A      5.131452  
     151A     23.441693   152A     23.498962   153A     23.542847  
     154A     23.622193   155A     23.652051   156A     23.707089  
     157A     35.480062   158A     35.569266   159A     50.047077  

    Final Occupation by Irrep:
              A 
    DOCC [    36 ]

  @DF-RKS Final Energy:  -421.63742183867151

   => Energetics <=

    Nuclear Repulsion Energy =            480.3574397452755420
    One-Electron Energy =               -1523.7165949161296794
    Two-Electron Energy =                 662.9802985768659482
    DFT Exchange-Correlation Energy =     -41.2436344701770921
    Empirical Dispersion Energy =          -0.0149307745062458
    VV10 Nonlocal Energy =                  0.0000000000000000
    Total Energy =                       -421.6374218386715143

Computation Completed


Properties will be evaluated at   0.000000,   0.000000,   0.000000 [a0]

Properties computed using the SCF density matrix

  Nuclear Dipole Moment: [e a0]
     X:     9.7860      Y:     1.1683      Z:    -3.0775

  Electronic Dipole Moment: [e a0]
     X:   -10.3186      Y:    -1.3119      Z:     1.5083

  Dipole Moment: [e a0]
     X:    -0.5327      Y:    -0.1436      Z:    -1.5692     Total:     1.6633

  Dipole Moment: [D]
     X:    -1.3539      Y:    -0.3650      Z:    -3.9885     Total:     4.2278


*** tstop() called on node74.bme.utexas.edu at Wed Jun  8 11:06:50 2022
Module time:
	user time   =      63.13 seconds =       1.05 minutes
	system time =       3.20 seconds =       0.05 minutes
	total time  =         34 seconds =       0.57 minutes
Total time:
	user time   =      63.13 seconds =       1.05 minutes
	system time =       3.20 seconds =       0.05 minutes
	total time  =         34 seconds =       0.57 minutes

*** tstart() called on node74.bme.utexas.edu
*** at Wed Jun  8 11:06:50 2022


         ------------------------------------------------------------
                                   SCF GRAD                          
                          Rob Parrish, Justin Turney,                
                       Andy Simmonett, and Alex Sokolov              
         ------------------------------------------------------------

  ==> Geometry <==

    Molecular point group: c1
    Full point group: C1

    Geometry (in Angstrom), charge = 0, multiplicity = 1:

       Center              X                  Y                   Z               Mass       
    ------------   -----------------  -----------------  -----------------  -----------------
         C            1.628823230362    -0.446330719257    -1.380567900214    12.000000000000
         N            0.608637230362    -0.123213719257    -0.338702900214    14.003074004430
         C           -0.753193769638    -0.114739719257    -0.908329900214    12.000000000000
         C           -1.884700769638    -0.180857719257     0.149880099786    12.000000000000
         C            0.903356230362     1.151865280743     0.415075099786    12.000000000000
         H           -0.889257769638    -0.980264719257    -1.580933900214     1.007825032230
         H           -0.909231769638     0.777538280743    -1.540773900214     1.007825032230
         N           -3.137790769638    -0.302884719257    -0.395219900214    14.003074004430
         O           -1.708301769638    -0.109275719257     1.366622099786    15.994914619570
         C            3.027500230362    -0.727457719257    -0.795094900214    12.000000000000
         H            1.291108230362    -1.343834719257    -1.926352900214     1.007825032230
         H            1.666470230362     0.370353280743    -2.122434900214     1.007825032230
         C            1.429778230362     0.855800280743     1.830366099786    12.000000000000
         H            1.614848230362     1.777088280743    -0.149714900214     1.007825032230
         H           -0.006048769638     1.768956280743     0.499252099786     1.007825032230
         H            2.979447230362    -1.502559719257    -0.028172900214     1.007825032230
         H            3.707246230362    -1.071909719257    -1.576347900214     1.007825032230
         H            1.634610230362     1.781748280743     2.369798099786     1.007825032230
         H            0.685382230362     0.295341280743     2.399938099786     1.007825032230
         H           -3.243250769638    -0.651134719257    -1.332880900214     1.007825032230
         H           -3.905406769638    -0.414127719257     0.246131099786     1.007825032230
         H            3.465088230362     0.168397280743    -0.353558900214     1.007825032230
         H            2.348609230362     0.269850280743     1.804040099786     1.007825032230

  Nuclear repulsion =  480.357439745275542

  ==> Basis Set <==

  Basis Set: 6-311G
    Blend: 6-311G
    Number of shells: 105
    Number of basis functions: 159
    Number of Cartesian functions: 159
    Spherical Harmonics?: true
    Max angular momentum: 1

  ==> DFJKGrad: Density-Fitted SCF Gradients <==

    Gradient:                    1
    J tasked:                  Yes
    K tasked:                  Yes
    wK tasked:                 Yes
    Omega:               2.000E-01
    OpenMP threads:              2
    Integrals threads:           2
    Memory [MiB]:             5841
    Schwarz Cutoff:          1E-12
    Fitting Condition:       1E-10

   => Auxiliary Basis Set <=

  Basis Set: (6-311G AUX)
    Blend: CC-PVTZ-JKFIT
    Number of shells: 365
    Number of basis functions: 1131
    Number of Cartesian functions: 1354
    Spherical Harmonics?: true
    Max angular momentum: 4

  ==> DFT Potential <==

   => LibXC <=

    Version 5.1.5
    S. Lehtola, C. Steigemann, M. J. Oliveira, and M. A. Marques, SoftwareX 7, 1 (2018) (10.1016/j.softx.2017.11.002)

   => Composite Functional: WB97X-D <= 

    wB97X-D Hyb-GGA Exchange-Correlation Functional

    J.-D. Chai and M. Head-Gordon, Phys. Chem. Chem. Phys. 10, 6615 (2008) (10.1039/B810189B)

    Deriv               =              1
    GGA                 =           TRUE
    Meta                =          FALSE

    Exchange Hybrid     =           TRUE
    MP2 Hybrid          =          FALSE

   => Exchange-Correlation Functionals <=

    1.0000   wB97X-D range-separated functional

   => Exact (HF) Exchange <=

    0.7780            HF,LR [omega = 0.2000]
    0.2220               HF 

   => LibXC Density Thresholds  <==

    XC_HYB_GGA_XC_WB97X_D:  1.00E-14 

   => Molecular Quadrature <=

    Radial Scheme          =       TREUTLER
    Pruning Scheme         =           NONE
    Nuclear Scheme         =       TREUTLER

    BS radius alpha        =              1
    Pruning alpha          =              1
    Radial Points          =             75
    Spherical Points       =            302
    Total Points           =         481874
    Total Blocks           =           3533
    Max Points             =            256
    Max Functions          =            143
    Weights Tolerance      =       1.00E-15


  -Total Gradient:
     Atom            X                  Y                   Z
    ------   -----------------  -----------------  -----------------
       1        0.004195955150     0.004243871363    -0.007001789783
       2        0.005032752770    -0.010024249177     0.005158182844
       3       -0.001177225138     0.003846584430    -0.004319513228
       4       -0.010096667048    -0.000000930533     0.014086902106
       5        0.000343706452     0.008452018107    -0.003952386961
       6       -0.004340026592    -0.003237183148    -0.005697577894
       7        0.003721026611    -0.000680274757    -0.001443212702
       8       -0.003777198862     0.007506031798    -0.000238410900
       9       -0.001307959616    -0.003038016261    -0.006225391932
      10        0.006803300222    -0.002876851072     0.002422813249
      11       -0.000536476818    -0.004662185277    -0.005623128102
      12       -0.004277924203    -0.000196568437     0.000272035767
      13        0.002929037322    -0.000679463538     0.002828438100
      14       -0.001109727669     0.004348309636    -0.000214594587
      15       -0.002718006598     0.007937521968     0.000834670468
      16        0.002548026977    -0.001384768294     0.000382998493
      17        0.000942397165    -0.000555374219     0.001719847285
      18       -0.000897638722    -0.002478506086     0.000356733009
      19        0.000048694442    -0.000674147539     0.004664455251
      20        0.003212258672    -0.004709051861    -0.000751907182
      21       -0.000038370252    -0.001215825182     0.001945548005
      22        0.000446716291    -0.000318072979    -0.000793098727
      23       -0.000109774639     0.000191058838     0.001629124762


*** tstop() called on node74.bme.utexas.edu at Wed Jun  8 11:07:05 2022
Module time:
	user time   =      27.67 seconds =       0.46 minutes
	system time =       0.66 seconds =       0.01 minutes
	total time  =         15 seconds =       0.25 minutes
Total time:
	user time   =      90.80 seconds =       1.51 minutes
	system time =       3.86 seconds =       0.06 minutes
	total time  =         49 seconds =       0.82 minutes

			-----------------------------------------
			 OPTKING 2.0: for geometry optimizations 
			  - R.A. King,  Bethel University        
			-----------------------------------------
	At level 1: Red. Int., RFO, no backsteps, dynamic trust

	Internal coordinates to be generated automatically.
	Detected frag 1 with atoms:  1 2 3 4 5 6 7 8 9 10 11 12 13 14 15 16 17 18 19 20
	 21 22 23
	---Fragment 1 Bond Connectivity---
	 1 : 2 10 11 12
	 2 : 1 3 5
	 3 : 2 4 6 7
	 4 : 3 8 9
	 5 : 2 13 14 15
	 6 : 3
	 7 : 3
	 8 : 4 20 21
	 9 : 4
	 10 : 1 16 17 22
	 11 : 1
	 12 : 1
	 13 : 5 18 19 23
	 14 : 5
	 15 : 5
	 16 : 10
	 17 : 10
	 18 : 13
	 19 : 13
	 20 : 8
	 21 : 8
	 22 : 10
	 23 : 13

	Assuming in current code that numbering for constraints corresponds to unified fragment.
	Frozen dihedral atom list: 
	     1     2     3     4
	    10     1     2     5
	    13     5     2     1
	     2     3     4     8
	     3     4     8    20
	---Fragment 1 Geometry and Gradient---
	 C           3.0780298122       -0.8434428208       -2.6088952290
	 N           1.1501576751       -0.2328401843       -0.6400557193
	 C          -1.4233299440       -0.2168266451       -1.7164947430
	 C          -3.5615682831       -0.3417715571        0.2832323403
	 C           1.7070958691        2.1767099140        0.7843782601
	 H          -1.6804536396       -1.8524318498       -2.9875320939
	 H          -1.7181990292        1.4693344027       -2.9116406927
	 N          -5.9295651936       -0.5723691670       -0.7468573707
	 O          -3.2282224843       -0.2065011816        2.5825414856
	 C           5.7211462801       -1.3746958572       -1.5025116052
	 H           2.4398409537       -2.5394795773       -3.6402794024
	 H           3.1491723316        0.6998662703       -4.0108206805
	 C           2.7018892755        1.6172281487        3.4588906379
	 H           3.0516208896        3.3582101514       -0.2829201583
	 H          -0.0114305180        3.3428428985        0.9434497362
	 H           5.6303392706       -2.8394263565       -0.0532390656
	 H           7.0056800550       -2.0256158006       -2.9788658098
	 H           3.0889656573        3.3670162751        4.4782693812
	 H           1.2951847066        0.5581141341        4.5352257266
	 H          -6.1288557108       -1.2304662902       -2.5187798593
	 H          -7.3801492031       -0.7825879704        0.4651203696
	 H           6.5480677559        0.3182247409       -0.6681294906
	 H           4.4382282211        0.5099431255        3.4091417079
	             0.0041959551        0.0042438714       -0.0070017898
	             0.0050327528       -0.0100242492        0.0051581828
	            -0.0011772251        0.0038465844       -0.0043195132
	            -0.0100966670       -0.0000009305        0.0140869021
	             0.0003437065        0.0084520181       -0.0039523870
	            -0.0043400266       -0.0032371831       -0.0056975779
	             0.0037210266       -0.0006802748       -0.0014432127
	            -0.0037771989        0.0075060318       -0.0002384109
	            -0.0013079596       -0.0030380163       -0.0062253919
	             0.0068033002       -0.0028768511        0.0024228132
	            -0.0005364768       -0.0046621853       -0.0056231281
	            -0.0042779242       -0.0001965684        0.0002720358
	             0.0029290373       -0.0006794635        0.0028284381
	            -0.0011097277        0.0043483096       -0.0002145946
	            -0.0027180066        0.0079375220        0.0008346705
	             0.0025480270       -0.0013847683        0.0003829985
	             0.0009423972       -0.0005553742        0.0017198473
	            -0.0008976387       -0.0024785061        0.0003567330
	             0.0000486944       -0.0006741475        0.0046644553
	             0.0032122587       -0.0047090519       -0.0007519072
	            -0.0000383703       -0.0012158252        0.0019455480
	             0.0004467163       -0.0003180730       -0.0007930987
	            -0.0001097746        0.0001910588        0.0016291248

	Previous optimization step data not found.  Starting new optimization.

	---Fragment 1 Intrafragment Coordinates---
	 - Coordinate -           - BOHR/RAD -       - ANG/DEG -
	 R(1,2)           =         2.822385	       1.493542
	 R(1,10)          =         2.914169	       1.542112
	 R(1,11)          =         2.085085	       1.103379
	 R(1,12)          =         2.086207	       1.103973
	 R(2,3)           =         2.789591	       1.476188
	 R(2,5)           =         2.853966	       1.510254
	 R(3,4)           =         2.930287	       1.550641
	 R(3,6)           =         2.087308	       1.104556
	 R(3,7)           =         2.087693	       1.104759
	 R(4,8)           =         2.592618	       1.371954
	 R(4,9)           =         2.327282	       1.231544
	 R(5,13)          =         2.907860	       1.538773
	 R(5,14)          =         2.083942	       1.102775
	 R(5,15)          =         2.082907	       1.102227
	 R(8,20)          =         1.900662	       1.005787
	 R(8,21)          =         1.901914	       1.006449
	 R(10,16)         =         2.062540	       1.091449
	 R(10,17)         =         2.062364	       1.091356
	 R(10,22)         =         2.060576	       1.090410
	 R(13,18)         =         2.061727	       1.091019
	 R(13,19)         =         2.063744	       1.092086
	 R(13,23)         =         2.059958	       1.090083
	 B(1,2,3)         =         1.941435	     111.236060
	 B(1,2,5)         =         1.979613	     113.423495
	 B(1,10,16)       =         1.935103	     110.873212
	 B(1,10,17)       =         1.929084	     110.528380
	 B(1,10,22)       =         1.947588	     111.588597
	 B(2,1,10)        =         1.975918	     113.211736
	 B(2,1,11)        =         1.888057	     108.177705
	 B(2,1,12)        =         1.909243	     109.391546
	 B(2,3,4)         =         1.992805	     114.179332
	 B(2,3,6)         =         1.922095	     110.127960
	 B(2,3,7)         =         1.934609	     110.844948
	 B(2,5,13)        =         1.942682	     111.307463
	 B(2,5,14)        =         1.927251	     110.423358
	 B(2,5,15)        =         1.928141	     110.474332
	 B(3,2,5)         =         1.947412	     111.578472
	 B(3,4,8)         =         1.981367	     113.523955
	 B(3,4,9)         =         2.173941	     124.557626
	 B(4,3,6)         =         1.867384	     106.993242
	 B(4,3,7)         =         1.898689	     108.786838
	 B(4,8,20)        =         2.090900	     119.799723
	 B(4,8,21)        =         2.041218	     116.953197
	 B(5,13,18)       =         1.934447	     110.835633
	 B(5,13,19)       =         1.923297	     110.196794
	 B(5,13,23)       =         1.949343	     111.689099
	 B(6,3,7)         =         1.840957	     105.479094
	 B(8,4,9)         =         2.127670	     121.906523
	 B(10,1,11)       =         1.893483	     108.488611
	 B(10,1,12)       =         1.938055	     111.042384
	 B(11,1,12)       =         1.854353	     106.246628
	 B(13,5,14)       =         1.938440	     111.064459
	 B(13,5,15)       =         1.896246	     108.646883
	 B(14,5,15)       =         1.827625	     104.715221
	 B(16,10,17)      =         1.882088	     107.835698
	 B(16,10,22)      =         1.892929	     108.456850
	 B(17,10,22)      =         1.874673	     107.410877
	 B(18,13,19)      =         1.881425	     107.797714
	 B(18,13,23)      =         1.885875	     108.052689
	 B(19,13,23)      =         1.887336	     108.136384
	 B(20,8,21)       =         2.066711	     118.413812
	*D(1,2,3,4)       =         2.860304	     163.883338
	 D(1,2,3,6)       =         0.759248	      43.501711
	 D(1,2,3,7)       =        -1.271276	     -72.838775
	*D(1,2,5,13)      =        -1.833311	    -105.040982
	 D(1,2,5,14)      =         0.328134	      18.800684
	 D(1,2,5,15)      =         2.341608	     134.164247
	 D(2,1,10,16)     =         0.939199	      53.812131
	 D(2,1,10,17)     =         3.025319	     173.338021
	 D(2,1,10,22)     =        -1.172931	     -67.204013
	*D(2,3,4,8)       =        -3.037533	    -174.037827
	 D(2,3,4,9)       =         0.125666	       7.200139
	 D(2,5,13,18)     =        -3.135884	    -179.672934
	 D(2,5,13,19)     =        -1.054750	     -60.432749
	 D(2,5,13,23)     =         1.043407	      59.782807
	 D(3,2,1,10)      =        -2.953354	    -169.214725
	 D(3,2,1,11)      =        -0.854355	     -48.950919
	 D(3,2,1,12)      =         1.158448	      66.374208
	 D(3,2,5,13)      =         2.240780	     128.387213
	 D(3,2,5,14)      =        -1.880961	    -107.771120
	 D(3,2,5,15)      =         0.132513	       7.592442
	*D(3,4,8,20)      =         0.364806	      20.901843
	 D(3,4,8,21)      =         3.070242	     175.911896
	 D(4,3,2,5)       =        -1.193099	     -68.359551
	*D(5,2,1,10)      =         1.117589	      64.033125
	 D(5,2,1,11)      =        -3.066597	    -175.703069
	 D(5,2,1,12)      =        -1.053794	     -60.377943
	 D(5,2,3,6)       =         2.989030	     171.258821
	 D(5,2,3,7)       =         0.958506	      54.918336
	 D(6,3,4,8)       =        -0.906197	     -51.921288
	 D(6,3,4,9)       =         2.257002	     129.316678
	 D(7,3,4,8)       =         1.074734	      61.577700
	 D(7,3,4,9)       =        -2.045252	    -117.184334
	 D(9,4,8,20)      =        -2.797748	    -160.299142
	 D(9,4,8,21)      =        -0.092312	      -5.289089
	 D(11,1,10,16)    =        -1.156708	     -66.274489
	 D(11,1,10,17)    =         0.929412	      53.251401
	 D(11,1,10,22)    =         3.014347	     172.709367
	 D(12,1,10,16)    =         3.094826	     177.320470
	 D(12,1,10,17)    =        -1.102239	     -63.153640
	 D(12,1,10,22)    =         0.982696	      56.304326
	 D(14,5,13,18)    =         0.992220	      56.850047
	 D(14,5,13,19)    =         3.073354	     176.090232
	 D(14,5,13,23)    =        -1.111674	     -63.694213
	 D(15,5,13,18)    =        -1.008999	     -57.811358
	 D(15,5,13,19)    =         1.072135	      61.428827
	 D(15,5,13,23)    =        -3.112893	    -178.355618
	 R(5,9)           =         5.768055	       3.052323
	 R(9,13)          =         6.265796	       3.315717
	 R(10,13)         =         6.533225	       3.457234

	Current energy   :      -421.6374218387

	Generating empirical Hessian (Schlegel '84) for each fragment.
	Taking RFO optimization step.
	Going to follow RFO solution 1.
	Using RFO vector 1.
	Norm of target step-size    0.29056
	Projected energy change by RFO approximation:        -0.0034661462

	Back-transformation to cartesian coordinates...
	Successfully converged to displaced geometry.

	Back-transformation to cartesian coordinates to adjust frozen coordinates...
	Successfully converged to displaced geometry.

	--- Internal Coordinate Step in ANG or DEG, aJ/ANG or AJ/DEG ---
	 ---------------------------------------------------------------------------
	   Coordinate                Previous        Force       Change         New 
	   ----------                --------       ------       ------       ------
	    1 R(1,2)          =      1.493542    -0.085088    -0.019461     1.474080
	    2 R(1,10)         =      1.542112    -0.092349    -0.021162     1.520949
	    3 R(1,11)         =      1.103379    -0.055493    -0.010150     1.093229
	    4 R(1,12)         =      1.103973     0.003847     0.001056     1.105030
	    5 R(2,3)          =      1.476188    -0.097620    -0.017894     1.458294
	    6 R(2,5)          =      1.510254    -0.110904    -0.024657     1.485597
	    7 R(3,4)          =      1.550641    -0.096959    -0.024272     1.526369
	    8 R(3,6)          =      1.104556    -0.053778    -0.009862     1.094694
	    9 R(3,7)          =      1.104759     0.001953     0.000707     1.105467
	   10 R(4,8)          =      1.371954    -0.000047     0.000161     1.372116
	   11 R(4,9)          =      1.231544     0.062367     0.004389     1.235934
	   12 R(5,13)         =      1.538773    -0.071784    -0.016099     1.522675
	   13 R(5,14)         =      1.102775    -0.015423    -0.002746     1.100029
	   14 R(5,15)         =      1.102227    -0.055548    -0.010363     1.091864
	   15 R(8,20)         =      1.005787    -0.016312    -0.001907     1.003880
	   16 R(8,21)         =      1.006449    -0.011536    -0.001509     1.004941
	   17 R(10,16)        =      1.091449    -0.009360    -0.001379     1.090071
	   18 R(10,17)        =      1.091356     0.003798     0.000818     1.092174
	   19 R(10,22)        =      1.090410     0.003359     0.000925     1.091334
	   20 R(13,18)        =      1.091019     0.017242     0.003466     1.094485
	   21 R(13,19)        =      1.092086    -0.022516    -0.003959     1.088127
	   22 R(13,23)        =      1.090083     0.001834     0.000425     1.090508
	   23 B(1,2,3)        =    111.236060    -0.000168    -0.576633   110.659427
	   24 B(1,2,5)        =    113.423495    -0.000052    -0.723400   112.700095
	   25 B(1,10,16)      =    110.873212    -0.000240    -1.167945   109.705268
	   26 B(1,10,17)      =    110.528380    -0.000141    -0.503878   110.024503
	   27 B(1,10,22)      =    111.588597     0.000031     0.107507   111.696104
	   28 B(2,1,10)       =    113.211736     0.000308    -0.265666   112.946070
	   29 B(2,1,11)       =    108.177705    -0.000255    -1.158735   107.018970
	   30 B(2,1,12)       =    109.391546     0.000153     1.752003   111.143549
	   31 B(2,3,4)        =    114.179332     0.000120    -0.038959   114.140374
	   32 B(2,3,6)        =    110.127960    -0.000297    -2.264651   107.863309
	   33 B(2,3,7)        =    110.844948     0.000224     2.126014   112.970962
	   34 B(2,5,13)       =    111.307463     0.000558     1.175193   112.482656
	   35 B(2,5,14)       =    110.423358    -0.000246    -1.122051   109.301307
	   36 B(2,5,15)       =    110.474332    -0.000357    -1.946836   108.527496
	   37 B(3,2,5)        =    111.578472     0.000262     1.792586   113.371057
	   38 B(3,4,8)        =    113.523955    -0.000155    -0.241749   113.282205
	   39 B(3,4,9)        =    124.557626     0.000286     0.278037   124.835663
	   40 B(4,3,6)        =    106.993242     0.000106     0.242560   107.235803
	   41 B(4,3,7)        =    108.786838    -0.000277    -1.183586   107.603252
	   42 B(4,8,20)       =    119.799723     0.000329     2.161762   121.961485
	   43 B(4,8,21)       =    116.953197     0.000000     0.311613   117.264810
	   44 B(5,13,18)      =    110.835633    -0.000038     0.001405   110.837038
	   45 B(5,13,19)      =    110.196794    -0.000358    -1.673374   108.523419
	   46 B(5,13,23)      =    111.689099    -0.000103    -0.584532   111.104567
	   47 B(6,3,7)        =    105.479094     0.000120     1.146508   106.625602
	   48 B(8,4,9)        =    121.906523    -0.000134    -0.359808   121.546715
	   49 B(10,1,11)      =    108.488611    -0.000062     0.106570   108.595181
	   50 B(10,1,12)      =    111.042384    -0.000291    -1.375579   109.666806
	   51 B(11,1,12)      =    106.246628     0.000134     0.998862   107.245489
	   52 B(13,5,14)      =    111.064459    -0.000178    -0.263118   110.801341
	   53 B(13,5,15)      =    108.646883    -0.000055     0.277922   108.924805
	   54 B(14,5,15)      =    104.715221     0.000250     1.889696   106.604917
	   55 B(16,10,17)     =    107.835698     0.000208     0.990400   108.826098
	   56 B(16,10,22)     =    108.456850     0.000072     0.060693   108.517543
	   57 B(17,10,22)     =    107.410877     0.000089     0.592990   108.003867
	   58 B(18,13,19)     =    107.797714     0.000237     1.251780   109.049494
	   59 B(18,13,23)     =    108.052689     0.000094     0.543873   108.596562
	   60 B(19,13,23)     =    108.136384     0.000195     0.546565   108.682949
	   61 B(20,8,21)      =    118.413812    -0.000228    -0.487871   117.925941
	   62 *D(1,2,3,4)     =    163.883338    -0.000000    -0.000000   163.883338
	   63 D(1,2,3,6)      =     43.501711    -0.000000     1.330823    44.832534
	   64 D(1,2,3,7)      =    -72.838775    -0.000023     0.083476   -72.755299
	   65 *D(1,2,5,13)    =   -105.040982    -0.000000    -0.000000  -105.040982
	   66 D(1,2,5,14)     =     18.800684    -0.000002    -0.325555    18.475129
	   67 D(1,2,5,15)     =    134.164247    -0.000014     0.205003   134.369249
	   68 D(2,1,10,16)    =     53.812131    -0.000033    -0.725722    53.086409
	   69 D(2,1,10,17)    =    173.338021    -0.000029    -0.558380   172.779641
	   70 D(2,1,10,22)    =    -67.204013    -0.000021    -0.078801   -67.282814
	   71 *D(2,3,4,8)     =   -174.037827     0.000000    -0.000000  -174.037827
	   72 D(2,3,4,9)      =      7.200139     0.000036     5.351003    12.551141
	   73 D(2,5,13,18)    =   -179.672934     0.000005     0.071228  -179.601706
	   74 D(2,5,13,19)    =    -60.432749     0.000014     0.555375   -59.877374
	   75 D(2,5,13,23)    =     59.782807    -0.000001    -0.225040    59.557766
	   76 D(3,2,1,10)     =   -169.214725     0.000040     1.365050  -167.849675
	   77 D(3,2,1,11)     =    -48.950919     0.000026     0.555434   -48.395484
	   78 D(3,2,1,12)     =     66.374208     0.000050     2.025421    68.399629
	   79 D(3,2,5,13)     =    128.387213     0.000012    -0.111164   128.276050
	   80 D(3,2,5,14)     =   -107.771120     0.000010    -0.436719  -108.207839
	   81 D(3,2,5,15)     =      7.592442    -0.000002     0.093839     7.686281
	   82 *D(3,4,8,20)    =     20.901843     0.000000    -0.000000    20.901843
	   83 D(3,4,8,21)     =    175.911896     0.000043     5.475826   181.387722
	   84 D(4,3,2,5)      =    -68.359551     0.000001    -0.005944   -68.365496
	   85 *D(5,2,1,10)    =     64.033125     0.000000     0.000000    64.033125
	   86 D(5,2,1,11)     =   -175.703069    -0.000014    -0.809615  -176.512684
	   87 D(5,2,1,12)     =    -60.377943     0.000010     0.660371   -59.717572
	   88 D(5,2,3,6)      =    171.258821     0.000001     1.324879   172.583700
	   89 D(5,2,3,7)      =     54.918336    -0.000022     0.077531    54.995867
	   90 D(6,3,4,8)      =    -51.921288    -0.000051    -2.711059   -54.632347
	   91 D(6,3,4,9)      =    129.316678    -0.000015     2.639944   131.956621
	   92 D(7,3,4,8)      =     61.577700    -0.000038    -1.834337    59.743363
	   93 D(7,3,4,9)      =   -117.184334    -0.000002     3.516666  -113.667668
	   94 D(9,4,8,20)     =   -160.299142    -0.000034    -5.144040  -165.443182
	   95 D(9,4,8,21)     =     -5.289089     0.000009     0.331787    -4.957302
	   96 D(11,1,10,16)   =    -66.274489     0.000006     0.820196   -65.454293
	   97 D(11,1,10,17)   =     53.251401     0.000009     0.987538    54.238939
	   98 D(11,1,10,22)   =    172.709367     0.000018     1.467117   174.176483
	   99 D(12,1,10,16)   =    177.320470     0.000015     0.326358   177.646827
	  100 D(12,1,10,17)   =    -63.153640     0.000018     0.493699   -62.659941
	  101 D(12,1,10,22)   =     56.304326     0.000027     0.973278    57.277604
	  102 D(14,5,13,18)   =     56.850047     0.000015     0.872142    57.722188
	  103 D(14,5,13,19)   =    176.090232     0.000024     1.356289   177.446520
	  104 D(14,5,13,23)   =    -63.694213     0.000010     0.575874   -63.118339
	  105 D(15,5,13,18)   =    -57.811358    -0.000024    -1.429453   -59.240811
	  106 D(15,5,13,19)   =     61.428827    -0.000015    -0.945306    60.483521
	  107 D(15,5,13,23)   =   -178.355618    -0.000030    -1.725721  -180.081339
	  108 R(5,9)          =      3.052323    -0.036486    -0.037567     3.014756
	  109 R(9,13)         =      3.315717     0.009796    -0.012485     3.303231
	  110 R(10,13)        =      3.457234    -0.033890    -0.052440     3.404794
	 ---------------------------------------------------------------------------
	Successfully symmetrized geometry.

  ==> Convergence Check <==

  Measures of convergence in internal coordinates in au.
  Criteria marked as inactive (o), active & met (*), and active & unmet ( ).
  --------------------------------------------------------------------------------------------- ~
   Step     Total Energy     Delta E     MAX Force     RMS Force      MAX Disp      RMS Disp    ~
  --------------------------------------------------------------------------------------------- ~
    Convergence Criteria             o    2.50e-03 *    1.70e-03 *    1.00e-02 *    6.70e-03 *  ~
  --------------------------------------------------------------------------------------------- ~
      1    -421.63742184   -4.22e+02 o    1.35e-02      3.59e-03      9.91e-02      2.76e-02    ~
  ---------------------------------------------------------------------------------------------

	Writing optimization data to binary file.
	Structure for next step:
	Cartesian Geometry (in Angstrom)
	    C     1.6154991214  -0.4533510399  -1.3433189736
	    N     0.6057675650  -0.1162368642  -0.3236578760
	    C    -0.7354188677  -0.1559703154  -0.8948508407
	    C    -1.8543293958  -0.2059313124   0.1421377942
	    C     0.9075814389   1.1547436014   0.3838125561
	    H    -0.8150870163  -1.0633924397  -1.5019695855
	    H    -0.9424669661   0.6950538672  -1.5693476484
	    N    -3.0989525626  -0.3735558877  -0.4105985364
	    O    -1.7067820995   0.0063064217   1.3507389654
	    C     2.9915578859  -0.7159781477  -0.7510551000
	    H     1.2726353873  -1.3621754421  -1.8449484224
	    H     1.6860375164   0.3380218810  -2.1113316812
	    C     1.4349595576   0.9253193210   1.7936973443
	    H     1.6240661284   1.7405640687  -0.2107700987
	    H    -0.0083664701   1.7463694406   0.4402520423
	    H     2.9159240492  -1.4667309893   0.0356492654
	    H     3.6680298626  -1.0839616988  -1.5255345241
	    H     1.6414343884   1.8777116318   2.2919083690
	    H     0.6806684602   0.3839015693   2.3610875479
	    H    -3.2247600773  -0.7534863875  -1.3312509698
	    H    -3.8829154262  -0.3932055896   0.2178296767
	    H     3.4270540627   0.1895894173  -0.3252603146
	    H     2.3515857144   0.3347423464   1.7787973184
			--------------------------
			 OPTKING Finished Execution 
			--------------------------

    Structure for next step:
    Molecular point group: c1
    Full point group: C1

    Geometry (in Angstrom), charge = 0, multiplicity = 1:

    C            1.611031539511    -0.461194448855    -1.343069262607
    N            0.601299979131    -0.124080271825    -0.323408161022
    C           -0.739886458832    -0.163813723221    -0.894601128015
    C           -1.858796991292    -0.213774720372     0.142387510935
    C            0.903113854243     1.146900198806     0.384062273808
    H           -0.819554607725    -1.071235851094    -1.501719875182
    H           -0.946934558084     0.687210462778    -1.569097938375
    N           -3.103420163025    -0.381399296304    -0.410348821816
    O           -1.711249694456    -0.001536985447     1.350988686976
    C            2.987090309364    -0.723821557672    -0.750805386778
    H            1.268167804044    -1.370018854600    -1.844698713436
    H            1.681569934755     0.330178475129    -2.111081973284
    C            1.430491974986     0.917475917507     1.793947067576
    H            1.619598546491     1.732720668409    -0.210520383324
    H           -0.012834058396     1.738526040323     0.440501760266
    H            2.911456472384    -1.474574402277     0.035898981760
    H            3.663562288772    -1.091805110246    -1.525284813851
    H            1.636966806559     1.869868231995     2.292158094245
    H            0.676200874670     0.376058163608     2.361337273399
    H           -3.229227678197    -0.761329797654    -1.331001258774
    H           -3.887383029744    -0.401048998311     0.218079393776
    H            3.422586487958     0.181746010869    -0.325010599640
    H            2.347118135399     0.326898940517     1.779047041567


Scratch directory: /scratch/bdw2292/Psi4-4_27_Index_0-farH_in17/

Scratch directory: /scratch/bdw2292/Psi4-4_27_Index_0-farH_in17/
gradient() will perform analytic gradient computation.

*** tstart() called on node74.bme.utexas.edu
*** at Wed Jun  8 11:07:05 2022

   => Loading Basis Set <=

    Name: 6-311G
    Role: ORBITAL
    Keyword: BASIS
    atoms 1, 3-5, 10, 13    entry C          line    92 file /home/bdw2292/miniconda3/envs/newamoebamdpoltype/share/psi4/basis/6-311g.gbs 
    atoms 2, 8              entry N          line   109 file /home/bdw2292/miniconda3/envs/newamoebamdpoltype/share/psi4/basis/6-311g.gbs 
    atoms 6-7, 11-12, 14-23 entry H          line    21 file /home/bdw2292/miniconda3/envs/newamoebamdpoltype/share/psi4/basis/6-311g.gbs 
    atoms 9                 entry O          line   126 file /home/bdw2292/miniconda3/envs/newamoebamdpoltype/share/psi4/basis/6-311g.gbs 

   => WB97X-D: Empirical Dispersion <=

    Chai and Head-Gordon Dispersion Correction
    Chai, J.-D.; Head-Gordon, M. (2010), J. Chem. Phys., 132: 6615-6620

        s6 =       1.000000


         ---------------------------------------------------------
                                   SCF
               by Justin Turney, Rob Parrish, Andy Simmonett
                          and Daniel G. A. Smith
                              RKS Reference
                        2 Threads,   7788 MiB Core
         ---------------------------------------------------------

  ==> Geometry <==

    Molecular point group: c1
    Full point group: C1

    Geometry (in Angstrom), charge = 0, multiplicity = 1:

       Center              X                  Y                   Z               Mass       
    ------------   -----------------  -----------------  -----------------  -----------------
         C            1.611031539511    -0.461194448855    -1.343069262607    12.000000000000
         N            0.601299979131    -0.124080271825    -0.323408161022    14.003074004430
         C           -0.739886458832    -0.163813723221    -0.894601128015    12.000000000000
         C           -1.858796991292    -0.213774720372     0.142387510935    12.000000000000
         C            0.903113854243     1.146900198806     0.384062273808    12.000000000000
         H           -0.819554607725    -1.071235851094    -1.501719875182     1.007825032230
         H           -0.946934558084     0.687210462778    -1.569097938375     1.007825032230
         N           -3.103420163025    -0.381399296304    -0.410348821816    14.003074004430
         O           -1.711249694456    -0.001536985447     1.350988686976    15.994914619570
         C            2.987090309364    -0.723821557672    -0.750805386778    12.000000000000
         H            1.268167804044    -1.370018854600    -1.844698713436     1.007825032230
         H            1.681569934755     0.330178475129    -2.111081973284     1.007825032230
         C            1.430491974986     0.917475917507     1.793947067576    12.000000000000
         H            1.619598546491     1.732720668409    -0.210520383324     1.007825032230
         H           -0.012834058396     1.738526040323     0.440501760266     1.007825032230
         H            2.911456472384    -1.474574402277     0.035898981760     1.007825032230
         H            3.663562288772    -1.091805110246    -1.525284813851     1.007825032230
         H            1.636966806559     1.869868231995     2.292158094245     1.007825032230
         H            0.676200874670     0.376058163608     2.361337273399     1.007825032230
         H           -3.229227678197    -0.761329797654    -1.331001258774     1.007825032230
         H           -3.887383029744    -0.401048998311     0.218079393776     1.007825032230
         H            3.422586487958     0.181746010869    -0.325010599640     1.007825032230
         H            2.347118135399     0.326898940517     1.779047041567     1.007825032230

  Running in c1 symmetry.

  Rotational constants: A =      0.08640  B =      0.03271  C =      0.02573 [cm^-1]
  Rotational constants: A =   2590.18324  B =    980.53095  C =    771.36213 [MHz]
  Nuclear repulsion =  484.652030064367636

  Charge       = 0
  Multiplicity = 1
  Electrons    = 72
  Nalpha       = 36
  Nbeta        = 36

  ==> Algorithm <==

  SCF Algorithm Type is DF.
  DIIS enabled.
  MOM disabled.
  Fractional occupation disabled.
  Guess Type is READ.
  Energy threshold   = 1.00e-08
  Density threshold  = 1.00e-08
  Integral threshold = 1.00e-12

  ==> Primary Basis <==

  Basis Set: 6-311G
    Blend: 6-311G
    Number of shells: 105
    Number of basis functions: 159
    Number of Cartesian functions: 159
    Spherical Harmonics?: true
    Max angular momentum: 1

  ==> DFT Potential <==

   => LibXC <=

    Version 5.1.5
    S. Lehtola, C. Steigemann, M. J. Oliveira, and M. A. Marques, SoftwareX 7, 1 (2018) (10.1016/j.softx.2017.11.002)

   => Composite Functional: WB97X-D <= 

    wB97X-D Hyb-GGA Exchange-Correlation Functional

    J.-D. Chai and M. Head-Gordon, Phys. Chem. Chem. Phys. 10, 6615 (2008) (10.1039/B810189B)

    Deriv               =              1
    GGA                 =           TRUE
    Meta                =          FALSE

    Exchange Hybrid     =           TRUE
    MP2 Hybrid          =          FALSE

   => Exchange-Correlation Functionals <=

    1.0000   wB97X-D range-separated functional

   => Exact (HF) Exchange <=

    0.7780            HF,LR [omega = 0.2000]
    0.2220               HF 

   => LibXC Density Thresholds  <==

    XC_HYB_GGA_XC_WB97X_D:  1.00E-14 

   => Molecular Quadrature <=

    Radial Scheme          =       TREUTLER
    Pruning Scheme         =           NONE
    Nuclear Scheme         =       TREUTLER

    BS radius alpha        =              1
    Pruning alpha          =              1
    Radial Points          =             75
    Spherical Points       =            302
    Total Points           =         481478
    Total Blocks           =           3522
    Max Points             =            256
    Max Functions          =            143
    Weights Tolerance      =       1.00E-15

   => Loading Basis Set <=

    Name: (6-311G AUX)
    Role: JKFIT
    Keyword: DF_BASIS_SCF
    atoms 1, 3-5, 10, 13    entry C          line   125 file /home/bdw2292/miniconda3/envs/newamoebamdpoltype/share/psi4/basis/cc-pvtz-jkfit.gbs 
    atoms 2, 8              entry N          line   177 file /home/bdw2292/miniconda3/envs/newamoebamdpoltype/share/psi4/basis/cc-pvtz-jkfit.gbs 
    atoms 6-7, 11-12, 14-23 entry H          line    51 file /home/bdw2292/miniconda3/envs/newamoebamdpoltype/share/psi4/basis/cc-pvtz-jkfit.gbs 
    atoms 9                 entry O          line   229 file /home/bdw2292/miniconda3/envs/newamoebamdpoltype/share/psi4/basis/cc-pvtz-jkfit.gbs 

   => Loading Basis Set <=

    Name: 6-311G
    Role: ORBITAL
    Keyword: BASIS
    atoms 1, 3-5, 10, 13    entry C          line    92 file /home/bdw2292/miniconda3/envs/newamoebamdpoltype/share/psi4/basis/6-311g.gbs 
    atoms 2, 8              entry N          line   109 file /home/bdw2292/miniconda3/envs/newamoebamdpoltype/share/psi4/basis/6-311g.gbs 
    atoms 6-7, 11-12, 14-23 entry H          line    21 file /home/bdw2292/miniconda3/envs/newamoebamdpoltype/share/psi4/basis/6-311g.gbs 
    atoms 9                 entry O          line   126 file /home/bdw2292/miniconda3/envs/newamoebamdpoltype/share/psi4/basis/6-311g.gbs 

  Reading orbitals from file /scratch/bdw2292/Psi4-4_27_Index_0-farH_in17/4_27_Index_0-opt-1_2-3-164.default.1090531.180.npy, no projection.

  ==> Integral Setup <==

  DFHelper Memory: AOs need 0.587 GiB; user supplied 4.290 GiB. Using in-core AOs.

  ==> MemDFJK: Density-Fitted J/K Matrices <==

    J tasked:                   Yes
    K tasked:                   Yes
    wK tasked:                  Yes
    Omega:                2.000E-01
    OpenMP threads:               2
    Memory [MiB]:              4393
    Algorithm:                 Core
    Schwarz Cutoff:           1E-12
    Mask sparsity (%):      10.4743
    Fitting Condition:        1E-10

   => Auxiliary Basis Set <=

  Basis Set: (6-311G AUX)
    Blend: CC-PVTZ-JKFIT
    Number of shells: 365
    Number of basis functions: 1131
    Number of Cartesian functions: 1354
    Spherical Harmonics?: true
    Max angular momentum: 4

  Cached 100.0% of DFT collocation blocks in 1.414 [GiB].

  Minimum eigenvalue in the overlap matrix is 2.3689722141E-03.
  Reciprocal condition number of the overlap matrix is 3.1637706202E-04.
    Using symmetric orthogonalization.

  ==> Pre-Iterations <==

  SCF Guess: Orbitals guess was supplied from a previous computation.

   -------------------------------------------------------
    Irrep   Nso     Nmo     Nalpha   Nbeta   Ndocc  Nsocc
   -------------------------------------------------------
     A        159     159      36      36      36       0
   -------------------------------------------------------
    Total     159     159      36      36      36       0
   -------------------------------------------------------

  ==> Iterations <==

                           Total Energy        Delta E     RMS |[F,P]|

   @DF-RKS iter   0:  -421.65008459025023   -4.21650e+02   1.48305e-03 
   @DF-RKS iter   1:  -421.63962583248070    1.04588e-02   2.04924e-04 DIIS
   @DF-RKS iter   2:  -421.64044004313433   -8.14211e-04   1.69300e-04 DIIS
   @DF-RKS iter   3:  -421.64068758639957   -2.47543e-04   7.37169e-05 DIIS
   @DF-RKS iter   4:  -421.64075020737914   -6.26210e-05   2.45739e-05 DIIS
   @DF-RKS iter   5:  -421.64075891666550   -8.70929e-06   4.05916e-06 DIIS
   @DF-RKS iter   6:  -421.64075924015310   -3.23488e-07   2.41393e-06 DIIS
   @DF-RKS iter   7:  -421.64075931793030   -7.77772e-08   5.15455e-07 DIIS
   @DF-RKS iter   8:  -421.64075932479756   -6.86725e-09   1.95873e-07 DIIS
   @DF-RKS iter   9:  -421.64075932537469   -5.77131e-10   3.11445e-08 DIIS
   @DF-RKS iter  10:  -421.64075932541419   -3.95062e-11   1.30006e-08 DIIS
   @DF-RKS iter  11:  -421.64075932541891   -4.71800e-12   5.26595e-09 DIIS
  Energy and wave function converged.


  ==> Post-Iterations <==

   Electrons on quadrature grid:
      Ntotal   =   71.9999482208 ; deviation = -5.178e-05 

    Orbital Energies [Eh]
    ---------------------

    Doubly Occupied:                                                      

       1A    -19.218137     2A    -14.458557     3A    -14.424195  
       4A    -10.406081     5A    -10.327893     6A    -10.309139  
       7A    -10.296966     8A    -10.268301     9A    -10.246921  
      10A     -1.155355    11A     -1.027410    12A     -1.017464  
      13A     -0.863700    14A     -0.851596    15A     -0.791425  
      16A     -0.719653    17A     -0.694441    18A     -0.663066  
      19A     -0.635370    20A     -0.585210    21A     -0.571275  
      22A     -0.559628    23A     -0.539135    24A     -0.524201  
      25A     -0.496153    26A     -0.484451    27A     -0.474178  
      28A     -0.464226    29A     -0.453079    30A     -0.438634  
      31A     -0.429498    32A     -0.417635    33A     -0.402757  
      34A     -0.356446    35A     -0.338947    36A     -0.286247  

    Virtual:                                                              

      37A      0.085522    38A      0.104965    39A      0.125732  
      40A      0.142481    41A      0.156180    42A      0.164401  
      43A      0.171428    44A      0.185999    45A      0.195357  
      46A      0.202862    47A      0.216886    48A      0.222992  
      49A      0.228104    50A      0.242085    51A      0.249869  
      52A      0.252686    53A      0.283137    54A      0.305712  
      55A      0.313844    56A      0.327448    57A      0.347094  
      58A      0.367742    59A      0.379571    60A      0.395598  
      61A      0.423789    62A      0.428002    63A      0.443645  
      64A      0.446995    65A      0.467603    66A      0.480895  
      67A      0.492652    68A      0.508476    69A      0.523112  
      70A      0.555697    71A      0.559770    72A      0.588972  
      73A      0.605619    74A      0.612014    75A      0.627184  
      76A      0.628511    77A      0.662402    78A      0.667138  
      79A      0.671997    80A      0.675316    81A      0.686601  
      82A      0.692358    83A      0.695581    84A      0.703287  
      85A      0.706483    86A      0.713698    87A      0.725239  
      88A      0.729137    89A      0.741015    90A      0.758187  
      91A      0.791583    92A      0.793932    93A      0.810467  
      94A      0.821591    95A      0.887211    96A      0.903780  
      97A      0.946159    98A      0.985772    99A      1.002472  
     100A      1.063856   101A      1.088006   102A      1.099158  
     103A      1.111218   104A      1.138891   105A      1.228633  
     106A      1.303236   107A      1.385509   108A      1.517697  
     109A      1.725402   110A      2.244397   111A      2.308016  
     112A      2.342037   113A      2.347206   114A      2.370760  
     115A      2.381195   116A      2.386058   117A      2.390468  
     118A      2.397994   119A      2.407051   120A      2.423849  
     121A      2.431828   122A      2.451627   123A      2.470627  
     124A      2.673947   125A      2.853503   126A      2.906191  
     127A      2.929629   128A      2.937871   129A      2.950541  
     130A      2.966431   131A      2.978853   132A      3.013437  
     133A      3.043798   134A      3.053553   135A      3.082842  
     136A      3.109670   137A      3.168143   138A      3.172556  
     139A      3.209353   140A      3.230698   141A      3.340035  
     142A      3.780536   143A      3.983503   144A      4.042391  
     145A      4.140128   146A      4.185725   147A      4.193880  
     148A      4.991710   149A      5.068840   150A      5.138928  
     151A     23.444659   152A     23.501402   153A     23.546264  
     154A     23.635191   155A     23.670765   156A     23.720165  
     157A     35.479516   158A     35.579015   159A     50.048093  

    Final Occupation by Irrep:
              A 
    DOCC [    36 ]

  @DF-RKS Final Energy:  -421.64075932541891

   => Energetics <=

    Nuclear Repulsion Energy =            484.6520300643676364
    One-Electron Energy =               -1532.2095219734610509
    Two-Electron Energy =                 667.2265121547329727
    DFT Exchange-Correlation Energy =     -41.2947251703098033
    Empirical Dispersion Energy =          -0.0150544007487325
    VV10 Nonlocal Energy =                  0.0000000000000000
    Total Energy =                       -421.6407593254189692

Computation Completed


Properties will be evaluated at   0.000000,   0.000000,   0.000000 [a0]

Properties computed using the SCF density matrix

  Nuclear Dipole Moment: [e a0]
     X:     9.6843      Y:     1.0075      Z:    -3.0770

  Electronic Dipole Moment: [e a0]
     X:   -10.2456      Y:    -1.2483      Z:     1.4988

  Dipole Moment: [e a0]
     X:    -0.5613      Y:    -0.2407      Z:    -1.5782     Total:     1.6923

  Dipole Moment: [D]
     X:    -1.4267      Y:    -0.6119      Z:    -4.0114     Total:     4.3013


*** tstop() called on node74.bme.utexas.edu at Wed Jun  8 11:07:35 2022
Module time:
	user time   =      55.81 seconds =       0.93 minutes
	system time =       2.16 seconds =       0.04 minutes
	total time  =         30 seconds =       0.50 minutes
Total time:
	user time   =     147.19 seconds =       2.45 minutes
	system time =       6.06 seconds =       0.10 minutes
	total time  =         79 seconds =       1.32 minutes

*** tstart() called on node74.bme.utexas.edu
*** at Wed Jun  8 11:07:35 2022


         ------------------------------------------------------------
                                   SCF GRAD                          
                          Rob Parrish, Justin Turney,                
                       Andy Simmonett, and Alex Sokolov              
         ------------------------------------------------------------

  ==> Geometry <==

    Molecular point group: c1
    Full point group: C1

    Geometry (in Angstrom), charge = 0, multiplicity = 1:

       Center              X                  Y                   Z               Mass       
    ------------   -----------------  -----------------  -----------------  -----------------
         C            1.611031539511    -0.461194448855    -1.343069262607    12.000000000000
         N            0.601299979131    -0.124080271825    -0.323408161022    14.003074004430
         C           -0.739886458832    -0.163813723221    -0.894601128015    12.000000000000
         C           -1.858796991292    -0.213774720372     0.142387510935    12.000000000000
         C            0.903113854243     1.146900198806     0.384062273808    12.000000000000
         H           -0.819554607725    -1.071235851094    -1.501719875182     1.007825032230
         H           -0.946934558084     0.687210462778    -1.569097938375     1.007825032230
         N           -3.103420163025    -0.381399296304    -0.410348821816    14.003074004430
         O           -1.711249694456    -0.001536985447     1.350988686976    15.994914619570
         C            2.987090309364    -0.723821557672    -0.750805386778    12.000000000000
         H            1.268167804044    -1.370018854600    -1.844698713436     1.007825032230
         H            1.681569934755     0.330178475129    -2.111081973284     1.007825032230
         C            1.430491974986     0.917475917507     1.793947067576    12.000000000000
         H            1.619598546491     1.732720668409    -0.210520383324     1.007825032230
         H           -0.012834058396     1.738526040323     0.440501760266     1.007825032230
         H            2.911456472384    -1.474574402277     0.035898981760     1.007825032230
         H            3.663562288772    -1.091805110246    -1.525284813851     1.007825032230
         H            1.636966806559     1.869868231995     2.292158094245     1.007825032230
         H            0.676200874670     0.376058163608     2.361337273399     1.007825032230
         H           -3.229227678197    -0.761329797654    -1.331001258774     1.007825032230
         H           -3.887383029744    -0.401048998311     0.218079393776     1.007825032230
         H            3.422586487958     0.181746010869    -0.325010599640     1.007825032230
         H            2.347118135399     0.326898940517     1.779047041567     1.007825032230

  Nuclear repulsion =  484.652030064367636

  ==> Basis Set <==

  Basis Set: 6-311G
    Blend: 6-311G
    Number of shells: 105
    Number of basis functions: 159
    Number of Cartesian functions: 159
    Spherical Harmonics?: true
    Max angular momentum: 1

  ==> DFJKGrad: Density-Fitted SCF Gradients <==

    Gradient:                    1
    J tasked:                  Yes
    K tasked:                  Yes
    wK tasked:                 Yes
    Omega:               2.000E-01
    OpenMP threads:              2
    Integrals threads:           2
    Memory [MiB]:             5841
    Schwarz Cutoff:          1E-12
    Fitting Condition:       1E-10

   => Auxiliary Basis Set <=

  Basis Set: (6-311G AUX)
    Blend: CC-PVTZ-JKFIT
    Number of shells: 365
    Number of basis functions: 1131
    Number of Cartesian functions: 1354
    Spherical Harmonics?: true
    Max angular momentum: 4

  ==> DFT Potential <==

   => LibXC <=

    Version 5.1.5
    S. Lehtola, C. Steigemann, M. J. Oliveira, and M. A. Marques, SoftwareX 7, 1 (2018) (10.1016/j.softx.2017.11.002)

   => Composite Functional: WB97X-D <= 

    wB97X-D Hyb-GGA Exchange-Correlation Functional

    J.-D. Chai and M. Head-Gordon, Phys. Chem. Chem. Phys. 10, 6615 (2008) (10.1039/B810189B)

    Deriv               =              1
    GGA                 =           TRUE
    Meta                =          FALSE

    Exchange Hybrid     =           TRUE
    MP2 Hybrid          =          FALSE

   => Exchange-Correlation Functionals <=

    1.0000   wB97X-D range-separated functional

   => Exact (HF) Exchange <=

    0.7780            HF,LR [omega = 0.2000]
    0.2220               HF 

   => LibXC Density Thresholds  <==

    XC_HYB_GGA_XC_WB97X_D:  1.00E-14 

   => Molecular Quadrature <=

    Radial Scheme          =       TREUTLER
    Pruning Scheme         =           NONE
    Nuclear Scheme         =       TREUTLER

    BS radius alpha        =              1
    Pruning alpha          =              1
    Radial Points          =             75
    Spherical Points       =            302
    Total Points           =         481478
    Total Blocks           =           3522
    Max Points             =            256
    Max Functions          =            143
    Weights Tolerance      =       1.00E-15


  -Total Gradient:
     Atom            X                  Y                   Z
    ------   -----------------  -----------------  -----------------
       1        0.002204203828     0.004236363370    -0.002104280811
       2        0.000664703762    -0.006277182854     0.006004579870
       3       -0.000446842545     0.006712696339    -0.004400442122
       4        0.000822584624    -0.009826213127     0.007904035630
       5        0.001250284013     0.001101206944     0.000087065518
       6       -0.000114468841    -0.000836107884     0.000418566945
       7        0.000335538098    -0.000461201151    -0.000654819135
       8       -0.001248566521     0.007901608231    -0.003993358529
       9       -0.000971231220     0.001567232934    -0.002649273973
      10       -0.000896843938    -0.000116921512    -0.000228391886
      11       -0.000888171416    -0.000377347983     0.000590083355
      12        0.000213268666    -0.000384330638     0.000265779592
      13        0.000391716070     0.000055390383    -0.000506842448
      14        0.000065879383    -0.000149988842    -0.000247899136
      15       -0.000722142318    -0.000097864158    -0.000797375869
      16       -0.000485126630    -0.000127190293    -0.000160801045
      17       -0.000244233238    -0.000413666335    -0.000411307198
      18       -0.000079225202     0.000710162328     0.000515578034
      19       -0.000207470856     0.000007944885    -0.000238494162
      20        0.000023240935    -0.003370701815     0.000548488641
      21        0.000142392087    -0.000477925257     0.000464904323
      22       -0.000443270185     0.000693488070     0.000056075201
      23        0.000125262661    -0.000231456274    -0.000519402495


*** tstop() called on node74.bme.utexas.edu at Wed Jun  8 11:07:49 2022
Module time:
	user time   =      27.90 seconds =       0.47 minutes
	system time =       0.42 seconds =       0.01 minutes
	total time  =         14 seconds =       0.23 minutes
Total time:
	user time   =     175.09 seconds =       2.92 minutes
	system time =       6.48 seconds =       0.11 minutes
	total time  =         93 seconds =       1.55 minutes

			-----------------------------------------
			 OPTKING 2.0: for geometry optimizations 
			  - R.A. King,  Bethel University        
			-----------------------------------------
	At level 1: Red. Int., RFO, no backsteps, dynamic trust

	Previous internal coordinate definitions found.
	---Fragment 1 Geometry and Gradient---
	 C           3.0444083892       -0.8715311989       -2.5380330738
	 N           1.1362922798       -0.2344777313       -0.6111528511
	 C          -1.3981827711       -0.3095630725       -1.6905511235
	 C          -3.5126172364       -0.4039756740        0.2690733994
	 C           1.7066378446        2.1673272690        0.7257725126
	 H          -1.5487337535       -2.0243423743       -2.8378392813
	 H          -1.7894469735        1.2986395652       -2.9651653675
	 N          -5.8646141603       -0.7207402145       -0.7754468891
	 O          -3.2337932548       -0.0029044816        2.5529986170
	 C           5.6447825967       -1.3678245077       -1.4188165545
	 H           2.3964898308       -2.5889604219       -3.4859753524
	 H           3.1777066375        0.6239468905       -3.9893667579
	 C           2.7032380574        1.7337782108        3.3900686413
	 H           3.0605976861        3.2743675152       -0.3978258683
	 H          -0.0242528554        3.2853380782        0.8324276847
	 H           5.5018553590       -2.7865417719        0.0678392437
	 H           6.9231293693       -2.0632126407       -2.8823705615
	 H           3.0934189409        3.5335388492        4.3315510344
	 H           1.2778344589        0.7106469365        4.4622807366
	 H          -6.1023559085       -1.4387048087       -2.5152278517
	 H          -7.3460892710       -0.7578727697        0.4121103278
	 H           6.4677511029        0.3434501849       -0.6141810212
	 H           4.4354104600        0.6177494683        3.3619116729
	             0.0022042038        0.0042363634       -0.0021042808
	             0.0006647038       -0.0062771829        0.0060045799
	            -0.0004468425        0.0067126963       -0.0044004421
	             0.0008225846       -0.0098262131        0.0079040356
	             0.0012502840        0.0011012069        0.0000870655
	            -0.0001144688       -0.0008361079        0.0004185669
	             0.0003355381       -0.0004612012       -0.0006548191
	            -0.0012485665        0.0079016082       -0.0039933585
	            -0.0009712312        0.0015672329       -0.0026492740
	            -0.0008968439       -0.0001169215       -0.0002283919
	            -0.0008881714       -0.0003773480        0.0005900834
	             0.0002132687       -0.0003843306        0.0002657796
	             0.0003917161        0.0000553904       -0.0005068424
	             0.0000658794       -0.0001499888       -0.0002478991
	            -0.0007221423       -0.0000978642       -0.0007973759
	            -0.0004851266       -0.0001271903       -0.0001608010
	            -0.0002442332       -0.0004136663       -0.0004113072
	            -0.0000792252        0.0007101623        0.0005155780
	            -0.0002074709        0.0000079449       -0.0002384942
	             0.0000232409       -0.0033707018        0.0005484886
	             0.0001423921       -0.0004779253        0.0004649043
	            -0.0004432702        0.0006934881        0.0000560752
	             0.0001252627       -0.0002314563       -0.0005194025

	---Fragment 1 Intrafragment Coordinates---
	 - Coordinate -           - BOHR/RAD -       - ANG/DEG -
	 R(1,2)           =         2.785608	       1.474080
	 R(1,10)          =         2.874178	       1.520949
	 R(1,11)          =         2.065903	       1.093229
	 R(1,12)          =         2.088203	       1.105030
	 R(2,3)           =         2.755776	       1.458294
	 R(2,5)           =         2.807371	       1.485597
	 R(3,4)           =         2.884419	       1.526369
	 R(3,6)           =         2.068672	       1.094694
	 R(3,7)           =         2.089030	       1.105467
	 R(4,8)           =         2.592923	       1.372116
	 R(4,9)           =         2.335576	       1.235934
	 R(5,13)          =         2.877438	       1.522675
	 R(5,14)          =         2.078754	       1.100029
	 R(5,15)          =         2.063324	       1.091864
	 R(8,20)          =         1.897059	       1.003880
	 R(8,21)          =         1.899063	       1.004941
	 R(10,16)         =         2.059935	       1.090071
	 R(10,17)         =         2.063910	       1.092174
	 R(10,22)         =         2.062323	       1.091334
	 R(13,18)         =         2.068277	       1.094485
	 R(13,19)         =         2.056262	       1.088127
	 R(13,23)         =         2.060761	       1.090508
	 B(1,2,3)         =         1.931371	     110.659427
	 B(1,2,5)         =         1.966988	     112.700095
	 B(1,10,16)       =         1.914718	     109.705268
	 B(1,10,17)       =         1.920290	     110.024503
	 B(1,10,22)       =         1.949465	     111.696104
	 B(2,1,10)        =         1.971281	     112.946070
	 B(2,1,11)        =         1.867833	     107.018970
	 B(2,1,12)        =         1.939821	     111.143549
	 B(2,3,4)         =         1.992125	     114.140374
	 B(2,3,6)         =         1.882570	     107.863309
	 B(2,3,7)         =         1.971715	     112.970962
	 B(2,5,13)        =         1.963193	     112.482656
	 B(2,5,14)        =         1.907668	     109.301307
	 B(2,5,15)        =         1.894162	     108.527496
	 B(3,2,5)         =         1.978698	     113.371057
	 B(3,4,8)         =         1.977147	     113.282205
	 B(3,4,9)         =         2.178793	     124.835663
	 B(4,3,6)         =         1.871618	     107.235803
	 B(4,3,7)         =         1.878031	     107.603252
	 B(4,8,20)        =         2.128629	     121.961485
	 B(4,8,21)        =         2.046657	     117.264810
	 B(5,13,18)       =         1.934471	     110.837038
	 B(5,13,19)       =         1.894091	     108.523419
	 B(5,13,23)       =         1.939141	     111.104567
	 B(6,3,7)         =         1.860968	     106.625602
	 B(8,4,9)         =         2.121390	     121.546715
	 B(10,1,11)       =         1.895343	     108.595181
	 B(10,1,12)       =         1.914047	     109.666806
	 B(11,1,12)       =         1.871787	     107.245489
	 B(13,5,14)       =         1.933848	     110.801341
	 B(13,5,15)       =         1.901096	     108.924805
	 B(14,5,15)       =         1.860607	     106.604917
	 B(16,10,17)      =         1.899374	     108.826098
	 B(16,10,22)      =         1.893988	     108.517543
	 B(17,10,22)      =         1.885023	     108.003867
	 B(18,13,19)      =         1.903273	     109.049494
	 B(18,13,23)      =         1.895368	     108.596562
	 B(19,13,23)      =         1.896875	     108.682949
	 B(20,8,21)       =         2.058196	     117.925941
	*D(1,2,3,4)       =         2.860304	     163.883338
	 D(1,2,3,6)       =         0.782475	      44.832534
	 D(1,2,3,7)       =        -1.269820	     -72.755299
	*D(1,2,5,13)      =        -1.833311	    -105.040982
	 D(1,2,5,14)      =         0.322452	      18.475129
	 D(1,2,5,15)      =         2.345186	     134.369249
	 D(2,1,10,16)     =         0.926533	      53.086409
	 D(2,1,10,17)     =         3.015574	     172.779641
	 D(2,1,10,22)     =        -1.174307	     -67.282814
	*D(2,3,4,8)       =        -3.037533	    -174.037827
	 D(2,3,4,9)       =         0.219059	      12.551141
	 D(2,5,13,18)     =        -3.134641	    -179.601706
[...]
	 B(1,10,17)       =         1.922532	     110.152966
	 B(1,10,22)       =         1.951875	     111.834206
	 B(2,1,10)        =         1.971784	     112.974879
	 B(2,1,11)        =         1.879890	     107.709756
	 B(2,1,12)        =         1.938912	     111.091484
	 B(2,3,4)         =         1.998795	     114.522532
	 B(2,3,6)         =         1.889940	     108.285599
	 B(2,3,7)         =         1.968643	     112.794920
	 B(2,5,13)        =         1.969509	     112.844541
	 B(2,5,14)        =         1.906752	     109.248843
	 B(2,5,15)        =         1.902115	     108.983136
	 B(3,2,5)         =         2.003067	     114.767266
	 B(3,4,8)         =         1.987914	     113.899067
	 B(3,4,9)         =         2.176395	     124.698231
	 B(4,3,6)         =         1.882546	     107.861925
	 B(4,3,7)         =         1.860895	     106.621429
	 B(4,8,20)        =         2.133444	     122.237362
	 B(4,8,21)        =         2.047496	     117.312892
	 B(5,13,18)       =         1.930820	     110.627857
	 B(5,13,19)       =         1.898482	     108.774996
	 B(5,13,23)       =         1.940123	     111.160874
	 B(6,3,7)         =         1.856235	     106.354436
	 B(8,4,9)         =         2.115831	     121.228164
	 B(10,1,11)       =         1.892793	     108.449052
	 B(10,1,12)       =         1.910125	     109.442102
	 B(11,1,12)       =         1.866554	     106.945686
	 B(13,5,14)       =         1.928771	     110.510437
	 B(13,5,15)       =         1.894686	     108.557526
	 B(14,5,15)       =         1.858489	     106.483594
	 B(16,10,17)      =         1.900109	     108.868228
	 B(16,10,22)      =         1.890094	     108.294397
	 B(17,10,22)      =         1.880120	     107.722950
	 B(18,13,19)      =         1.904261	     109.106142
	 B(18,13,23)      =         1.891976	     108.402253
	 B(19,13,23)      =         1.897632	     108.726333
	 B(20,8,21)       =         2.056680	     117.839067
	*D(1,2,3,4)       =         2.860304	     163.883338
	 D(1,2,3,6)       =         0.759186	      43.498173
	 D(1,2,3,7)       =        -1.290221	     -73.924199
	*D(1,2,5,13)      =        -1.833311	    -105.040982
	 D(1,2,5,14)      =         0.319635	      18.313715
	 D(1,2,5,15)      =         2.343747	     134.286839
	 D(2,1,10,16)     =         0.954041	      54.662499
	 D(2,1,10,17)     =         3.047378	     174.601892
	 D(2,1,10,22)     =        -1.145600	     -65.638028
	*D(2,3,4,8)       =        -3.037533	    -174.037827
	 D(2,3,4,9)       =         0.187297	      10.731338
	 D(2,5,13,18)     =         3.125642	     179.086085
	 D(2,5,13,19)     =        -1.066192	     -61.088328
	 D(2,5,13,23)     =         1.022665	      58.594399
	 D(3,2,1,10)      =        -2.856779	    -163.681353
	 D(3,2,1,11)      =        -0.766756	     -43.931890
	 D(3,2,1,12)      =         1.272036	      72.882270
	 D(3,2,5,13)      =         2.162577	     123.906562
	 D(3,2,5,14)      =        -1.967662	    -112.738741
	 D(3,2,5,15)      =         0.056451	       3.234384
	*D(3,4,8,20)      =         0.364806	      20.901843
	 D(3,4,8,21)      =        -3.103656	    -177.826400
	 D(4,3,2,5)       =        -1.124080	     -64.405029
	*D(5,2,1,10)      =         1.117589	      64.033125
	 D(5,2,1,11)      =        -3.075574	    -176.217413
	 D(5,2,1,12)      =        -1.036782	     -59.403253
	 D(5,2,3,6)       =         3.057988	     175.209805
	 D(5,2,3,7)       =         1.008581	      57.787433
	 D(6,3,4,8)       =        -0.932319	     -53.417960
	 D(6,3,4,9)       =         2.292511	     131.351205
	 D(7,3,4,8)       =         1.055389	      60.469356
	 D(7,3,4,9)       =        -2.002966	    -114.761479
	 D(9,4,8,20)      =        -2.856810	    -163.683162
	 D(9,4,8,21)      =        -0.042087	      -2.411405
	 D(11,1,10,16)    =        -1.128548	     -64.661018
	 D(11,1,10,17)    =         0.964790	      55.278376
	 D(11,1,10,22)    =         3.054997	     175.038456
	 D(12,1,10,16)    =         3.124237	     179.005616
	 D(12,1,10,17)    =        -1.065611	     -61.054991
	 D(12,1,10,22)    =         1.024597	      58.705089
	 D(14,5,13,18)    =         0.984955	      56.433774
	 D(14,5,13,19)    =         3.076306	     176.259362
	 D(14,5,13,23)    =        -1.118021	     -64.057911
	 D(15,5,13,18)    =        -1.047181	     -59.999032
	 D(15,5,13,19)    =         1.044170	      59.826556
	 D(15,5,13,23)    =         3.133028	     179.509283
	 R(5,9)           =         5.623342	       2.975745
	 R(9,13)          =         6.061820	       3.207777
	 R(10,13)         =         6.469503	       3.423514

	Current energy   :      -421.6412714135

	Energy change for the previous step:
		Projected    :        -0.0000211577
		Actual       :        -0.0000067251

	Performing BFGS update.
	Previous computed or guess Hessian on step 1.
	Steps to be used in Hessian update: 5 4
	Taking RFO optimization step.
	Going to follow RFO solution 1.
	Using RFO vector 1.
	Norm of target step-size    0.00731
	Projected energy change by RFO approximation:        -0.0000021320

	Back-transformation to cartesian coordinates...
	Could not converge backtransformation.
	Using first guess instead.

	Back-transformation to cartesian coordinates to adjust frozen coordinates...
	Successfully converged to displaced geometry.

	--- Internal Coordinate Step in ANG or DEG, aJ/ANG or AJ/DEG ---
	 ---------------------------------------------------------------------------
	   Coordinate                Previous        Force       Change         New 
	   ----------                --------       ------       ------       ------
	    1 R(1,2)          =      1.468114     0.000902     0.000111     1.468225
	    2 R(1,10)         =      1.524863     0.000376     0.000094     1.524957
	    3 R(1,11)         =      1.092797    -0.000363    -0.000060     1.092737
	    4 R(1,12)         =      1.106185     0.000447     0.000095     1.106280
	    5 R(2,3)          =      1.451602     0.000655     0.000028     1.451630
	    6 R(2,5)          =      1.480029    -0.000572    -0.000185     1.479844
	    7 R(3,4)          =      1.521370     0.000161     0.000055     1.521426
	    8 R(3,6)          =      1.093755    -0.000354    -0.000062     1.093693
	    9 R(3,7)          =      1.107580    -0.000398    -0.000044     1.107536
	   10 R(4,8)          =      1.369161     0.001085     0.000135     1.369296
	   11 R(4,9)          =      1.238424     0.000494     0.000031     1.238455
	   12 R(5,13)         =      1.524880     0.000396     0.000066     1.524946
	   13 R(5,14)         =      1.099625     0.000265     0.000061     1.099686
	   14 R(5,15)         =      1.091773    -0.000536    -0.000093     1.091680
	   15 R(8,20)         =      1.003065    -0.000030    -0.000002     1.003063
	   16 R(8,21)         =      1.004525     0.000192     0.000028     1.004553
	   17 R(10,16)        =      1.090044     0.000302     0.000057     1.090101
	   18 R(10,17)        =      1.091932     0.000005     0.000002     1.091935
	   19 R(10,22)        =      1.090772     0.000119     0.000025     1.090797
	   20 R(13,18)        =      1.093526    -0.000027     0.000002     1.093529
	   21 R(13,19)        =      1.087510    -0.000263    -0.000059     1.087451
	   22 R(13,23)        =      1.090363     0.000241     0.000051     1.090414
	   23 B(1,2,3)        =    112.244370     0.000001     0.029638   112.274008
	   24 B(1,2,5)        =    113.617151    -0.000002     0.001245   113.618396
	   25 B(1,10,16)      =    109.886755     0.000002     0.010814   109.897569
	   26 B(1,10,17)      =    110.152966     0.000000    -0.000155   110.152810
	   27 B(1,10,22)      =    111.834206     0.000001     0.000122   111.834328
	   28 B(2,1,10)       =    112.974879    -0.000000     0.003831   112.978710
	   29 B(2,1,11)       =    107.709756     0.000000     0.001539   107.711295
	   30 B(2,1,12)       =    111.091484    -0.000000     0.002072   111.093556
	   31 B(2,3,4)        =    114.522532    -0.000002    -0.027592   114.494939
	   32 B(2,3,6)        =    108.285599    -0.000001    -0.008246   108.277353
	   33 B(2,3,7)        =    112.794920     0.000001     0.008627   112.803548
	   34 B(2,5,13)       =    112.844541    -0.000002    -0.008082   112.836459
	   35 B(2,5,14)       =    109.248843    -0.000004    -0.040324   109.208519
	   36 B(2,5,15)       =    108.983136    -0.000001     0.000398   108.983535
	   37 B(3,2,5)        =    114.767266     0.000001     0.006746   114.774013
	   38 B(3,4,8)        =    113.899067     0.000002     0.009050   113.908118
	   39 B(3,4,9)        =    124.698231    -0.000001    -0.009901   124.688330
	   40 B(4,3,6)        =    107.861925     0.000002     0.017754   107.879679
	   41 B(4,3,7)        =    106.621429     0.000000    -0.004036   106.617393
	   42 B(4,8,20)       =    122.237362    -0.000003    -0.012476   122.224887
	   43 B(4,8,21)       =    117.312892     0.000006     0.032271   117.345163
	   44 B(5,13,18)      =    110.627857    -0.000005    -0.025887   110.601969
	   45 B(5,13,19)      =    108.774996     0.000001     0.008688   108.783684
	   46 B(5,13,23)      =    111.160874     0.000006     0.025174   111.186048
	   47 B(6,3,7)        =    106.354436     0.000001     0.017482   106.371917
	   48 B(8,4,9)        =    121.228164    -0.000001     0.002913   121.231077
	   49 B(10,1,11)      =    108.449052    -0.000000    -0.005310   108.443742
	   50 B(10,1,12)      =    109.442102     0.000000    -0.000415   109.441686
	   51 B(11,1,12)      =    106.945686     0.000000    -0.002232   106.943455
	   52 B(13,5,14)      =    110.510437     0.000003     0.008649   110.519086
	   53 B(13,5,15)      =    108.557526     0.000002     0.033616   108.591142
	   54 B(14,5,15)      =    106.483594     0.000000     0.007174   106.490768
	   55 B(16,10,17)     =    108.868228    -0.000001     0.002599   108.870827
	   56 B(16,10,22)     =    108.294397    -0.000002    -0.008179   108.286218
	   57 B(17,10,22)     =    107.722950    -0.000001    -0.005565   107.717385
	   58 B(18,13,19)     =    109.106142     0.000001     0.005002   109.111143
	   59 B(18,13,23)     =    108.402253    -0.000001    -0.008550   108.393702
	   60 B(19,13,23)     =    108.726333    -0.000003    -0.004392   108.721941
	   61 B(20,8,21)      =    117.839067    -0.000003    -0.011635   117.827433
	   62 *D(1,2,3,4)     =    163.883338     0.000000    -0.000000   163.883338
	   63 D(1,2,3,6)      =     43.498173    -0.000000     0.001226    43.499399
	   64 D(1,2,3,7)      =    -73.924199    -0.000000    -0.020139   -73.944338
	   65 *D(1,2,5,13)    =   -105.040982     0.000000    -0.000000  -105.040982
	   66 D(1,2,5,14)     =     18.313715     0.000000    -0.024055    18.289659
	   67 D(1,2,5,15)     =    134.286839    -0.000000    -0.037543   134.249296
	   68 D(2,1,10,16)    =     54.662499    -0.000000    -0.045752    54.616747
	   69 D(2,1,10,17)    =    174.601892     0.000000    -0.035800   174.566092
	   70 D(2,1,10,22)    =    -65.638028    -0.000000    -0.042832   -65.680860
	   71 *D(2,3,4,8)     =   -174.037827     0.000000    -0.000000  -174.037827
	   72 D(2,3,4,9)      =     10.731338    -0.000000    -0.028435    10.702903
	   73 D(2,5,13,18)    =    179.086085    -0.000000    -0.051226   179.034858
	   74 D(2,5,13,19)    =    -61.088328    -0.000000    -0.055347   -61.143675
	   75 D(2,5,13,23)    =     58.594399    -0.000000    -0.039799    58.554600
	   76 D(3,2,1,10)     =   -163.681353     0.000000     0.039516  -163.641837
	   77 D(3,2,1,11)     =    -43.931890    -0.000000     0.036271   -43.895619
	   78 D(3,2,1,12)     =     72.882270     0.000000     0.035638    72.917908
	   79 D(3,2,5,13)     =    123.906562    -0.000000    -0.051602   123.854960
	   80 D(3,2,5,14)     =   -112.738741     0.000000    -0.075658  -112.814399
	   81 D(3,2,5,15)     =      3.234384    -0.000000    -0.089146     3.145238
	   82 *D(3,4,8,20)    =     20.901843    -0.000000    -0.000000    20.901843
	   83 D(3,4,8,21)     =   -177.826400     0.000000     0.026658  -177.799742
	   84 D(4,3,2,5)      =    -64.405029    -0.000000     0.037441   -64.367588
	   85 *D(5,2,1,10)    =     64.033125    -0.000000     0.000000    64.033125
	   86 D(5,2,1,11)     =   -176.217413    -0.000000    -0.003245  -176.220658
	   87 D(5,2,1,12)     =    -59.403253    -0.000000    -0.003877   -59.407130
	   88 D(5,2,3,6)      =    175.209805    -0.000000     0.038667   175.248473
	   89 D(5,2,3,7)      =     57.787433    -0.000000     0.017303    57.804736
	   90 D(6,3,4,8)      =    -53.417960    -0.000000    -0.015493   -53.433453
	   91 D(6,3,4,9)      =    131.351205    -0.000001    -0.043928   131.307277
	   92 D(7,3,4,8)      =     60.469356     0.000000     0.010999    60.480355
	   93 D(7,3,4,9)      =   -114.761479    -0.000000    -0.017435  -114.778915
	   94 D(9,4,8,20)     =   -163.683162     0.000000     0.026645  -163.656517
	   95 D(9,4,8,21)     =     -2.411405     0.000000     0.053303    -2.358102
	   96 D(11,1,10,16)   =    -64.661018    -0.000000    -0.046478   -64.707496
	   97 D(11,1,10,17)   =     55.278376     0.000000    -0.036527    55.241849
	   98 D(11,1,10,22)   =    175.038456    -0.000000    -0.043559   174.994897
	   99 D(12,1,10,16)   =    179.005616    -0.000000    -0.040621   178.964995
	  100 D(12,1,10,17)   =    -61.054991     0.000000    -0.030669   -61.085660
	  101 D(12,1,10,22)   =     58.705089    -0.000000    -0.037701    58.667388
	  102 D(14,5,13,18)   =     56.433774     0.000001     0.000522    56.434296
	  103 D(14,5,13,19)   =    176.259362     0.000000    -0.003598   176.255763
	  104 D(14,5,13,23)   =    -64.057911     0.000001     0.011949   -64.045962
	  105 D(15,5,13,18)   =    -59.999032    -0.000000    -0.032657   -60.031688
	  106 D(15,5,13,19)   =     59.826556    -0.000000    -0.036777    59.789778
	  107 D(15,5,13,23)   =    179.509283    -0.000000    -0.021230   179.488053
	  108 R(5,9)          =      2.975745    -0.000023    -0.001396     2.974348
	  109 R(9,13)         =      3.207777    -0.000593    -0.002670     3.205107
	  110 R(10,13)        =      3.423514    -0.000007     0.000034     3.423548
	 ---------------------------------------------------------------------------
	Successfully symmetrized geometry.

  ==> Convergence Check <==

  Measures of convergence in internal coordinates in au.
  Criteria marked as inactive (o), active & met (*), and active & unmet ( ).
  ---------------------------------------------------------------------------------------------
   Step     Total Energy     Delta E     MAX Force     RMS Force      MAX Disp      RMS Disp   
  ---------------------------------------------------------------------------------------------
    Convergence Criteria             o    2.50e-03 *    1.70e-03 *    1.00e-02 *    6.70e-03 *
  ---------------------------------------------------------------------------------------------
      6    -421.64127141   -6.73e-06 o    1.32e-04 *    3.24e-05 *    5.05e-03 *    6.97e-04 *  ~
  ---------------------------------------------------------------------------------------------


  **** Optimization is complete! (in 6 steps) ****

  ==> Optimization Summary <==

  Measures of convergence in internal coordinates in au.
  --------------------------------------------------------------------------------------------------------------- ~
   Step         Total Energy             Delta E       MAX Force       RMS Force        MAX Disp        RMS Disp  ~
  --------------------------------------------------------------------------------------------------------------- ~
      1    -421.637421838672   -421.637421838672      0.01346132      0.00359468      0.09909762      0.02758251  ~
      2    -421.640759325419     -0.003337486747      0.00216357      0.00068968      0.09490882      0.02543619  ~
      3    -421.640947586892     -0.000188261473      0.00202107      0.00057004      0.07229510      0.01722473  ~
      4    -421.641215524762     -0.000267937870      0.00414209      0.00050088      0.01579792      0.00340536  ~
      5    -421.641264688400     -0.000049163639      0.00123689      0.00015265      0.01898688      0.00263413  ~
      6    -421.641271413498     -0.000006725098      0.00013171      0.00003239      0.00504631      0.00069674  ~
  --------------------------------------------------------------------------------------------------------------- ~

	Writing optimization data to binary file.
	Final energy is   -421.6412714134983
	Final (previous) structure:
	Cartesian Geometry (in Angstrom)
	    C     1.6125760637  -0.4770119898  -1.3595103534
	    N     0.5984698389  -0.0991389348  -0.3674623370
	    C    -0.7514205444  -0.2249548042  -0.8862263216
	    C    -1.8391217601  -0.2261012325   0.1774802888
	    C     0.8840371013   1.1836196204   0.3133216113
	    H    -0.8206612171  -1.1668669615  -1.4378671578
	    H    -1.0115732842   0.5769895319  -1.6045156807
	    N    -3.0934726885  -0.4741350081  -0.3120949533
	    O    -1.6595975120   0.0570605712   1.3696564491
	    C     2.9825067163  -0.7352169457  -0.7415883305
	    H     1.2747014873  -1.3946726727  -1.8473067028
	    H     1.7037692821   0.2928202063  -2.1486164629
	    C     1.3846781058   0.9972223451   1.7415635428
	    H     1.6137899173   1.7539924514  -0.2793938633
	    H    -0.0286209578   1.7821933781   0.3403798455
	    H     2.8979735266  -1.4804092939   0.0494485124
	    H     3.6745463390  -1.1038657306  -1.5015196863
	    H     1.5992484450   1.9646839796   2.2039244459
	    H     0.6152807434   0.4896867177   2.3187235272
	    H    -3.2435973372  -0.9307525582  -1.1924941046
	    H    -3.8558297787  -0.4535915729   0.3417093678
	    H     3.4118134332   0.1714857479  -0.3133717074
	    H     2.2936964313   0.3955206120   1.7646390797
	Saving final (previous) structure.
	Cleaning optimization helper files.
			--------------------------
			 OPTKING Finished Execution 
			--------------------------

    Final optimized geometry and variables:
    Molecular point group: c1
    Full point group: C1

    Geometry (in Angstrom), charge = 0, multiplicity = 1:

    C            1.612576069990    -0.477011991694    -1.359510358759
    N            0.598469841243    -0.099138935189    -0.367462338450
    C           -0.751420547324    -0.224954805078    -0.886226325130
    C           -1.839121767364    -0.226101233382     0.177480289449
    C            0.884037104810     1.183619625076     0.313321612497
    H           -0.820661220336    -1.166866966055    -1.437867163423
    H           -1.011573288138     0.576989534126    -1.604515686987
    N           -3.093472700637    -0.474135009986    -0.312094954493
    O           -1.659597518475     0.057060571453     1.369656454489
    C            2.982506728041    -0.735216948555    -0.741588333380
    H            1.274701492314    -1.394672678173    -1.847306710079
    H            1.703769288783     0.292820207465    -2.148616471341
    C            1.384678111281     0.997222349025     1.741563549615
    H            1.613789923641     1.753992458306    -0.279393864429
    H           -0.028620957871     1.782193385105     0.340379846852
    H            2.897973537943    -1.480409299755     0.049448512623
    H            3.674546353468    -1.103865734945    -1.501519692159
    H            1.599248451330     1.964683987369     2.203924454566
    H            0.615280745806     0.489686719592     2.318723536312
    H           -3.243597349916    -0.930752561852    -1.192494109251
    H           -3.855829793901    -0.453591574664     0.341709369153
    H            3.411813446641     0.171485748610    -0.313371708638
    H            2.293696440354     0.395520613530     1.764639086685

	Removing binary optimization data file.
	Cleaning optimization helper files.

    Psi4 stopped on: Wednesday, 08 June 2022 11:10AM
    Psi4 wall time for execution: 0:04:20.50

*** Psi4 exiting successfully. Buy a developer a beer!
