
    -----------------------------------------------------------------------
          Psi4: An Open-Source Ab Initio Electronic Structure Package
                               Psi4 1.5 release

                         Git: Rev {HEAD} e9f4d6d 


    D. G. A. Smith, L. A. Burns, A. C. Simmonett, R. M. Parrish,
    M. C. Schieber, R. Galvelis, P. Kraus, H. Kruse, R. Di Remigio,
    A. Alenaizan, A. M. James, S. Lehtola, J. P. Misiewicz, M. Scheurer,
    R. A. Shaw, J. B. Schriber, Y. Xie, Z. L. Glick, D. A. Sirianni,
    J. S. O'Brien, J. M. Waldrop, A. Kumar, E. G. Hohenstein,
    B. P. Pritchard, B. R. Brooks, H. F. Schaefer III, A. Yu. Sokolov,
    K. Patkowski, A. E. DePrince III, U. Bozkaya, R. A. King,
    F. A. Evangelista, J. M. Turney, T. D. Crawford, C. D. Sherrill,
    J. Chem. Phys. 152(18) 184108 (2020). https://doi.org/10.1063/5.0006002

                            Additional Code Authors
    E. T. Seidl, C. L. Janssen, E. F. Valeev, M. L. Leininger,
    J. F. Gonthier, R. M. Richard, H. R. McAlexander, M. Saitow, X. Wang,
    P. Verma, M. H. Lechner, and A. Jiang

             Previous Authors, Complete List of Code Contributors,
                       and Citations for Specific Modules
    https://github.com/psi4/psi4/blob/master/codemeta.json
    https://github.com/psi4/psi4/graphs/contributors
    http://psicode.org/psi4manual/master/introduction.html#citing-psifour

    -----------------------------------------------------------------------


    Psi4 started on: Wednesday, 08 June 2022 12:00PM

    Process ID: 1101387
    Host:       node74.bme.utexas.edu
    PSIDATADIR: /home/bdw2292/miniconda3/envs/newamoebamdpoltype/share/psi4
    Memory:     500.0 MiB
    Threads:    1
    
  ==> Input File <==

--------------------------------------------------------------------------
molecule { 
0 1
 C    1.381675   -0.173616   -1.385382
 N    0.639913   -0.330886   -0.106618
 C   -0.758155   -0.730580   -0.318913
 C   -1.728279    0.380523   -0.812404
 C    0.792319    0.755851    0.904060
 H   -1.156178   -1.145332    0.624538
 H   -0.813055   -1.577589   -1.024663
 N   -3.038350   -0.023111   -0.864253
 O   -1.379102    1.505758   -1.173439
 C    2.908748   -0.177885   -1.185282
 H    1.104445   -0.996614   -2.065496
 H    1.045663    0.758324   -1.871992
 C    1.710527    0.306479    2.052099
 H    1.175949    1.662621    0.408703
 H   -0.189416    1.054365    1.306930
 H    3.227664   -1.073594   -0.649685
 H    3.419854   -0.163840   -2.149294
 H    1.839230    1.109723    2.779209
 H    1.290066   -0.555419    2.572720
 H   -3.341520   -0.813771   -0.321721
 H   -3.720583    0.668676   -1.126719
 H    3.241314    0.697242   -0.625508
 H    2.698681    0.027989    1.684781
}
set optking { 
  frozen_dihedral = ("
    1 2 3 4
    10 1 2 5
    13 5 2 1
    2 3 4 8
    3 4 8 20
  ")
}
set {
  geom_maxiter 400
  g_convergence GAU_LOOSE
  dynamic_level 1
}
memory 8.166666666666666GB
set_num_threads(2)
psi4_io.set_default_path("/scratch/bdw2292/Psi4-4_27_Index_0-farH_in17")
for _ in range(1):
  try:
    set opt_coordinates both
    optimize('wb97x-d/6-311G')
    break
  except OptimizationConvergenceError:
    break
  else:
    try:
      set opt_coordinates cartesian
      optimize('wb97x-d/6-311G')
      break
    except OptimizationConvergenceError:
      pass
clean()
--------------------------------------------------------------------------

  Memory set to   7.606 GiB by Python driver.
  Threads set to 2 by Python driver.

Scratch directory: /scratch/bdw2292/Psi4-4_27_Index_0-farH_in17/

Scratch directory: /scratch/bdw2292/Psi4-4_27_Index_0-farH_in17/
gradient() will perform analytic gradient computation.

*** tstart() called on node74.bme.utexas.edu
*** at Wed Jun  8 12:00:58 2022

   => Loading Basis Set <=

    Name: 6-311G
    Role: ORBITAL
    Keyword: BASIS
    atoms 1, 3-5, 10, 13    entry C          line    92 file /home/bdw2292/miniconda3/envs/newamoebamdpoltype/share/psi4/basis/6-311g.gbs 
    atoms 2, 8              entry N          line   109 file /home/bdw2292/miniconda3/envs/newamoebamdpoltype/share/psi4/basis/6-311g.gbs 
    atoms 6-7, 11-12, 14-23 entry H          line    21 file /home/bdw2292/miniconda3/envs/newamoebamdpoltype/share/psi4/basis/6-311g.gbs 
    atoms 9                 entry O          line   126 file /home/bdw2292/miniconda3/envs/newamoebamdpoltype/share/psi4/basis/6-311g.gbs 

   => WB97X-D: Empirical Dispersion <=

    Chai and Head-Gordon Dispersion Correction
    Chai, J.-D.; Head-Gordon, M. (2010), J. Chem. Phys., 132: 6615-6620

        s6 =       1.000000


         ---------------------------------------------------------
                                   SCF
               by Justin Turney, Rob Parrish, Andy Simmonett
                          and Daniel G. A. Smith
                              RKS Reference
                        2 Threads,   7788 MiB Core
         ---------------------------------------------------------

  ==> Geometry <==

    Molecular point group: c1
    Full point group: C1

    Geometry (in Angstrom), charge = 0, multiplicity = 1:

       Center              X                  Y                   Z               Mass       
    ------------   -----------------  -----------------  -----------------  -----------------
         C            1.336045495454    -0.351209141041    -1.064302262571    12.000000000000
         N            0.594283495454    -0.508479141041     0.214461737429    14.003074004430
         C           -0.803784504546    -0.908173141041     0.002166737429    12.000000000000
         C           -1.773908504546     0.202929858959    -0.491324262571    12.000000000000
         C            0.746689495454     0.578257858959     1.225139737429    12.000000000000
         H           -1.201807504546    -1.322925141041     0.945617737429     1.007825032230
         H           -0.858684504546    -1.755182141041    -0.703583262571     1.007825032230
         N           -3.083979504546    -0.200704141041    -0.543173262571    14.003074004430
         O           -1.424731504546     1.328164858959    -0.852359262571    15.994914619570
         C            2.863118495454    -0.355478141041    -0.864202262571    12.000000000000
         H            1.058815495454    -1.174207141041    -1.744416262571     1.007825032230
         H            1.000033495454     0.580730858959    -1.550912262571     1.007825032230
         C            1.664897495454     0.128885858959     2.373178737429    12.000000000000
         H            1.130319495454     1.485027858959     0.729782737429     1.007825032230
         H           -0.235045504546     0.876771858959     1.628009737429     1.007825032230
         H            3.182034495454    -1.251187141041    -0.328605262571     1.007825032230
         H            3.374224495454    -0.341433141041    -1.828214262571     1.007825032230
         H            1.793600495454     0.932129858959     3.100288737429     1.007825032230
         H            1.244436495454    -0.733012141041     2.893799737429     1.007825032230
         H           -3.387149504546    -0.991364141041    -0.000641262571     1.007825032230
         H           -3.766212504546     0.491082858959    -0.805639262571     1.007825032230
         H            3.195684495454     0.519648858959    -0.304428262571     1.007825032230
         H            2.653051495454    -0.149604141041     2.005860737429     1.007825032230

  Running in c1 symmetry.

  Rotational constants: A =      0.08063  B =      0.03174  C =      0.02724 [cm^-1]
  Rotational constants: A =   2417.33715  B =    951.61949  C =    816.77773 [MHz]
  Nuclear repulsion =  482.421854276194892

  Charge       = 0
  Multiplicity = 1
  Electrons    = 72
  Nalpha       = 36
  Nbeta        = 36

  ==> Algorithm <==

  SCF Algorithm Type is DF.
  DIIS enabled.
  MOM disabled.
  Fractional occupation disabled.
  Guess Type is SAD.
  Energy threshold   = 1.00e-08
  Density threshold  = 1.00e-08
  Integral threshold = 1.00e-12

  ==> Primary Basis <==

  Basis Set: 6-311G
    Blend: 6-311G
    Number of shells: 105
    Number of basis functions: 159
    Number of Cartesian functions: 159
    Spherical Harmonics?: true
    Max angular momentum: 1

  ==> DFT Potential <==

   => LibXC <=

    Version 5.1.5
    S. Lehtola, C. Steigemann, M. J. Oliveira, and M. A. Marques, SoftwareX 7, 1 (2018) (10.1016/j.softx.2017.11.002)

   => Composite Functional: WB97X-D <= 

    wB97X-D Hyb-GGA Exchange-Correlation Functional

    J.-D. Chai and M. Head-Gordon, Phys. Chem. Chem. Phys. 10, 6615 (2008) (10.1039/B810189B)

    Deriv               =              1
    GGA                 =           TRUE
    Meta                =          FALSE

    Exchange Hybrid     =           TRUE
    MP2 Hybrid          =          FALSE

   => Exchange-Correlation Functionals <=

    1.0000   wB97X-D range-separated functional

   => Exact (HF) Exchange <=

    0.7780            HF,LR [omega = 0.2000]
    0.2220               HF 

   => LibXC Density Thresholds  <==

    XC_HYB_GGA_XC_WB97X_D:  1.00E-14 

   => Molecular Quadrature <=

    Radial Scheme          =       TREUTLER
    Pruning Scheme         =           NONE
    Nuclear Scheme         =       TREUTLER

    BS radius alpha        =              1
    Pruning alpha          =              1
    Radial Points          =             75
    Spherical Points       =            302
    Total Points           =         481808
    Total Blocks           =           3529
    Max Points             =            256
    Max Functions          =            138
    Weights Tolerance      =       1.00E-15

   => Loading Basis Set <=

    Name: (6-311G AUX)
    Role: JKFIT
    Keyword: DF_BASIS_SCF
    atoms 1, 3-5, 10, 13    entry C          line   125 file /home/bdw2292/miniconda3/envs/newamoebamdpoltype/share/psi4/basis/cc-pvtz-jkfit.gbs 
    atoms 2, 8              entry N          line   177 file /home/bdw2292/miniconda3/envs/newamoebamdpoltype/share/psi4/basis/cc-pvtz-jkfit.gbs 
    atoms 6-7, 11-12, 14-23 entry H          line    51 file /home/bdw2292/miniconda3/envs/newamoebamdpoltype/share/psi4/basis/cc-pvtz-jkfit.gbs 
    atoms 9                 entry O          line   229 file /home/bdw2292/miniconda3/envs/newamoebamdpoltype/share/psi4/basis/cc-pvtz-jkfit.gbs 

  ==> Integral Setup <==

  DFHelper Memory: AOs need 0.587 GiB; user supplied 4.296 GiB. Using in-core AOs.

  ==> MemDFJK: Density-Fitted J/K Matrices <==

    J tasked:                   Yes
    K tasked:                   Yes
    wK tasked:                  Yes
    Omega:                2.000E-01
    OpenMP threads:               2
    Memory [MiB]:              4399
    Algorithm:                 Core
    Schwarz Cutoff:           1E-12
    Mask sparsity (%):      10.5138
    Fitting Condition:        1E-10

   => Auxiliary Basis Set <=

  Basis Set: (6-311G AUX)
    Blend: CC-PVTZ-JKFIT
    Number of shells: 365
    Number of basis functions: 1131
    Number of Cartesian functions: 1354
    Spherical Harmonics?: true
    Max angular momentum: 4

  Cached 100.0% of DFT collocation blocks in 1.408 [GiB].

  Minimum eigenvalue in the overlap matrix is 2.5800982419E-03.
  Reciprocal condition number of the overlap matrix is 3.5304589899E-04.
    Using symmetric orthogonalization.

  ==> Pre-Iterations <==

  SCF Guess: Superposition of Atomic Densities via on-the-fly atomic UHF (no occupation information).

   -------------------------
    Irrep   Nso     Nmo    
   -------------------------
     A        159     159 
   -------------------------
    Total     159     159
   -------------------------

  ==> Iterations <==

                           Total Energy        Delta E     RMS |[F,P]|

   @DF-RKS iter SAD:  -420.71033147730105   -4.20710e+02   0.00000e+00 
   @DF-RKS iter   1:  -421.15578860663965   -4.45457e-01   6.43388e-03 DIIS
   @DF-RKS iter   2:  -421.23710398709198   -8.13154e-02   6.32284e-03 DIIS
   @DF-RKS iter   3:  -421.62330465122830   -3.86201e-01   1.37506e-03 DIIS
   @DF-RKS iter   4:  -421.64048071997877   -1.71761e-02   3.19551e-04 DIIS
   @DF-RKS iter   5:  -421.64145469693102   -9.73977e-04   1.17429e-04 DIIS
   @DF-RKS iter   6:  -421.64160696090926   -1.52264e-04   2.21638e-05 DIIS
   @DF-RKS iter   7:  -421.64161347903922   -6.51813e-06   6.75193e-06 DIIS
   @DF-RKS iter   8:  -421.64161412396493   -6.44926e-07   1.99630e-06 DIIS
   @DF-RKS iter   9:  -421.64161419985209   -7.58872e-08   9.85311e-07 DIIS
   @DF-RKS iter  10:  -421.64161421424348   -1.43914e-08   1.98123e-07 DIIS
   @DF-RKS iter  11:  -421.64161421543395   -1.19047e-09   5.56605e-08 DIIS
   @DF-RKS iter  12:  -421.64161421553592   -1.01977e-10   2.25578e-08 DIIS
   @DF-RKS iter  13:  -421.64161421554979   -1.38698e-11   5.57977e-09 DIIS
  Energy and wave function converged.


  ==> Post-Iterations <==

   Electrons on quadrature grid:
      Ntotal   =   71.9999709376 ; deviation = -2.906e-05 

    Orbital Energies [Eh]
    ---------------------

    Doubly Occupied:                                                      

       1A    -19.221071     2A    -14.459584     3A    -14.421488  
       4A    -10.404977     5A    -10.328940     6A    -10.303613  
       7A    -10.302095     8A    -10.264816     9A    -10.260322  
      10A     -1.159171    11A     -1.019990    12A     -1.012486  
      13A     -0.852730    14A     -0.851103    15A     -0.786199  
      16A     -0.720965    17A     -0.695089    18A     -0.663159  
      19A     -0.632109    20A     -0.576328    21A     -0.571377  
      22A     -0.553930    23A     -0.528049    24A     -0.521686  
      25A     -0.498346    26A     -0.494778    27A     -0.469603  
      28A     -0.462109    29A     -0.453433    30A     -0.438419  
      31A     -0.425685    32A     -0.415195    33A     -0.409540  
      34A     -0.359777    35A     -0.348947    36A     -0.276093  

    Virtual:                                                              

      37A      0.083146    38A      0.104777    39A      0.127761  
      40A      0.149146    41A      0.151110    42A      0.170093  
      43A      0.171131    44A      0.181999    45A      0.190789  
      46A      0.205638    47A      0.215388    48A      0.219631  
      49A      0.230910    50A      0.235522    51A      0.239841  
      52A      0.248573    53A      0.292775    54A      0.302131  
      55A      0.310389    56A      0.314337    57A      0.338997  
      58A      0.366578    59A      0.368974    60A      0.400320  
      61A      0.406176    62A      0.429037    63A      0.434496  
      64A      0.442926    65A      0.455080    66A      0.483325  
      67A      0.493224    68A      0.518214    69A      0.520150  
      70A      0.560317    71A      0.563279    72A      0.583431  
      73A      0.596096    74A      0.598685    75A      0.618891  
      76A      0.642762    77A      0.656946    78A      0.661089  
      79A      0.668783    80A      0.677601    81A      0.678256  
      82A      0.690376    83A      0.691909    84A      0.696374  
      85A      0.702697    86A      0.716659    87A      0.718746  
      88A      0.722133    89A      0.732151    90A      0.744904  
      91A      0.773871    92A      0.803796    93A      0.806737  
      94A      0.835446    95A      0.879992    96A      0.905589  
      97A      0.929494    98A      0.986210    99A      1.018545  
     100A      1.041703   101A      1.064026   102A      1.115161  
     103A      1.136067   104A      1.144522   105A      1.226560  
     106A      1.251280   107A      1.325606   108A      1.521303  
     109A      1.721764   110A      2.239368   111A      2.332091  
     112A      2.343234   113A      2.355696   114A      2.362005  
     115A      2.364333   116A      2.377519   117A      2.386652  
     118A      2.390592   119A      2.409561   120A      2.422169  
     121A      2.431014   122A      2.442862   123A      2.465693  
     124A      2.694634   125A      2.856571   126A      2.895116  
     127A      2.922646   128A      2.931765   129A      2.954940  
     130A      2.958702   131A      2.983216   132A      3.013462  
     133A      3.026935   134A      3.050932   135A      3.071832  
     136A      3.126975   137A      3.151497   138A      3.168030  
     139A      3.218764   140A      3.253697   141A      3.304513  
     142A      3.783620   143A      4.005382   144A      4.042753  
     145A      4.135429   146A      4.162712   147A      4.182797  
     148A      5.003556   149A      5.056966   150A      5.102141  
     151A     23.435496   152A     23.501018   153A     23.540065  
     154A     23.632295   155A     23.665200   156A     23.709436  
     157A     35.469985   158A     35.576824   159A     50.047839  

    Final Occupation by Irrep:
              A 
    DOCC [    36 ]

  @DF-RKS Final Energy:  -421.64161421554979

   => Energetics <=

    Nuclear Repulsion Energy =            482.4218542761948925
    One-Electron Energy =               -1527.8439285109470802
    Two-Electron Energy =                 665.0524940634402355
    DFT Exchange-Correlation Energy =     -41.2569542987123583
    Empirical Dispersion Energy =          -0.0150797455255028
    VV10 Nonlocal Energy =                  0.0000000000000000
    Total Energy =                       -421.6416142155498505

Computation Completed


Properties will be evaluated at   0.000000,   0.000000,   0.000000 [a0]

Properties computed using the SCF density matrix

  Nuclear Dipole Moment: [e a0]
     X:     8.6094      Y:    -2.6479      Z:     3.7813

  Electronic Dipole Moment: [e a0]
     X:    -9.5160      Y:     1.7815      Z:    -3.4140

  Dipole Moment: [e a0]
     X:    -0.9065      Y:    -0.8664      Z:     0.3674     Total:     1.3067

  Dipole Moment: [D]
     X:    -2.3042      Y:    -2.2022      Z:     0.9338     Total:     3.3213


*** tstop() called on node74.bme.utexas.edu at Wed Jun  8 12:01:32 2022
Module time:
	user time   =      61.96 seconds =       1.03 minutes
	system time =       3.29 seconds =       0.05 minutes
	total time  =         34 seconds =       0.57 minutes
Total time:
	user time   =      61.96 seconds =       1.03 minutes
	system time =       3.29 seconds =       0.05 minutes
	total time  =         34 seconds =       0.57 minutes

*** tstart() called on node74.bme.utexas.edu
*** at Wed Jun  8 12:01:32 2022


         ------------------------------------------------------------
                                   SCF GRAD                          
                          Rob Parrish, Justin Turney,                
                       Andy Simmonett, and Alex Sokolov              
         ------------------------------------------------------------

  ==> Geometry <==

    Molecular point group: c1
    Full point group: C1

    Geometry (in Angstrom), charge = 0, multiplicity = 1:

       Center              X                  Y                   Z               Mass       
    ------------   -----------------  -----------------  -----------------  -----------------
         C            1.336045495454    -0.351209141041    -1.064302262571    12.000000000000
         N            0.594283495454    -0.508479141041     0.214461737429    14.003074004430
         C           -0.803784504546    -0.908173141041     0.002166737429    12.000000000000
         C           -1.773908504546     0.202929858959    -0.491324262571    12.000000000000
         C            0.746689495454     0.578257858959     1.225139737429    12.000000000000
         H           -1.201807504546    -1.322925141041     0.945617737429     1.007825032230
         H           -0.858684504546    -1.755182141041    -0.703583262571     1.007825032230
         N           -3.083979504546    -0.200704141041    -0.543173262571    14.003074004430
         O           -1.424731504546     1.328164858959    -0.852359262571    15.994914619570
         C            2.863118495454    -0.355478141041    -0.864202262571    12.000000000000
         H            1.058815495454    -1.174207141041    -1.744416262571     1.007825032230
         H            1.000033495454     0.580730858959    -1.550912262571     1.007825032230
         C            1.664897495454     0.128885858959     2.373178737429    12.000000000000
         H            1.130319495454     1.485027858959     0.729782737429     1.007825032230
         H           -0.235045504546     0.876771858959     1.628009737429     1.007825032230
         H            3.182034495454    -1.251187141041    -0.328605262571     1.007825032230
         H            3.374224495454    -0.341433141041    -1.828214262571     1.007825032230
         H            1.793600495454     0.932129858959     3.100288737429     1.007825032230
         H            1.244436495454    -0.733012141041     2.893799737429     1.007825032230
         H           -3.387149504546    -0.991364141041    -0.000641262571     1.007825032230
         H           -3.766212504546     0.491082858959    -0.805639262571     1.007825032230
         H            3.195684495454     0.519648858959    -0.304428262571     1.007825032230
         H            2.653051495454    -0.149604141041     2.005860737429     1.007825032230

  Nuclear repulsion =  482.421854276194892

  ==> Basis Set <==

  Basis Set: 6-311G
    Blend: 6-311G
    Number of shells: 105
    Number of basis functions: 159
    Number of Cartesian functions: 159
    Spherical Harmonics?: true
    Max angular momentum: 1

  ==> DFJKGrad: Density-Fitted SCF Gradients <==

    Gradient:                    1
    J tasked:                  Yes
    K tasked:                  Yes
    wK tasked:                 Yes
    Omega:               2.000E-01
    OpenMP threads:              2
    Integrals threads:           2
    Memory [MiB]:             5841
    Schwarz Cutoff:          1E-12
    Fitting Condition:       1E-10

   => Auxiliary Basis Set <=

  Basis Set: (6-311G AUX)
    Blend: CC-PVTZ-JKFIT
    Number of shells: 365
    Number of basis functions: 1131
    Number of Cartesian functions: 1354
    Spherical Harmonics?: true
    Max angular momentum: 4

  ==> DFT Potential <==

   => LibXC <=

    Version 5.1.5
    S. Lehtola, C. Steigemann, M. J. Oliveira, and M. A. Marques, SoftwareX 7, 1 (2018) (10.1016/j.softx.2017.11.002)

   => Composite Functional: WB97X-D <= 

    wB97X-D Hyb-GGA Exchange-Correlation Functional

    J.-D. Chai and M. Head-Gordon, Phys. Chem. Chem. Phys. 10, 6615 (2008) (10.1039/B810189B)

    Deriv               =              1
    GGA                 =           TRUE
    Meta                =          FALSE

    Exchange Hybrid     =           TRUE
    MP2 Hybrid          =          FALSE

   => Exchange-Correlation Functionals <=

    1.0000   wB97X-D range-separated functional

   => Exact (HF) Exchange <=

    0.7780            HF,LR [omega = 0.2000]
    0.2220               HF 

   => LibXC Density Thresholds  <==

    XC_HYB_GGA_XC_WB97X_D:  1.00E-14 

   => Molecular Quadrature <=

    Radial Scheme          =       TREUTLER
    Pruning Scheme         =           NONE
    Nuclear Scheme         =       TREUTLER

    BS radius alpha        =              1
    Pruning alpha          =              1
    Radial Points          =             75
    Spherical Points       =            302
    Total Points           =         481808
    Total Blocks           =           3529
    Max Points             =            256
    Max Functions          =            138
    Weights Tolerance      =       1.00E-15


  -Total Gradient:
     Atom            X                  Y                   Z
    ------   -----------------  -----------------  -----------------
       1       -0.001575015944    -0.006879707255    -0.003948376515
       2        0.018478636053     0.002167775741     0.007645251989
       3       -0.000878020233     0.000625532127    -0.006078461028
       4       -0.001146453498     0.020716090482    -0.001330264389
       5       -0.006731893807     0.003731411772     0.004135343440
       6       -0.001867829633    -0.005051696605     0.002568007347
       7       -0.003068682932    -0.007488666276    -0.001385258149
       8       -0.001944689751    -0.004274813779    -0.008365907114
       9       -0.006045371209    -0.007931431361     0.002875666037
      10        0.006928594218    -0.000101563153     0.001498075502
      11       -0.000615207247    -0.002683525143    -0.008043603849
      12       -0.005427670530     0.001928084031     0.000924324129
      13        0.001990438500    -0.004434476883     0.001891492441
      14       -0.000472460906     0.003850556402    -0.002817947076
      15       -0.004512923039     0.004886261275     0.003205404061
      16        0.001983571500    -0.000154457583    -0.000680584641
      17        0.000830632213    -0.000855602213     0.001092278555
      18        0.000170632414    -0.001697191379    -0.001325896489
      19        0.000736138739     0.000480813820     0.001748902737
      20        0.001581829042     0.000446979457     0.005162382513
      21        0.000555679357     0.002307919188     0.000786887737
      22        0.000378951900    -0.000178098963    -0.000811932360
      23        0.000991392324     0.000428951476     0.001253005704


*** tstop() called on node74.bme.utexas.edu at Wed Jun  8 12:01:45 2022
Module time:
	user time   =      26.75 seconds =       0.45 minutes
	system time =       0.23 seconds =       0.00 minutes
	total time  =         13 seconds =       0.22 minutes
Total time:
	user time   =      88.71 seconds =       1.48 minutes
	system time =       3.52 seconds =       0.06 minutes
	total time  =         47 seconds =       0.78 minutes

			-----------------------------------------
			 OPTKING 2.0: for geometry optimizations 
			  - R.A. King,  Bethel University        
			-----------------------------------------
	At level 1: Red. Int., RFO, no backsteps, dynamic trust

	Internal coordinates to be generated automatically.
	Detected frag 1 with atoms:  1 2 3 4 5 6 7 8 9 10 11 12 13 14 15 16 17 18 19 20
	 21 22 23
	---Fragment 1 Bond Connectivity---
	 1 : 2 10 11 12
	 2 : 1 3 5
	 3 : 2 4 6 7
	 4 : 3 8 9
	 5 : 2 13 14 15
	 6 : 3
	 7 : 3
	 8 : 4 20 21
	 9 : 4
	 10 : 1 16 17 22
	 11 : 1
	 12 : 1
	 13 : 5 18 19 23
	 14 : 5
	 15 : 5
	 16 : 10
	 17 : 10
	 18 : 13
	 19 : 13
	 20 : 8
	 21 : 8
	 22 : 10
	 23 : 13

	Assuming in current code that numbering for constraints corresponds to unified fragment.
	Frozen dihedral atom list: 
	     1     2     3     4
	    10     1     2     5
	    13     5     2     1
	     2     3     4     8
	     3     4     8    20
	---Fragment 1 Geometry and Gradient---
	 C           2.5247600776       -0.6636890893       -2.0112397910
	 N           1.1230330473       -0.9608863171        0.4052739481
	 C          -1.5189325775       -1.7161985111        0.0040945403
	 C          -3.3522012452        0.3834818561       -0.9284682951
	 C           1.4110386472        1.0927489833        2.3151785692
	 H          -2.2710870391       -2.4999662010        1.7869585431
	 H          -1.6226785418       -3.3168135469       -1.3295796727
	 N          -5.8278766401       -0.3792758588       -1.0264487049
	 O          -2.6923523459        2.5098678329       -1.6107255668
	 C           5.4105098211       -0.6717563302       -1.6331055933
	 H           2.0008713038       -2.2189299111       -3.2964689851
	 H           1.8897894227        1.0974222760       -2.9307994209
	 C           3.1462002934        0.2435589749        4.4846578605
	 H           2.1359942807        2.8062959421        1.3790895048
	 H          -0.4441716306        1.6568586879        3.0764925333
	 H           6.0131737182       -2.3644010283       -0.6209739496
	 H           6.3763601822       -0.6452151267       -3.4548242549
	 H           3.3894137149        1.7614701468        5.8586966236
	 H           2.3516441569       -1.3851921932        5.4684889657
	 H          -6.4007849096       -1.8734067172       -0.0012118106
	 H          -7.1171101639        0.9280121083       -1.5224375622
	 H           6.0389684798        0.9819940248       -0.5752860411
	 H           5.0135407231       -0.2827108538        3.7905274395
	            -0.0015750159       -0.0068797073       -0.0039483765
	             0.0184786361        0.0021677757        0.0076452520
	            -0.0008780202        0.0006255321       -0.0060784610
	            -0.0011464535        0.0207160905       -0.0013302644
	            -0.0067318938        0.0037314118        0.0041353434
	            -0.0018678296       -0.0050516966        0.0025680073
	            -0.0030686829       -0.0074886663       -0.0013852581
	            -0.0019446898       -0.0042748138       -0.0083659071
	            -0.0060453712       -0.0079314314        0.0028756660
	             0.0069285942       -0.0001015632        0.0014980755
	            -0.0006152072       -0.0026835251       -0.0080436038
	            -0.0054276705        0.0019280840        0.0009243241
	             0.0019904385       -0.0044344769        0.0018914924
	            -0.0004724609        0.0038505564       -0.0028179471
	            -0.0045129230        0.0048862613        0.0032054041
	             0.0019835715       -0.0001544576       -0.0006805846
	             0.0008306322       -0.0008556022        0.0010922786
	             0.0001706324       -0.0016971914       -0.0013258965
	             0.0007361387        0.0004808138        0.0017489027
	             0.0015818290        0.0004469795        0.0051623825
	             0.0005556794        0.0023079192        0.0007868877
	             0.0003789519       -0.0001780990       -0.0008119324
	             0.0009913923        0.0004289515        0.0012530057

	Previous optimization step data not found.  Starting new optimization.

	---Fragment 1 Intrafragment Coordinates---
	 - Coordinate -           - BOHR/RAD -       - ANG/DEG -
	 R(1,2)           =         2.809396	       1.486668
	 R(1,10)          =         2.910430	       1.540133
	 R(1,11)          =         2.084478	       1.103058
	 R(1,12)          =         2.085735	       1.103723
	 R(2,3)           =         2.776945	       1.469496
	 R(2,5)           =         2.819238	       1.491876
	 R(3,4)           =         2.939252	       1.555385
	 R(3,6)           =         2.087734	       1.104781
	 R(3,7)           =         2.086005	       1.103867
	 R(4,8)           =         2.592367	       1.371822
	 R(4,9)           =         2.328603	       1.232244
	 R(5,13)          =         2.904918	       1.537217
	 R(5,14)          =         2.082803	       1.102172
	 R(5,15)          =         2.083176	       1.102369
	 R(8,20)          =         1.900464	       1.005682
	 R(8,21)          =         1.901875	       1.006429
	 R(10,16)         =         2.062198	       1.091268
	 R(10,17)         =         2.062094	       1.091213
	 R(10,22)         =         2.061270	       1.090777
	 R(13,18)         =         2.061841	       1.091079
	 R(13,19)         =         2.062056	       1.091193
	 R(13,23)         =         2.060519	       1.090380
	 B(1,2,3)         =         1.959727	     112.284081
	 B(1,2,5)         =         2.042816	     117.044707
	 B(1,10,16)       =         1.934574	     110.842931
	 B(1,10,17)       =         1.927937	     110.462670
	 B(1,10,22)       =         1.946315	     111.515642
	 B(2,1,10)        =         1.963474	     112.498783
	 B(2,1,11)        =         1.902887	     109.027368
	 B(2,1,12)        =         1.892994	     108.460561
	 B(2,3,4)         =         2.031901	     116.419342
	 B(2,3,6)         =         1.898110	     108.753704
	 B(2,3,7)         =         1.926644	     110.388591
	 B(2,5,13)        =         1.932663	     110.733444
	 B(2,5,14)        =         1.907500	     109.291713
	 B(2,5,15)        =         1.932490	     110.723517
	 B(3,2,5)         =         1.974897	     113.153284
	 B(3,4,8)         =         1.979530	     113.418738
	 B(3,4,9)         =         2.175528	     124.648580
	 B(4,3,6)         =         1.890641	     108.325740
	 B(4,3,7)         =         1.890478	     108.316437
	 B(4,8,20)        =         2.093034	     119.922035
	 B(4,8,21)        =         2.043137	     117.063151
	 B(5,13,18)       =         1.931515	     110.667664
	 B(5,13,19)       =         1.935917	     110.919862
	 B(5,13,23)       =         1.943780	     111.370379
	 B(6,3,7)         =         1.813165	     103.886685
	 B(8,4,9)         =         2.127297	     121.885166
	 B(10,1,11)       =         1.904174	     109.101130
	 B(10,1,12)       =         1.940645	     111.190788
	 B(11,1,12)       =         1.856293	     106.357781
	 B(13,5,14)       =         1.947920	     111.607612
	 B(13,5,15)       =         1.915777	     109.765922
	 B(14,5,15)       =         1.824968	     104.562947
	 B(16,10,17)      =         1.883122	     107.894954
	 B(16,10,22)      =         1.893937	     108.514616
	 B(17,10,22)      =         1.875736	     107.471745
	 B(18,13,19)      =         1.884930	     107.998552
	 B(18,13,23)      =         1.881390	     107.795689
	 B(19,13,23)      =         1.884082	     107.949923
	 B(20,8,21)       =         2.067739	     118.472746
	*D(1,2,3,4)       =        -1.319575	     -75.606077
	 D(1,2,3,6)       =         2.823024	     161.747346
	 D(1,2,3,7)       =         0.844427	      48.382132
	*D(1,2,5,13)      =        -1.831016	    -104.909487
	 D(1,2,5,14)      =         0.321753	      18.435083
	 D(1,2,5,15)      =         2.322979	     133.096913
	 D(2,1,10,16)     =         0.954129	      54.667567
	 D(2,1,10,17)     =         3.040456	     174.205275
	 D(2,1,10,22)     =        -1.158052	     -66.351475
	*D(2,3,4,8)       =        -3.036057	    -173.953268
	 D(2,3,4,9)       =         0.148726	       8.521364
	 D(2,5,13,18)     =         3.119413	     178.729220
	 D(2,5,13,19)     =        -1.071973	     -61.419528
	 D(2,5,13,23)     =         1.026900	      58.837015
	 D(3,2,1,10)      =        -2.839739	    -162.705062
	 D(3,2,1,11)      =        -0.725012	     -41.540107
	 D(3,2,1,12)      =         1.289390	      73.876594
	 D(3,2,5,13)      =         2.131751	     122.140341
	 D(3,2,5,14)      =        -1.998665	    -114.515089
	 D(3,2,5,15)      =         0.002561	       0.146741
	*D(3,4,8,20)      =         0.364655	      20.893166
	 D(3,4,8,21)      =         3.082965	     176.640883
	 D(4,3,2,5)       =         1.040261	      59.602564
	*D(5,2,1,10)      =         1.116251	      63.956460
	 D(5,2,1,11)      =        -3.052207	    -174.878585
	 D(5,2,1,12)      =        -1.037806	     -59.461884
	 D(5,2,3,6)       =        -1.100326	     -63.044013
	 D(5,2,3,7)       =        -3.078922	    -176.409227
	 D(6,3,4,8)       =        -0.891577	     -51.083625
	 D(6,3,4,9)       =         2.293206	     131.391006
	 D(7,3,4,8)       =         1.064654	      61.000184
	 D(7,3,4,9)       =        -2.033748	    -116.525185
	 D(9,4,8,20)      =        -2.818782	    -161.504323
	 D(9,4,8,21)      =        -0.100472	      -5.756606
	 D(11,1,10,16)    =        -1.159862	     -66.455204
	 D(11,1,10,17)    =         0.926464	      53.082503
	 D(11,1,10,22)    =         3.011142	     172.525754
	 D(12,1,10,16)    =         3.081371	     176.549531
	 D(12,1,10,17)    =        -1.115488	     -63.912762
	 D(12,1,10,22)    =         0.969190	      55.530489
	 D(14,5,13,18)    =         0.990150	      56.731394
	 D(14,5,13,19)    =         3.081949	     176.582646
	 D(14,5,13,23)    =        -1.102364	     -63.160811
	 D(15,5,13,18)    =        -1.024821	     -58.717926
	 D(15,5,13,19)    =         1.066978	      61.133327
	 D(15,5,13,23)    =        -3.117335	    -178.610130
	 R(1,9)           =         6.119652	       3.238380
	 R(5,9)           =         5.853099	       3.097327
	 R(10,13)         =         6.587255	       3.485825

	Current energy   :      -421.6416142155

	Generating empirical Hessian (Schlegel '84) for each fragment.
	Taking RFO optimization step.
	Going to follow RFO solution 1.
	Using RFO vector 1.
	Norm of target step-size    0.29222
	Projected energy change by RFO approximation:        -0.0031055363

	Back-transformation to cartesian coordinates...
	Successfully converged to displaced geometry.

	Back-transformation to cartesian coordinates to adjust frozen coordinates...
	Successfully converged to displaced geometry.

	--- Internal Coordinate Step in ANG or DEG, aJ/ANG or AJ/DEG ---
	 ---------------------------------------------------------------------------
	   Coordinate                Previous        Force       Change         New 
	   ----------                --------       ------       ------       ------
	    1 R(1,2)          =      1.486668    -0.045019     0.054479     1.541147
	    2 R(1,10)         =      1.540133    -0.078588    -0.015564     1.524570
	    3 R(1,11)         =      1.103058    -0.058582     0.044662     1.147720
	    4 R(1,12)         =      1.103723    -0.023788     0.053437     1.157160
	    5 R(2,3)          =      1.469496    -0.091345    -0.011218     1.458278
	    6 R(2,5)          =      1.491876    -0.063215     0.069091     1.560967
	    7 R(3,4)          =      1.555385    -0.081461     0.028840     1.584225
	    8 R(3,6)          =      1.104781    -0.039262     0.047819     1.152600
	    9 R(3,7)          =      1.103867    -0.055894     0.050422     1.154288
	   10 R(4,8)          =      1.371822    -0.003338     0.005973     1.377795
	   11 R(4,9)          =      1.232244     0.086631     0.069340     1.301584
	   12 R(5,13)         =      1.537217    -0.043391     0.046243     1.583459
	   13 R(5,14)         =      1.102172    -0.035180     0.046504     1.148675
	   14 R(5,15)         =      1.102369    -0.053818     0.004326     1.106695
	   15 R(8,20)         =      1.005682    -0.016218     0.048444     1.054126
	   16 R(8,21)         =      1.006429    -0.008302     0.029629     1.036058
	   17 R(10,16)        =      1.091268    -0.002903     0.057080     1.148348
	   18 R(10,17)        =      1.091213     0.004886     0.050050     1.141263
	   19 R(10,22)        =      1.090777     0.003564     0.054287     1.145064
	   20 R(13,18)        =      1.091079     0.017350     0.063081     1.154160
	   21 R(13,19)        =      1.091193    -0.001383     0.051109     1.142302
	   22 R(13,23)        =      1.090380    -0.002876     0.012811     1.103190
	   23 B(1,2,3)        =    112.284081     0.000214     1.578516   113.862597
	   24 B(1,2,5)        =    117.044707    -0.000358    -0.833846   116.210861
	   25 B(1,10,16)      =    110.842931    -0.000178    -1.472311   109.370621
	   26 B(1,10,17)      =    110.462670    -0.000081    -0.903187   109.559483
	   27 B(1,10,22)      =    111.515642    -0.000006     0.014162   111.529804
	   28 B(2,1,10)       =    112.498783     0.000263    -0.150556   112.348227
	   29 B(2,1,11)       =    109.027368    -0.000358    -2.174534   106.852834
	   30 B(2,1,12)       =    108.460561     0.000270     3.536156   111.996717
	   31 B(2,3,4)        =    116.419342     0.000353    -1.855859   114.563484
	   32 B(2,3,6)        =    108.753704    -0.000130    -0.567841   108.185863
	   33 B(2,3,7)        =    110.388591    -0.000220    -0.567566   109.821025
	   34 B(2,5,13)       =    110.733444     0.000620     2.516543   113.249987
	   35 B(2,5,14)       =    109.291713    -0.000083     0.654473   109.946186
	   36 B(2,5,15)       =    110.723517    -0.000375    -1.633917   109.089600
	   37 B(3,2,5)        =    113.153284     0.000224     2.172344   115.325628
	   38 B(3,4,8)        =    113.418738     0.000158    -0.312849   113.105889
	   39 B(3,4,9)        =    124.648580    -0.000120    -0.377167   124.271414
	   40 B(4,3,6)        =    108.325740    -0.000183     0.938076   109.263817
	   41 B(4,3,7)        =    108.316437    -0.000077    -0.131642   108.184794
	   42 B(4,8,20)       =    119.922035     0.000256     1.912911   121.834946
	   43 B(4,8,21)       =    117.063151     0.000059    -0.730407   116.332744
	   44 B(5,13,18)      =    110.667664     0.000039     1.041024   111.708687
	   45 B(5,13,19)      =    110.919862    -0.000165    -0.376469   110.543393
	   46 B(5,13,23)      =    111.370379    -0.000123    -1.623368   109.747011
	   47 B(6,3,7)        =    103.886685     0.000249     2.638531   106.525216
	   48 B(8,4,9)        =    121.885166    -0.000040     0.625519   122.510685
	   49 B(10,1,11)      =    109.101130    -0.000019    -0.586409   108.514720
	   50 B(10,1,12)      =    111.190788    -0.000302    -2.377313   108.813475
	   51 B(11,1,12)      =    106.357781     0.000135     1.805408   108.163189
	   52 B(13,5,14)      =    111.607612    -0.000231    -0.905957   110.701656
	   53 B(13,5,15)      =    109.765922    -0.000155    -0.928215   108.837707
	   54 B(14,5,15)      =    104.562947     0.000184     0.077542   104.640488
	   55 B(16,10,17)     =    107.894954     0.000158     1.462367   109.357321
	   56 B(16,10,22)     =    108.514616     0.000061     0.327623   108.842239
	   57 B(17,10,22)     =    107.471745     0.000060     0.674850   108.146595
	   58 B(18,13,19)     =    107.998552     0.000093     0.776857   108.775410
	   59 B(18,13,23)     =    107.795689     0.000087     1.188118   108.983807
	   60 B(19,13,23)     =    107.949923     0.000083    -0.998805   106.951118
	   61 B(20,8,21)      =    118.472746    -0.000234     0.326829   118.799574
	   62 *D(1,2,3,4)     =    -75.606077     0.000000    -0.000000   -75.606077
	   63 D(1,2,3,6)      =    161.747346     0.000021     0.507990   162.255336
	   64 D(1,2,3,7)      =     48.382132    -0.000004    -2.017338    46.364793
	   65 *D(1,2,5,13)    =   -104.909487    -0.000000    -0.000000  -104.909487
	   66 D(1,2,5,14)     =     18.435083     0.000015     1.072731    19.507814
	   67 D(1,2,5,15)     =    133.096913     0.000007     0.623478   133.720391
	   68 D(2,1,10,16)    =     54.667567    -0.000051    -1.411976    53.255592
	   69 D(2,1,10,17)    =    174.205275    -0.000044    -1.096766   173.108508
	   70 D(2,1,10,22)    =    -66.351475    -0.000039    -0.838702   -67.190176
	   71 *D(2,3,4,8)     =   -173.953268     0.000000    -0.000000  -173.953268
	   72 D(2,3,4,9)      =      8.521364     0.000010     1.298557     9.819921
	   73 D(2,5,13,18)    =    178.729220     0.000029     1.701815   180.431035
	   74 D(2,5,13,19)    =    -61.419528     0.000036     3.125970   -58.293558
	   75 D(2,5,13,23)    =     58.837015     0.000016     0.601387    59.438402
	   76 D(3,2,1,10)     =   -162.705062     0.000047     4.318523  -158.386539
	   77 D(3,2,1,11)     =    -41.540107     0.000024     2.053390   -39.486717
	   78 D(3,2,1,12)     =     73.876594     0.000050     4.908429    78.785024
	   79 D(3,2,5,13)     =    122.140341    -0.000045    -4.089919   118.050421
	   80 D(3,2,5,14)     =   -114.515089    -0.000030    -3.017188  -117.532278
	   81 D(3,2,5,15)     =      0.146741    -0.000038    -3.466442    -3.319701
	   82 *D(3,4,8,20)    =     20.893166    -0.000000    -0.000000    20.893166
	   83 D(3,4,8,21)     =    176.640883     0.000033     4.303180   180.944063
	   84 D(4,3,2,5)      =     59.602564    -0.000020     2.835164    62.437728
	   85 *D(5,2,1,10)    =     63.956460     0.000000     0.000000    63.956460
	   86 D(5,2,1,11)     =   -174.878585    -0.000023    -2.265133  -177.143719
	   87 D(5,2,1,12)     =    -59.461884     0.000003     0.589906   -58.871978
	   88 D(5,2,3,6)      =    -63.044013     0.000002     3.343154   -59.700859
	   89 D(5,2,3,7)      =   -176.409227    -0.000023     0.817826  -175.591401
	   90 D(6,3,4,8)      =    -51.083625    -0.000015    -1.319359   -52.402984
	   91 D(6,3,4,9)      =    131.391006    -0.000006    -0.020802   131.370204
	   92 D(7,3,4,8)      =     61.000184     0.000022     2.188214    63.188398
	   93 D(7,3,4,9)      =   -116.525185     0.000032     3.486771  -113.038414
	   94 D(9,4,8,20)     =   -161.504323    -0.000010    -1.299923  -162.804247
	   95 D(9,4,8,21)     =     -5.756606     0.000023     3.003257    -2.753349
	   96 D(11,1,10,16)   =    -66.455204     0.000017     1.790559   -64.664645
	   97 D(11,1,10,17)   =     53.082503     0.000024     2.105769    55.188272
	   98 D(11,1,10,22)   =    172.525754     0.000028     2.363833   174.889587
	   99 D(12,1,10,16)   =    176.549531     0.000022     1.309321   177.858852
	  100 D(12,1,10,17)   =    -63.912762     0.000029     1.624531   -62.288231
	  101 D(12,1,10,22)   =     55.530489     0.000033     1.882595    57.413085
	  102 D(14,5,13,18)   =     56.731394    -0.000010    -0.306099    56.425295
	  103 D(14,5,13,19)   =    176.582646    -0.000002     1.118057   177.700703
	  104 D(14,5,13,23)   =    -63.160811    -0.000023    -1.406527   -64.567338
	  105 D(15,5,13,18)   =    -58.717926    -0.000009     0.660655   -58.057271
	  106 D(15,5,13,19)   =     61.133327    -0.000001     2.084810    63.218137
	  107 D(15,5,13,23)   =   -178.610130    -0.000022    -0.439774  -179.049904
	  108 R(1,9)          =      3.238380    -0.016018     0.010785     3.249165
	  109 R(5,9)          =      3.097327    -0.011117     0.091058     3.188385
	  110 R(10,13)        =      3.485825    -0.021996     0.135728     3.621554
	 ---------------------------------------------------------------------------
	Successfully symmetrized geometry.

  ==> Convergence Check <==

  Measures of convergence in internal coordinates in au.
  Criteria marked as inactive (o), active & met (*), and active & unmet ( ).
  --------------------------------------------------------------------------------------------- ~
   Step     Total Energy     Delta E     MAX Force     RMS Force      MAX Disp      RMS Disp    ~
  --------------------------------------------------------------------------------------------- ~
    Convergence Criteria             o    2.50e-03 *    1.70e-03 *    1.00e-02 *    6.70e-03 *  ~
  --------------------------------------------------------------------------------------------- ~
      1    -421.64161422   -4.22e+02 o    1.11e-02      3.25e-03      2.56e-01      5.63e-02    ~
  ---------------------------------------------------------------------------------------------

	Writing optimization data to binary file.
	Structure for next step:
	Cartesian Geometry (in Angstrom)
	    C     1.2706777035  -0.6415552396  -1.0886289839
	    N     0.5579100332  -0.4868458280   0.2690017221
	    C    -0.8333087483  -0.9238408335   0.2580807017
	    C    -1.8333167791   0.0798347052  -0.4507126587
	    C     0.8355836001   0.8379515720   1.0464508857
	    H    -1.1677312866  -1.0868648513   1.3489844521
	    H    -0.9177707649  -1.9479298434  -0.2677417716
	    N    -3.1533002203  -0.2958022440  -0.3288135009
	    O    -1.4620330283   1.1151448918  -1.1467020591
	    C     2.7876165382  -0.6912452119  -0.9446147411
	    H     0.9147039359  -1.6349204674  -1.5400373377
	    H     0.9932079920   0.2084339062  -1.8231691498
	    C     1.8142467648   0.6474128268   2.2765957328
	    H     1.2387042192   1.6374399414   0.3268905465
	    H    -0.1236907987   1.2500856558   1.4134823910
	    H     3.0717680913  -1.5056945111  -0.1865685721
	    H     3.2596026068  -0.9336549779  -1.9550341807
	    H     1.9946579792   1.6404642838   2.8364054146
	    H     1.3900377032  -0.1171897218   3.0116355510
	    H    -3.4766883783  -0.9527860691   0.4294561968
	    H    -3.8501595814   0.3183341047  -0.7877680375
	    H     3.2087070402   0.3112368405  -0.5856100489
	    H     2.7825067371   0.2526628384   1.9249223927
			--------------------------
			 OPTKING Finished Execution 
			--------------------------

    Structure for next step:
    Molecular point group: c1
    Full point group: C1

    Geometry (in Angstrom), charge = 0, multiplicity = 1:

    C            1.284817810640    -0.610807898871    -1.074528602515
    N            0.572050137586    -0.456098486666     0.283102108849
    C           -0.819168649448    -0.893093493885     0.272181088339
    C           -1.819176684110     0.110582048686    -0.436612274762
    C            0.849723705557     0.868698918472     1.060551275506
    H           -1.153591188992    -1.056117512315     1.363084843074
    H           -0.903630666340    -1.917182507813    -0.253641387010
    N           -3.139160130529    -0.265054901961    -0.314713116564
    O           -1.447892931892     1.145892239424    -1.132601677956
    C            2.801756651296    -0.660497871424    -0.930514359106
    H            0.928844041609    -1.604173130660    -1.525936958130
    H            1.007348098099     0.239181250230    -1.809068771334
    C            1.828386874087     0.678160172549     2.290696127410
    H            1.252844326246     1.668187291033     0.340990933477
    H           -0.109550697074     1.280833003960     1.427582782224
    H            3.085908205577    -1.474947173819    -0.172468187160
    H            3.273742721790    -0.902907638376    -1.940933802693
    H            2.008798089177     1.671211633417     2.850505811462
    H            1.404177810809    -0.086442379066     3.025735948514
    H           -3.462548289773    -0.922038729670     0.443556584132
    H           -3.836019494357     0.349081449152    -0.773667654953
    H            3.222847154946     0.341984184901    -0.571509665513
    H            2.796646850173     0.283410182627     1.939022785966


Scratch directory: /scratch/bdw2292/Psi4-4_27_Index_0-farH_in17/

Scratch directory: /scratch/bdw2292/Psi4-4_27_Index_0-farH_in17/
gradient() will perform analytic gradient computation.

*** tstart() called on node74.bme.utexas.edu
*** at Wed Jun  8 12:01:46 2022

   => Loading Basis Set <=

    Name: 6-311G
    Role: ORBITAL
    Keyword: BASIS
    atoms 1, 3-5, 10, 13    entry C          line    92 file /home/bdw2292/miniconda3/envs/newamoebamdpoltype/share/psi4/basis/6-311g.gbs 
    atoms 2, 8              entry N          line   109 file /home/bdw2292/miniconda3/envs/newamoebamdpoltype/share/psi4/basis/6-311g.gbs 
    atoms 6-7, 11-12, 14-23 entry H          line    21 file /home/bdw2292/miniconda3/envs/newamoebamdpoltype/share/psi4/basis/6-311g.gbs 
    atoms 9                 entry O          line   126 file /home/bdw2292/miniconda3/envs/newamoebamdpoltype/share/psi4/basis/6-311g.gbs 

   => WB97X-D: Empirical Dispersion <=

    Chai and Head-Gordon Dispersion Correction
    Chai, J.-D.; Head-Gordon, M. (2010), J. Chem. Phys., 132: 6615-6620

        s6 =       1.000000


         ---------------------------------------------------------
                                   SCF
               by Justin Turney, Rob Parrish, Andy Simmonett
                          and Daniel G. A. Smith
                              RKS Reference
                        2 Threads,   7788 MiB Core
         ---------------------------------------------------------

  ==> Geometry <==

    Molecular point group: c1
    Full point group: C1

    Geometry (in Angstrom), charge = 0, multiplicity = 1:

       Center              X                  Y                   Z               Mass       
    ------------   -----------------  -----------------  -----------------  -----------------
         C            1.284817810640    -0.610807898871    -1.074528602515    12.000000000000
         N            0.572050137586    -0.456098486666     0.283102108849    14.003074004430
         C           -0.819168649448    -0.893093493885     0.272181088339    12.000000000000
         C           -1.819176684110     0.110582048686    -0.436612274762    12.000000000000
         C            0.849723705557     0.868698918472     1.060551275506    12.000000000000
         H           -1.153591188992    -1.056117512315     1.363084843074     1.007825032230
         H           -0.903630666340    -1.917182507813    -0.253641387010     1.007825032230
         N           -3.139160130529    -0.265054901961    -0.314713116564    14.003074004430
         O           -1.447892931892     1.145892239424    -1.132601677956    15.994914619570
         C            2.801756651296    -0.660497871424    -0.930514359106    12.000000000000
         H            0.928844041609    -1.604173130660    -1.525936958130     1.007825032230
         H            1.007348098099     0.239181250230    -1.809068771334     1.007825032230
         C            1.828386874087     0.678160172549     2.290696127410    12.000000000000
         H            1.252844326246     1.668187291033     0.340990933477     1.007825032230
         H           -0.109550697074     1.280833003960     1.427582782224     1.007825032230
         H            3.085908205577    -1.474947173819    -0.172468187160     1.007825032230
         H            3.273742721790    -0.902907638376    -1.940933802693     1.007825032230
         H            2.008798089177     1.671211633417     2.850505811462     1.007825032230
         H            1.404177810809    -0.086442379066     3.025735948514     1.007825032230
         H           -3.462548289773    -0.922038729670     0.443556584132     1.007825032230
         H           -3.836019494357     0.349081449152    -0.773667654953     1.007825032230
         H            3.222847154946     0.341984184901    -0.571509665513     1.007825032230
         H            2.796646850173     0.283410182627     1.939022785966     1.007825032230

  Running in c1 symmetry.

  Rotational constants: A =      0.07443  B =      0.03104  C =      0.02635 [cm^-1]
  Rotational constants: A =   2231.31721  B =    930.46683  C =    789.92346 [MHz]
  Nuclear repulsion =  471.035700245932958

  Charge       = 0
  Multiplicity = 1
  Electrons    = 72
  Nalpha       = 36
  Nbeta        = 36

  ==> Algorithm <==

  SCF Algorithm Type is DF.
  DIIS enabled.
  MOM disabled.
  Fractional occupation disabled.
  Guess Type is READ.
  Energy threshold   = 1.00e-08
  Density threshold  = 1.00e-08
  Integral threshold = 1.00e-12

  ==> Primary Basis <==

  Basis Set: 6-311G
    Blend: 6-311G
    Number of shells: 105
    Number of basis functions: 159
    Number of Cartesian functions: 159
    Spherical Harmonics?: true
    Max angular momentum: 1

  ==> DFT Potential <==

   => LibXC <=

    Version 5.1.5
    S. Lehtola, C. Steigemann, M. J. Oliveira, and M. A. Marques, SoftwareX 7, 1 (2018) (10.1016/j.softx.2017.11.002)

   => Composite Functional: WB97X-D <= 

    wB97X-D Hyb-GGA Exchange-Correlation Functional

    J.-D. Chai and M. Head-Gordon, Phys. Chem. Chem. Phys. 10, 6615 (2008) (10.1039/B810189B)

    Deriv               =              1
    GGA                 =           TRUE
    Meta                =          FALSE

    Exchange Hybrid     =           TRUE
    MP2 Hybrid          =          FALSE

   => Exchange-Correlation Functionals <=

    1.0000   wB97X-D range-separated functional

   => Exact (HF) Exchange <=

    0.7780            HF,LR [omega = 0.2000]
    0.2220               HF 

   => LibXC Density Thresholds  <==

    XC_HYB_GGA_XC_WB97X_D:  1.00E-14 

   => Molecular Quadrature <=

    Radial Scheme          =       TREUTLER
    Pruning Scheme         =           NONE
    Nuclear Scheme         =       TREUTLER

    BS radius alpha        =              1
    Pruning alpha          =              1
    Radial Points          =             75
    Spherical Points       =            302
    Total Points           =         482988
    Total Blocks           =           3503
    Max Points             =            256
    Max Functions          =            136
    Weights Tolerance      =       1.00E-15

   => Loading Basis Set <=

    Name: (6-311G AUX)
    Role: JKFIT
    Keyword: DF_BASIS_SCF
    atoms 1, 3-5, 10, 13    entry C          line   125 file /home/bdw2292/miniconda3/envs/newamoebamdpoltype/share/psi4/basis/cc-pvtz-jkfit.gbs 
    atoms 2, 8              entry N          line   177 file /home/bdw2292/miniconda3/envs/newamoebamdpoltype/share/psi4/basis/cc-pvtz-jkfit.gbs 
    atoms 6-7, 11-12, 14-23 entry H          line    51 file /home/bdw2292/miniconda3/envs/newamoebamdpoltype/share/psi4/basis/cc-pvtz-jkfit.gbs 
    atoms 9                 entry O          line   229 file /home/bdw2292/miniconda3/envs/newamoebamdpoltype/share/psi4/basis/cc-pvtz-jkfit.gbs 

   => Loading Basis Set <=

    Name: 6-311G
    Role: ORBITAL
    Keyword: BASIS
    atoms 1, 3-5, 10, 13    entry C          line    92 file /home/bdw2292/miniconda3/envs/newamoebamdpoltype/share/psi4/basis/6-311g.gbs 
    atoms 2, 8              entry N          line   109 file /home/bdw2292/miniconda3/envs/newamoebamdpoltype/share/psi4/basis/6-311g.gbs 
    atoms 6-7, 11-12, 14-23 entry H          line    21 file /home/bdw2292/miniconda3/envs/newamoebamdpoltype/share/psi4/basis/6-311g.gbs 
    atoms 9                 entry O          line   126 file /home/bdw2292/miniconda3/envs/newamoebamdpoltype/share/psi4/basis/6-311g.gbs 

  Reading orbitals from file /scratch/bdw2292/Psi4-4_27_Index_0-farH_in17/4_27_Index_0-opt-1_2-3-284.default.1101387.180.npy, no projection.

  ==> Integral Setup <==

  DFHelper Memory: AOs need 0.583 GiB; user supplied 4.319 GiB. Using in-core AOs.

  ==> MemDFJK: Density-Fitted J/K Matrices <==

    J tasked:                   Yes
    K tasked:                   Yes
    wK tasked:                  Yes
    Omega:                2.000E-01
    OpenMP threads:               2
    Memory [MiB]:              4422
    Algorithm:                 Core
    Schwarz Cutoff:           1E-12
    Mask sparsity (%):      11.0755
    Fitting Condition:        1E-10

   => Auxiliary Basis Set <=

  Basis Set: (6-311G AUX)
    Blend: CC-PVTZ-JKFIT
    Number of shells: 365
    Number of basis functions: 1131
    Number of Cartesian functions: 1354
    Spherical Harmonics?: true
    Max angular momentum: 4

  Cached 100.0% of DFT collocation blocks in 1.386 [GiB].

  Minimum eigenvalue in the overlap matrix is 2.9387570268E-03.
  Reciprocal condition number of the overlap matrix is 4.2285316063E-04.
    Using symmetric orthogonalization.

  ==> Pre-Iterations <==

  SCF Guess: Orbitals guess was supplied from a previous computation.

   -------------------------------------------------------
    Irrep   Nso     Nmo     Nalpha   Nbeta   Ndocc  Nsocc
   -------------------------------------------------------
     A        159     159      36      36      36       0
   -------------------------------------------------------
    Total     159     159      36      36      36       0
   -------------------------------------------------------

  ==> Iterations <==

                           Total Energy        Delta E     RMS |[F,P]|

   @DF-RKS iter   0:  -421.11414561329747   -4.21114e+02   4.48293e-03 
   @DF-RKS iter   1:  -421.59104354091352   -4.76898e-01   8.66817e-04 DIIS
   @DF-RKS iter   2:  -421.60335684491884   -1.23133e-02   6.55692e-04 DIIS
   @DF-RKS iter   3:  -421.60788469133450   -4.52785e-03   2.40987e-04 DIIS
   @DF-RKS iter   4:  -421.60841670549428   -5.32014e-04   1.47220e-04 DIIS
   @DF-RKS iter   5:  -421.60867755173786   -2.60846e-04   2.22319e-05 DIIS
   @DF-RKS iter   6:  -421.60868538533856   -7.83360e-06   1.12570e-05 DIIS
   @DF-RKS iter   7:  -421.60868737244601   -1.98711e-06   2.12303e-06 DIIS
   @DF-RKS iter   8:  -421.60868755795912   -1.85513e-07   1.11131e-06 DIIS
   @DF-RKS iter   9:  -421.60868758644676   -2.84876e-08   2.22647e-07 DIIS
   @DF-RKS iter  10:  -421.60868758949800   -3.05124e-09   7.17286e-08 DIIS
   @DF-RKS iter  11:  -421.60868758980104   -3.03032e-10   4.23660e-08 DIIS
   @DF-RKS iter  12:  -421.60868758985720   -5.61613e-11   1.52374e-08 DIIS
   @DF-RKS iter  13:  -421.60868758986720   -1.00044e-11   5.89596e-09 DIIS
  Energy and wave function converged.


  ==> Post-Iterations <==

   Electrons on quadrature grid:
      Ntotal   =   72.0000126378 ; deviation = 1.264e-05 

    Orbital Energies [Eh]
    ---------------------

    Doubly Occupied:                                                      

       1A    -19.219603     2A    -14.473245     3A    -14.428667  
       4A    -10.411452     5A    -10.344426     6A    -10.319145  
       7A    -10.315851     8A    -10.281728     9A    -10.281075  
      10A     -1.119709    11A     -1.008744    12A     -0.994124  
      13A     -0.846627    14A     -0.838032    15A     -0.772950  
      16A     -0.707237    17A     -0.689256    18A     -0.654388  
      19A     -0.622580    20A     -0.564612    21A     -0.559880  
      22A     -0.544894    23A     -0.518453    24A     -0.506108  
      25A     -0.492253    26A     -0.483882    27A     -0.461812  
      28A     -0.453444    29A     -0.443986    30A     -0.434079  
      31A     -0.416998    32A     -0.413184    33A     -0.404558  
      34A     -0.352894    35A     -0.342621    36A     -0.278420  

    Virtual:                                                              

      37A      0.068594    38A      0.095456    39A      0.118658  
      40A      0.141252    41A      0.142150    42A      0.161017  
      43A      0.164227    44A      0.174707    45A      0.179338  
      46A      0.191999    47A      0.198467    48A      0.205204  
      49A      0.217727    50A      0.223827    51A      0.229431  
      52A      0.236616    53A      0.271574    54A      0.293987  
      55A      0.299614    56A      0.308353    57A      0.324794  
      58A      0.356496    59A      0.361267    60A      0.389502  
      61A      0.392991    62A      0.414404    63A      0.421589  
      64A      0.431631    65A      0.437046    66A      0.463964  
      67A      0.476466    68A      0.507343    69A      0.508377  
      70A      0.526644    71A      0.551129    72A      0.560605  
      73A      0.570515    74A      0.581050    75A      0.591772  
      76A      0.615112    77A      0.625461    78A      0.635213  
      79A      0.639850    80A      0.645257    81A      0.655596  
      82A      0.670923    83A      0.674617    84A      0.678785  
      85A      0.684183    86A      0.698656    87A      0.700115  
      88A      0.711489    89A      0.722227    90A      0.737420  
      91A      0.769527    92A      0.793450    93A      0.801768  
      94A      0.829809    95A      0.890505    96A      0.903087  
      97A      0.925191    98A      0.979732    99A      1.022402  
     100A      1.042439   101A      1.071997   102A      1.111773  
     103A      1.127791   104A      1.137743   105A      1.212658  
     106A      1.234025   107A      1.311549   108A      1.512577  
     109A      1.710361   110A      2.234299   111A      2.326859  
     112A      2.332835   113A      2.338860   114A      2.352961  
     115A      2.353602   116A      2.366800   117A      2.377675  
     118A      2.380399   119A      2.400162   120A      2.408899  
     121A      2.417436   122A      2.433072   123A      2.456540  
     124A      2.691775   125A      2.837921   126A      2.883046  
     127A      2.893709   128A      2.922267   129A      2.937356  
     130A      2.960534   131A      2.969494   132A      2.992318  
     133A      3.009590   134A      3.032822   135A      3.040152  
     136A      3.097803   137A      3.117320   138A      3.139949  
     139A      3.191341   140A      3.208160   141A      3.271074  
     142A      3.773992   143A      4.000202   144A      4.023826  
     145A      4.123258   146A      4.136928   147A      4.175660  
     148A      5.002077   149A      5.028849   150A      5.085042  
     151A     23.403669   152A     23.464999   153A     23.503734  
     154A     23.595884   155A     23.650561   156A     23.668666  
     157A     35.447019   158A     35.558923   159A     50.037235  

    Final Occupation by Irrep:
              A 
    DOCC [    36 ]

  @DF-RKS Final Energy:  -421.60868758986720

   => Energetics <=

    Nuclear Repulsion Energy =            471.0357002459329578
    One-Electron Energy =               -1505.5102332256876707
    Two-Electron Energy =                 653.8683822613332950
    DFT Exchange-Correlation Energy =     -40.9877110113761560
    Empirical Dispersion Energy =          -0.0148258600696239
    VV10 Nonlocal Energy =                  0.0000000000000000
    Total Energy =                       -421.6086875898672020

Computation Completed


Properties will be evaluated at   0.000000,   0.000000,   0.000000 [a0]

Properties computed using the SCF density matrix

  Nuclear Dipole Moment: [e a0]
     X:     8.9213      Y:    -1.9891      Z:     4.0663

  Electronic Dipole Moment: [e a0]
     X:    -9.8653      Y:     1.1756      Z:    -3.3947

  Dipole Moment: [e a0]
     X:    -0.9440      Y:    -0.8135      Z:     0.6717     Total:     1.4156

  Dipole Moment: [D]
     X:    -2.3994      Y:    -2.0678      Z:     1.7072     Total:     3.5982


*** tstop() called on node74.bme.utexas.edu at Wed Jun  8 12:02:16 2022
Module time:
	user time   =      59.25 seconds =       0.99 minutes
	system time =       1.24 seconds =       0.02 minutes
	total time  =         30 seconds =       0.50 minutes
Total time:
	user time   =     148.58 seconds =       2.48 minutes
	system time =       4.80 seconds =       0.08 minutes
	total time  =         78 seconds =       1.30 minutes

*** tstart() called on node74.bme.utexas.edu
*** at Wed Jun  8 12:02:16 2022


         ------------------------------------------------------------
                                   SCF GRAD                          
                          Rob Parrish, Justin Turney,                
                       Andy Simmonett, and Alex Sokolov              
         ------------------------------------------------------------

  ==> Geometry <==

    Molecular point group: c1
    Full point group: C1

    Geometry (in Angstrom), charge = 0, multiplicity = 1:

       Center              X                  Y                   Z               Mass       
    ------------   -----------------  -----------------  -----------------  -----------------
         C            1.284817810640    -0.610807898871    -1.074528602515    12.000000000000
         N            0.572050137586    -0.456098486666     0.283102108849    14.003074004430
         C           -0.819168649448    -0.893093493885     0.272181088339    12.000000000000
         C           -1.819176684110     0.110582048686    -0.436612274762    12.000000000000
         C            0.849723705557     0.868698918472     1.060551275506    12.000000000000
         H           -1.153591188992    -1.056117512315     1.363084843074     1.007825032230
         H           -0.903630666340    -1.917182507813    -0.253641387010     1.007825032230
         N           -3.139160130529    -0.265054901961    -0.314713116564    14.003074004430
         O           -1.447892931892     1.145892239424    -1.132601677956    15.994914619570
         C            2.801756651296    -0.660497871424    -0.930514359106    12.000000000000
         H            0.928844041609    -1.604173130660    -1.525936958130     1.007825032230
         H            1.007348098099     0.239181250230    -1.809068771334     1.007825032230
         C            1.828386874087     0.678160172549     2.290696127410    12.000000000000
         H            1.252844326246     1.668187291033     0.340990933477     1.007825032230
         H           -0.109550697074     1.280833003960     1.427582782224     1.007825032230
         H            3.085908205577    -1.474947173819    -0.172468187160     1.007825032230
         H            3.273742721790    -0.902907638376    -1.940933802693     1.007825032230
         H            2.008798089177     1.671211633417     2.850505811462     1.007825032230
         H            1.404177810809    -0.086442379066     3.025735948514     1.007825032230
         H           -3.462548289773    -0.922038729670     0.443556584132     1.007825032230
         H           -3.836019494357     0.349081449152    -0.773667654953     1.007825032230
         H            3.222847154946     0.341984184901    -0.571509665513     1.007825032230
         H            2.796646850173     0.283410182627     1.939022785966     1.007825032230

  Nuclear repulsion =  471.035700245932958

  ==> Basis Set <==

  Basis Set: 6-311G
    Blend: 6-311G
    Number of shells: 105
    Number of basis functions: 159
    Number of Cartesian functions: 159
    Spherical Harmonics?: true
    Max angular momentum: 1

  ==> DFJKGrad: Density-Fitted SCF Gradients <==

    Gradient:                    1
    J tasked:                  Yes
    K tasked:                  Yes
    wK tasked:                 Yes
    Omega:               2.000E-01
    OpenMP threads:              2
    Integrals threads:           2
    Memory [MiB]:             5841
    Schwarz Cutoff:          1E-12
    Fitting Condition:       1E-10

   => Auxiliary Basis Set <=

  Basis Set: (6-311G AUX)
    Blend: CC-PVTZ-JKFIT
    Number of shells: 365
    Number of basis functions: 1131
    Number of Cartesian functions: 1354
    Spherical Harmonics?: true
    Max angular momentum: 4

  ==> DFT Potential <==

   => LibXC <=

    Version 5.1.5
    S. Lehtola, C. Steigemann, M. J. Oliveira, and M. A. Marques, SoftwareX 7, 1 (2018) (10.1016/j.softx.2017.11.002)

   => Composite Functional: WB97X-D <= 

    wB97X-D Hyb-GGA Exchange-Correlation Functional

    J.-D. Chai and M. Head-Gordon, Phys. Chem. Chem. Phys. 10, 6615 (2008) (10.1039/B810189B)

    Deriv               =              1
    GGA                 =           TRUE
    Meta                =          FALSE

    Exchange Hybrid     =           TRUE
    MP2 Hybrid          =          FALSE

   => Exchange-Correlation Functionals <=

    1.0000   wB97X-D range-separated functional

   => Exact (HF) Exchange <=

    0.7780            HF,LR [omega = 0.2000]
    0.2220               HF 

   => LibXC Density Thresholds  <==

    XC_HYB_GGA_XC_WB97X_D:  1.00E-14 

   => Molecular Quadrature <=

    Radial Scheme          =       TREUTLER
    Pruning Scheme         =           NONE
    Nuclear Scheme         =       TREUTLER

    BS radius alpha        =              1
    Pruning alpha          =              1
    Radial Points          =             75
    Spherical Points       =            302
    Total Points           =         482988
    Total Blocks           =           3503
    Max Points             =            256
    Max Functions          =            136
    Weights Tolerance      =       1.00E-15


  -Total Gradient:
     Atom            X                  Y                   Z
    ------   -----------------  -----------------  -----------------
       1        0.023771212412    -0.006232710376     0.002497050057
       2       -0.017842458243    -0.020551113815     0.010902870433
       3        0.007576472530     0.002934410334    -0.007380921326
       4       -0.016590854801    -0.022402685175     0.023181157415
       5       -0.007562591420     0.005131498911     0.013956254825
       6       -0.006017416913    -0.005103852862     0.029599405057
       7       -0.002427156525    -0.030410334499    -0.014497138729
       8        0.013033554498    -0.006821484127    -0.013787341852
       9        0.020750585879     0.058359840731    -0.039029018145
      10       -0.022287729037     0.003388357310    -0.008711849275
      11       -0.006540413043    -0.027255026824    -0.012776791909
      12       -0.002606399223     0.024085929057    -0.022071355427
      13        0.011543207094    -0.000705909677    -0.005554309906
      14        0.008711918201     0.024229712015    -0.016971752698
      15       -0.006131852082     0.006347820006     0.004305018872
      16        0.005153578544    -0.023200289268     0.021273698995
      17        0.009819292077    -0.006247427887    -0.025519194215
      18        0.006969517001     0.028266849473     0.017717323242
      19       -0.008904731191    -0.020217472555     0.018350044420
      20       -0.012541572795    -0.022744864106     0.031151006821
      21       -0.014110894921     0.016505269888    -0.012362650500
      22        0.009829587784     0.026757830245     0.008982547405
      23        0.006373976466    -0.004203097497    -0.003275104203


*** tstop() called on node74.bme.utexas.edu at Wed Jun  8 12:02:30 2022
Module time:
	user time   =      26.31 seconds =       0.44 minutes
	system time =       0.17 seconds =       0.00 minutes
	total time  =         14 seconds =       0.23 minutes
Total time:
	user time   =     174.89 seconds =       2.91 minutes
	system time =       4.97 seconds =       0.08 minutes
	total time  =         92 seconds =       1.53 minutes

			-----------------------------------------
			 OPTKING 2.0: for geometry optimizations 
			  - R.A. King,  Bethel University        
			-----------------------------------------
	At level 1: Red. Int., RFO, no backsteps, dynamic trust

	Previous internal coordinate definitions found.
	---Fragment 1 Geometry and Gradient---
	 C           2.4279537832       -1.1542596441       -2.0305647727
	 N           1.0810180901       -0.8619012260        0.5349854513
	 C          -1.5480043980       -1.6877021079        0.5143477135
	 C          -3.4377457068        0.2089697864       -0.8250776223
	 C           1.6057450858        1.6416030414        2.0041514527
	 H          -2.1799714079       -1.9957728546        2.5758570392
	 H          -1.7076144779       -3.6229498723       -0.4793127555
	 N          -5.9321529107       -0.5008811729       -0.5947215984
	 O          -2.7361211003        2.1654225018       -2.1403069806
	 C           5.2945527411       -1.2481600834       -1.7584172945
	 H           1.7552608519       -3.0314478748       -2.8836029356
	 H           1.9036120184        0.4519870573       -3.4186445199
	 C           3.4551504434        1.2815369953        4.3287883175
	 H           2.3675326544        3.1524171060        0.6443794755
	 H          -0.2070208143        2.4204235899        2.6977404798
	 H           5.8315213568       -2.7872462080       -0.3259176391
	 H           6.1864771494       -1.7062481531       -3.6678333147
	 H           3.7960782299        3.1581322848        5.3866753027
	 H           2.6535114939       -0.1633524221        5.7178122706
	 H          -6.5432679638       -1.7424006761        0.8382004652
	 H          -7.2490262563        0.6596683344       -1.4620199800
	 H           6.0902984671        0.6462564487       -1.0799967459
	 H           5.2848966165        0.5355676263        3.6642220165
	             0.0237712124       -0.0062327104        0.0024970501
	            -0.0178424582       -0.0205511138        0.0109028704
	             0.0075764725        0.0029344103       -0.0073809213
	            -0.0165908548       -0.0224026852        0.0231811574
	            -0.0075625914        0.0051314989        0.0139562548
	            -0.0060174169       -0.0051038529        0.0295994051
	            -0.0024271565       -0.0304103345       -0.0144971387
	             0.0130335545       -0.0068214841       -0.0137873419
	             0.0207505859        0.0583598407       -0.0390290181
	            -0.0222877290        0.0033883573       -0.0087118493
	            -0.0065404130       -0.0272550268       -0.0127767919
	            -0.0026063992        0.0240859291       -0.0220713554
	             0.0115432071       -0.0007059097       -0.0055543099
	             0.0087119182        0.0242297120       -0.0169717527
	            -0.0061318521        0.0063478200        0.0043050189
	             0.0051535785       -0.0232002893        0.0212736990
	             0.0098192921       -0.0062474279       -0.0255191942
	             0.0069695170        0.0282668495        0.0177173232
	            -0.0089047312       -0.0202174726        0.0183500444
	            -0.0125415728       -0.0227448641        0.0311510068
	            -0.0141108949        0.0165052699       -0.0123626505
	             0.0098295878        0.0267578302        0.0089825474
	             0.0063739765       -0.0042030975       -0.0032751042

	---Fragment 1 Intrafragment Coordinates---
	 - Coordinate -           - BOHR/RAD -       - ANG/DEG -
	 R(1,2)           =         2.912346	       1.541147
	 R(1,10)          =         2.881019	       1.524570
	 R(1,11)          =         2.168877	       1.147720
	 R(1,12)          =         2.186716	       1.157160
	 R(2,3)           =         2.755745	       1.458278
	 R(2,5)           =         2.949800	       1.560967
	 R(3,4)           =         2.993751	       1.584225
	 R(3,6)           =         2.178098	       1.152600
	 R(3,7)           =         2.181289	       1.154288
	 R(4,8)           =         2.603655	       1.377795
	 R(4,9)           =         2.459637	       1.301584
	 R(5,13)          =         2.992304	       1.583459
	 R(5,14)          =         2.170682	       1.148675
	 R(5,15)          =         2.091351	       1.106695
	 R(8,20)          =         1.992009	       1.054126
	 R(8,21)          =         1.957865	       1.036058
	 R(10,16)         =         2.170064	       1.148348
	 R(10,17)         =         2.156674	       1.141263
	 R(10,22)         =         2.163858	       1.145064
	 R(13,18)         =         2.181047	       1.154160
	 R(13,19)         =         2.158638	       1.142302
	 R(13,23)         =         2.084728	       1.103190
	 B(1,2,3)         =         1.987277	     113.862597
	 B(1,2,5)         =         2.028262	     116.210861
	 B(1,10,16)       =         1.908877	     109.370621
	 B(1,10,17)       =         1.912174	     109.559483
	 B(1,10,22)       =         1.946562	     111.529804
	 B(2,1,10)        =         1.960846	     112.348227
	 B(2,1,11)        =         1.864934	     106.852834
	 B(2,1,12)        =         1.954711	     111.996717
	 B(2,3,4)         =         1.999510	     114.563484
	 B(2,3,6)         =         1.888200	     108.185863
	 B(2,3,7)         =         1.916738	     109.821025
	 B(2,5,13)        =         1.976585	     113.249987
	 B(2,5,14)        =         1.918923	     109.946186
	 B(2,5,15)        =         1.903973	     109.089600
	 B(3,2,5)         =         2.012812	     115.325628
	 B(3,4,8)         =         1.974070	     113.105889
	 B(3,4,9)         =         2.168945	     124.271414
	 B(4,3,6)         =         1.907013	     109.263817
	 B(4,3,7)         =         1.888181	     108.184794
	 B(4,8,20)        =         2.126421	     121.834946
	 B(4,8,21)        =         2.030389	     116.332744
	 B(5,13,18)       =         1.949684	     111.708687
	 B(5,13,19)       =         1.929346	     110.543393
	 B(5,13,23)       =         1.915447	     109.747011
	 B(6,3,7)         =         1.859216	     106.525216
	 B(8,4,9)         =         2.138215	     122.510685
	 B(10,1,11)       =         1.893939	     108.514720
	 B(10,1,12)       =         1.899153	     108.813475
	 B(11,1,12)       =         1.887804	     108.163189
	 B(13,5,14)       =         1.932108	     110.701656
	 B(13,5,15)       =         1.899576	     108.837707
	 B(14,5,15)       =         1.826321	     104.640488
	 B(16,10,17)      =         1.908645	     109.357321
	 B(16,10,22)      =         1.899655	     108.842239
	 B(17,10,22)      =         1.887514	     108.146595
	 B(18,13,19)      =         1.898489	     108.775410
	 B(18,13,23)      =         1.902126	     108.983807
	 B(19,13,23)      =         1.866649	     106.951118
	 B(20,8,21)       =         2.073444	     118.799574
	*D(1,2,3,4)       =        -1.319575	     -75.606077
	 D(1,2,3,6)       =         2.831890	     162.255336
	 D(1,2,3,7)       =         0.809218	      46.364793
	*D(1,2,5,13)      =        -1.831016	    -104.909487
	 D(1,2,5,14)      =         0.340476	      19.507814
	 D(1,2,5,15)      =         2.333861	     133.720391
	 D(2,1,10,16)     =         0.929485	      53.255592
	 D(2,1,10,17)     =         3.021313	     173.108508
	 D(2,1,10,22)     =        -1.172690	     -67.190176
	*D(2,3,4,8)       =        -3.036057	    -173.953268
[...]
	 B(1,2,5)         =         2.038331	     116.787782
	 B(1,10,16)       =         1.925274	     110.310073
	 B(1,10,17)       =         1.924887	     110.287893
	 B(1,10,22)       =         1.945717	     111.481385
	 B(2,1,10)        =         1.964084	     112.533727
	 B(2,1,11)        =         1.873728	     107.356688
	 B(2,1,12)        =         1.936678	     110.963477
	 B(2,3,4)         =         2.007641	     115.029349
	 B(2,3,6)         =         1.908931	     109.373683
	 B(2,3,7)         =         1.910204	     109.446619
	 B(2,5,13)        =         1.966417	     112.667380
	 B(2,5,14)        =         1.906517	     109.235390
	 B(2,5,15)        =         1.910349	     109.454911
	 B(3,2,5)         =         2.026555	     116.113063
	 B(3,4,8)         =         2.011097	     115.227388
	 B(3,4,9)         =         2.142470	     122.754477
	 B(4,3,6)         =         1.900365	     108.882866
	 B(4,3,7)         =         1.876601	     107.521302
	 B(4,8,20)        =         2.128019	     121.926527
	 B(4,8,21)        =         2.055879	     117.793201
	 B(5,13,18)       =         1.937541	     111.012899
	 B(5,13,19)       =         1.924185	     110.247700
	 B(5,13,23)       =         1.934386	     110.832133
	 B(6,3,7)         =         1.853777	     106.213619
	 B(8,4,9)         =         2.127314	     121.886138
	 B(10,1,11)       =         1.900190	     108.872851
	 B(10,1,12)       =         1.920518	     110.037600
	 B(11,1,12)       =         1.865020	     106.857749
	 B(13,5,14)       =         1.923854	     110.228725
	 B(13,5,15)       =         1.914295	     109.681035
	 B(14,5,15)       =         1.837979	     105.308461
	 B(16,10,17)      =         1.900288	     108.878458
	 B(16,10,22)      =         1.889617	     108.267089
	 B(17,10,22)      =         1.876660	     107.524706
	 B(18,13,19)      =         1.892548	     108.435032
	 B(18,13,23)      =         1.894516	     108.547786
	 B(19,13,23)      =         1.879077	     107.663154
	 B(20,8,21)       =         2.055840	     117.790945
	*D(1,2,3,4)       =        -1.319575	     -75.606077
	 D(1,2,3,6)       =         2.819038	     161.518991
	 D(1,2,3,7)       =         0.794826	      45.540155
	*D(1,2,5,13)      =        -1.831016	    -104.909487
	 D(1,2,5,14)      =         0.313304	      17.951000
	 D(1,2,5,15)      =         2.317339	     132.773719
	 D(2,1,10,16)     =         0.962283	      55.134730
	 D(2,1,10,17)     =         3.062056	     175.442889
	 D(2,1,10,22)     =        -1.137696	     -65.185205
	*D(2,3,4,8)       =        -3.036057	    -173.953268
	 D(2,3,4,9)       =         0.177236	      10.154859
	 D(2,5,13,18)     =        -3.124349	    -179.012037
	 D(2,5,13,19)     =        -1.026763	     -58.829174
	 D(2,5,13,23)     =         1.051981	      60.274072
	 D(3,2,1,10)      =        -2.658401	    -152.315140
	 D(3,2,1,11)      =        -0.567937	     -32.540402
	 D(3,2,1,12)      =         1.464163	      83.890375
	 D(3,2,5,13)      =         1.939760	     111.140041
	 D(3,2,5,14)      =        -2.199106	    -125.999471
	 D(3,2,5,15)      =        -0.195071	     -11.176753
	*D(3,4,8,20)      =         0.364655	      20.893166
	 D(3,4,8,21)      =        -3.096382	    -177.409598
	 D(4,3,2,5)       =         1.193239	      68.367543
	*D(5,2,1,10)      =         1.116251	      63.956460
	 D(5,2,1,11)      =        -3.076471	    -176.268802
	 D(5,2,1,12)      =        -1.044371	     -59.838026
	 D(5,2,3,6)       =        -0.951333	     -54.507389
	 D(5,2,3,7)       =        -2.975546	    -170.486225
	 D(6,3,4,8)       =        -0.886911	     -50.816260
	 D(6,3,4,9)       =         2.326382	     133.291867
	 D(7,3,4,8)       =         1.114516	      63.857044
	 D(7,3,4,9)       =        -1.955377	    -112.034829
	 D(9,4,8,20)      =        -2.847953	    -163.175692
	 D(9,4,8,21)      =        -0.025804	      -1.478456
	 D(11,1,10,16)    =        -1.112775	     -63.757335
	 D(11,1,10,17)    =         0.986998	      56.550825
	 D(11,1,10,22)    =         3.070431	     175.922731
	 D(12,1,10,16)    =         3.131845	     179.441481
	 D(12,1,10,17)    =        -1.051567	     -60.250360
	 D(12,1,10,22)    =         1.031866	      59.121546
	 D(14,5,13,18)    =         1.024246	      58.684996
	 D(14,5,13,19)    =         3.121833	     178.867858
	 D(14,5,13,23)    =        -1.082608	     -62.028895
	 D(15,5,13,18)    =        -0.991742	     -56.822617
	 D(15,5,13,19)    =         1.105845	      63.360245
	 D(15,5,13,23)    =        -3.098597	    -177.536509
	 R(1,9)           =         5.981150	       3.165088
	 R(5,9)           =         6.013143	       3.182018
	 R(10,13)         =         6.550459	       3.466353

	Current energy   :      -421.6455507052

	Energy change for the previous step:
		Projected    :         0.0000034692
		Actual       :        -0.0000027105

	Performing BFGS update.
	Previous computed or guess Hessian on step 1.
	Steps to be used in Hessian update: 4 3
	Taking RFO optimization step.
	Going to follow RFO solution 1.
	Using RFO vector 1.
	Norm of target step-size    0.00754
	Projected energy change by RFO approximation:         0.0000000129

	Back-transformation to cartesian coordinates...
	Could not converge backtransformation.
	Using first guess instead.

	Back-transformation to cartesian coordinates to adjust frozen coordinates...
	Successfully converged to displaced geometry.

	--- Internal Coordinate Step in ANG or DEG, aJ/ANG or AJ/DEG ---
	 ---------------------------------------------------------------------------
	   Coordinate                Previous        Force       Change         New 
	   ----------                --------       ------       ------       ------
	    1 R(1,2)          =      1.464871     0.001156     0.000234     1.465104
	    2 R(1,10)         =      1.526408     0.000103    -0.000003     1.526405
	    3 R(1,11)         =      1.093091    -0.000464    -0.000096     1.092995
	    4 R(1,12)         =      1.098479     0.000650     0.000083     1.098562
	    5 R(2,3)          =      1.439568     0.001168     0.000193     1.439762
	    6 R(2,5)          =      1.467543     0.000020     0.000000     1.467543
	    7 R(3,4)          =      1.532105     0.000078     0.000044     1.532148
	    8 R(3,6)          =      1.096571     0.000161     0.000003     1.096574
	    9 R(3,7)          =      1.093651     0.000105    -0.000019     1.093631
	   10 R(4,8)          =      1.366871     0.000973     0.000117     1.366988
	   11 R(4,9)          =      1.241034    -0.000622    -0.000075     1.240959
	   12 R(5,13)         =      1.529269     0.000351     0.000051     1.529319
	   13 R(5,14)         =      1.094984     0.000449     0.000050     1.095035
	   14 R(5,15)         =      1.094129    -0.000197    -0.000033     1.094096
	   15 R(8,20)         =      1.003195     0.000190     0.000001     1.003196
	   16 R(8,21)         =      1.004861     0.000106     0.000001     1.004862
	   17 R(10,16)        =      1.090820     0.000204     0.000015     1.090835
	   18 R(10,17)        =      1.092104     0.000249     0.000006     1.092110
	   19 R(10,22)        =      1.091858    -0.000007    -0.000027     1.091831
	   20 R(13,18)        =      1.093432     0.000279    -0.000002     1.093430
	   21 R(13,19)        =      1.091914     0.000053    -0.000021     1.091893
	   22 R(13,23)        =      1.090011    -0.000133     0.000003     1.090014
	   23 B(1,2,3)        =    116.724676     0.000003     0.019056   116.743732
	   24 B(1,2,5)        =    116.787782    -0.000007    -0.010337   116.777445
	   25 B(1,10,16)      =    110.310073     0.000001     0.007041   110.317114
	   26 B(1,10,17)      =    110.287893     0.000002     0.002770   110.290664
	   27 B(1,10,22)      =    111.481385    -0.000004    -0.015791   111.465594
	   28 B(2,1,10)       =    112.533727     0.000001     0.016337   112.550064
	   29 B(2,1,11)       =    107.356688    -0.000001    -0.024119   107.332568
	   30 B(2,1,12)       =    110.963477     0.000005     0.043525   111.007002
	   31 B(2,3,4)        =    115.029349    -0.000004     0.009011   115.038360
	   32 B(2,3,6)        =    109.373683     0.000003     0.010492   109.384176
	   33 B(2,3,7)        =    109.446619     0.000003     0.011553   109.458172
	   34 B(2,5,13)       =    112.667380     0.000002     0.014440   112.681821
	   35 B(2,5,14)       =    109.235390     0.000003     0.025487   109.260877
	   36 B(2,5,15)       =    109.454911    -0.000003    -0.025480   109.429431
	   37 B(3,2,5)        =    116.113063     0.000004     0.005080   116.118143
	   38 B(3,4,8)        =    115.227388    -0.000005    -0.026715   115.200673
	   39 B(3,4,9)        =    122.754477     0.000001     0.019018   122.773495
	   40 B(4,3,6)        =    108.882866    -0.000002    -0.025218   108.857648
	   41 B(4,3,7)        =    107.521302     0.000000    -0.008812   107.512490
	   42 B(4,8,20)       =    121.926527    -0.000001    -0.001782   121.924745
	   43 B(4,8,21)       =    117.793201     0.000001     0.005679   117.798880
	   44 B(5,13,18)      =    111.012899     0.000000    -0.003859   111.009040
	   45 B(5,13,19)      =    110.247700     0.000002     0.010160   110.257860
	   46 B(5,13,23)      =    110.832133    -0.000002    -0.008259   110.823874
	   47 B(6,3,7)        =    106.213619    -0.000000     0.002128   106.215746
	   48 B(8,4,9)        =    121.886138     0.000004     0.005451   121.891589
	   49 B(10,1,11)      =    108.872851    -0.000002    -0.031863   108.840989
	   50 B(10,1,12)      =    110.037600    -0.000003    -0.002495   110.035105
	   51 B(11,1,12)      =    106.857749     0.000000    -0.004723   106.853026
	   52 B(13,5,14)      =    110.228725    -0.000002     0.000075   110.228799
	   53 B(13,5,15)      =    109.681035    -0.000001    -0.014775   109.666260
	   54 B(14,5,15)      =    105.308461     0.000000    -0.000956   105.307505
	   55 B(16,10,17)     =    108.878458    -0.000001     0.001386   108.879844
	   56 B(16,10,22)     =    108.267089     0.000001    -0.004231   108.262858
	   57 B(17,10,22)     =    107.524706     0.000001     0.009030   107.533736
	   58 B(18,13,19)     =    108.435032    -0.000000     0.007418   108.442450
	   59 B(18,13,23)     =    108.547786     0.000000    -0.001499   108.546287
	   60 B(19,13,23)     =    107.663154    -0.000001    -0.003794   107.659360
	   61 B(20,8,21)      =    117.790945    -0.000000     0.001553   117.792498
	   62 *D(1,2,3,4)     =    -75.606077    -0.000000    -0.000000   -75.606077
	   63 D(1,2,3,6)      =    161.518991     0.000001     0.018527   161.537518
	   64 D(1,2,3,7)      =     45.540155    -0.000000     0.003540    45.543696
	   65 *D(1,2,5,13)    =   -104.909487    -0.000000    -0.000000  -104.909487
	   66 D(1,2,5,14)     =     17.951000     0.000000     0.028429    17.979430
	   67 D(1,2,5,15)     =    132.773719     0.000000     0.027354   132.801073
	   68 D(2,1,10,16)    =     55.134730    -0.000001     0.068056    55.202785
	   69 D(2,1,10,17)    =    175.442889    -0.000000     0.076108   175.518997
	   70 D(2,1,10,22)    =    -65.185205    -0.000000     0.079060   -65.106145
	   71 *D(2,3,4,8)     =   -173.953268    -0.000000    -0.000000  -173.953268
	   72 D(2,3,4,9)      =     10.154859     0.000000     0.034655    10.189514
	   73 D(2,5,13,18)    =   -179.012037     0.000000     0.033054  -178.978983
	   74 D(2,5,13,19)    =    -58.829174     0.000001     0.046536   -58.782638
	   75 D(2,5,13,23)    =     60.274072     0.000001     0.043092    60.317163
	   76 D(3,2,1,10)     =   -152.315140     0.000001     0.023104  -152.292036
	   77 D(3,2,1,11)     =    -32.540402    -0.000000    -0.022375   -32.562776
	   78 D(3,2,1,12)     =     83.890375     0.000000    -0.018636    83.871739
	   79 D(3,2,5,13)     =    111.140041    -0.000001    -0.028086   111.111955
	   80 D(3,2,5,14)     =   -125.999471    -0.000000     0.000344  -125.999128
	   81 D(3,2,5,15)     =    -11.176753    -0.000000    -0.000732   -11.177485
	   82 *D(3,4,8,20)    =     20.893166     0.000000    -0.000000    20.893166
	   83 D(3,4,8,21)     =   -177.409598     0.000000     0.019809  -177.389789
	   84 D(4,3,2,5)      =     68.367543    -0.000000     0.017296    68.384840
	   85 *D(5,2,1,10)    =     63.956460     0.000000     0.000000    63.956460
	   86 D(5,2,1,11)     =   -176.268802    -0.000001    -0.045479  -176.314281
	   87 D(5,2,1,12)     =    -59.838026    -0.000000    -0.041740   -59.879765
	   88 D(5,2,3,6)      =    -54.507389     0.000000     0.035823   -54.471565
	   89 D(5,2,3,7)      =   -170.486225    -0.000000     0.020837  -170.465388
	   90 D(6,3,4,8)      =    -50.816260     0.000000     0.000521   -50.815739
	   91 D(6,3,4,9)      =    133.291867     0.000000     0.035176   133.327042
	   92 D(7,3,4,8)      =     63.857044    -0.000000    -0.014296    63.842749
	   93 D(7,3,4,9)      =   -112.034829     0.000000     0.020359  -112.014470
	   94 D(9,4,8,20)     =   -163.175692    -0.000000    -0.033688  -163.209380
	   95 D(9,4,8,21)     =     -1.478456    -0.000000    -0.013878    -1.492334
	   96 D(11,1,10,16)   =    -63.757335    -0.000000     0.109127   -63.648208
	   97 D(11,1,10,17)   =     56.550825     0.000000     0.117180    56.668004
	   98 D(11,1,10,22)   =    175.922731     0.000000     0.120131   176.042862
	   99 D(12,1,10,16)   =    179.441481     0.000001     0.134748   179.576229
	  100 D(12,1,10,17)   =    -60.250360     0.000001     0.142801   -60.107559
	  101 D(12,1,10,22)   =     59.121546     0.000001     0.145752    59.267299
	  102 D(14,5,13,18)   =     58.684996    -0.000000    -0.010004    58.674992
	  103 D(14,5,13,19)   =    178.867858    -0.000000     0.003478   178.871336
	  104 D(14,5,13,23)   =    -62.028895    -0.000000     0.000033   -62.028862
	  105 D(15,5,13,18)   =    -56.822617    -0.000000    -0.000338   -56.822955
	  106 D(15,5,13,19)   =     63.360245     0.000000     0.013144    63.373389
	  107 D(15,5,13,23)   =   -177.536509    -0.000000     0.009699  -177.526809
	  108 R(1,9)          =      3.165088     0.000618     0.000978     3.166066
	  109 R(5,9)          =      3.182018     0.000135     0.001409     3.183428
	  110 R(10,13)        =      3.466353     0.000249     0.000654     3.467007
	 ---------------------------------------------------------------------------
	Successfully symmetrized geometry.

  ==> Convergence Check <==

  Measures of convergence in internal coordinates in au.
  Criteria marked as inactive (o), active & met (*), and active & unmet ( ).
  ---------------------------------------------------------------------------------------------
   Step     Total Energy     Delta E     MAX Force     RMS Force      MAX Disp      RMS Disp   
  ---------------------------------------------------------------------------------------------
    Convergence Criteria             o    2.50e-03 *    1.70e-03 *    1.00e-02 *    6.70e-03 *
  ---------------------------------------------------------------------------------------------
      5    -421.64555071   -2.71e-06 o    1.42e-04 *    3.69e-05 *    2.66e-03 *    7.19e-04 *  ~
  ---------------------------------------------------------------------------------------------


  **** Optimization is complete! (in 5 steps) ****

  ==> Optimization Summary <==

  Measures of convergence in internal coordinates in au.
  --------------------------------------------------------------------------------------------------------------- ~
   Step         Total Energy             Delta E       MAX Force       RMS Force        MAX Disp        RMS Disp  ~
  --------------------------------------------------------------------------------------------------------------- ~
      1    -421.645444569224   -421.645444569224      0.00189854      0.00035127      0.03201513      0.01370730  ~
      2    -421.645505035709     -0.000060466486      0.00100182      0.00021446      0.02634038      0.00986773  ~
      3    -421.645538953763     -0.000033918054      0.00065775      0.00017032      0.01424090      0.00567275  ~
      4    -421.645547994636     -0.000009040873      0.00031544      0.00007134      0.01101669      0.00421317  ~
      5    -421.645550705155     -0.000002710518      0.00014178      0.00003690      0.00266345      0.00071903  ~
  --------------------------------------------------------------------------------------------------------------- ~

	Writing optimization data to binary file.
	Final energy is   -421.6455507051547
	Final (previous) structure:
	Cartesian Geometry (in Angstrom)
	    C     1.2826112180  -0.4499613503  -1.0700607251
	    N     0.5574058754  -0.4003788174   0.2017352058
	    C    -0.8210342868  -0.8147140870   0.1775319752
	    C    -1.7921472385   0.1997045836  -0.4350362857
	    C     0.8826604500   0.7089542672   1.1057656024
	    H    -1.1486216430  -1.0483217412   1.1976214038
	    H    -0.9120994740  -1.7435003449  -0.3926745885
	    N    -3.1150702912  -0.1318024282  -0.3438584396
	    O    -1.4104791364   1.2126454732  -1.0420344264
	    C     2.7822819707  -0.6619622312  -0.8804167635
	    H     0.8770188053  -1.2869738065  -1.6443009251
	    H     1.1026477262   0.4585183387  -1.6607671627
	    C     1.7419616740   0.2698586418   2.2921294464
	    H     1.3912969285   1.4972410022   0.5410678252
	    H    -0.0425565026   1.1655536336   1.4699194050
	    H     2.9658147329  -1.5578675271  -0.2858091485
	    H     3.2743854809  -0.7737134814  -1.8489397789
	    H     1.9533395432   1.1123774683   2.9562647708
	    H     1.2263172003  -0.5020753614   2.8670244691
	    H    -3.4516338933  -0.7894883773   0.3347980391
	    H    -3.7834824608   0.4869311902  -0.7682867055
	    H     3.2449788375   0.1866204656  -0.3725059234
	    H     2.6887993678  -0.1488137090   1.9510476318
	Saving final (previous) structure.
	Cleaning optimization helper files.
			--------------------------
			 OPTKING Finished Execution 
			--------------------------

    Final optimized geometry and variables:
    Molecular point group: c1
    Full point group: C1

    Geometry (in Angstrom), charge = 0, multiplicity = 1:

    C            1.282611223005    -0.449961352047    -1.070060729275
    N            0.557405877623    -0.400378819012     0.201735206622
    C           -0.821034290048    -0.814714090228     0.177531975900
    C           -1.792147245534     0.199704584377    -0.435036287449
    C            0.882660453500     0.708954269965     1.105765606724
    H           -1.148621647542    -1.048321745288     1.197621408494
    H           -0.912099477565    -1.743500351788    -0.392674590001
    N           -3.115070303427    -0.131802428766    -0.343858440995
    O           -1.410479141898     1.212645477928    -1.042034430530
    C            2.782281981612    -0.661962233819    -0.880416766995
    H            0.877018808751    -1.286973811579    -1.644300931563
    H            1.102647730550     0.458518340484    -1.660767169216
    C            1.741961680824     0.269858642859     2.292129455437
    H            1.391296933951     1.497241008086     0.541067827295
    H           -0.042556502761     1.165553638162     1.469919410816
    H            2.965814744560    -1.557867533244    -0.285809149625
    H            3.274385493761    -0.773713484408    -1.848939786151
    H            1.953339550924     1.112377472662     2.956264782407
    H            1.226317205142    -0.502075363338     2.867024480401
    H           -3.451633906849    -0.789488380432     0.334798040461
    H           -3.783482475625     0.486931192105    -0.768286708562
    H            3.244978850227     0.186620466307    -0.372505924875
    H            2.688799378357    -0.148813709554     1.951047639420

	Removing binary optimization data file.
	Cleaning optimization helper files.

    Psi4 stopped on: Wednesday, 08 June 2022 12:08PM
    Psi4 wall time for execution: 0:07:46.63

*** Psi4 exiting successfully. Buy a developer a beer!
