Generated by Psi4
        SP                           RHF                         MINIX
Number of atoms                            I               32
Charge                                     I                0
Multiplicity                               I                1
Number of electrons                        I              112
Number of alpha electrons                  I               56
Number of beta electrons                   I               56
Number of basis functions                  I               92
Number of independent functions            I               92
Atomic numbers                             I   N=          32
           6           7           6           6           6           8
           6           6           6           6           6           1
           1           1           7           1           1           1
           1           1           1           7           6           6
           1           1           1           1           1           1
           1           1
Nuclear charges                            R   N=          32
  6.00000000e+00  7.00000000e+00  6.00000000e+00  6.00000000e+00  6.00000000e+00
  8.00000000e+00  6.00000000e+00  6.00000000e+00  6.00000000e+00  6.00000000e+00
  6.00000000e+00  1.00000000e+00  1.00000000e+00  1.00000000e+00  7.00000000e+00
  1.00000000e+00  1.00000000e+00  1.00000000e+00  1.00000000e+00  1.00000000e+00
  1.00000000e+00  7.00000000e+00  6.00000000e+00  6.00000000e+00  1.00000000e+00
  1.00000000e+00  1.00000000e+00  1.00000000e+00  1.00000000e+00  1.00000000e+00
  1.00000000e+00  1.00000000e+00
Current cartesian coordinates              R   N=          96
 -2.16060650e+00 -7.02272103e-01 -2.68661674e-02  1.47693958e-01 -1.03316315e+00
  1.40138884e+00  2.49133230e+00 -1.35165292e-01  5.04146874e-01  4.77620016e+00
 -4.39978116e-01  2.32206341e+00 -1.00994000e-01 -2.17606951e+00  3.91207897e+00
  2.81390855e+00  9.14199625e-01 -1.55603255e+00 -4.52238622e+00 -6.82241006e-01
  1.18463725e+00 -6.76492421e+00 -2.66950128e-02 -2.78473247e+00 -6.78136483e+00
 -3.72136948e-01 -1.71241243e-01 -4.42922272e+00 -1.27606388e-01 -4.01173165e+00
 -2.17024411e+00 -4.41111952e-01 -2.65812082e+00  1.64851445e+00 -3.08899620e+00
  4.51320085e+00 -1.54342195e+00 -3.65912657e+00  3.90281931e+00 -5.79850601e-01
 -6.97547787e-01  5.27627226e+00  7.02932062e+00  9.09286337e-01  1.36567301e+00
  5.19477449e+00 -2.46746528e+00  2.40388855e+00  4.29261924e+00  2.53740344e-01
  4.21103364e+00 -4.69378438e+00 -8.54961974e-01  3.22157304e+00 -8.55128232e+00
 -3.82341470e-01  8.66596345e-01 -4.33284669e+00  2.62173188e-02 -6.05849401e+00
 -4.45680046e-01 -5.49015314e-01 -3.76285472e+00 -8.99328926e+00  1.40545749e-01
 -4.25701810e+00  6.80444321e+00  3.67282182e+00  1.48831624e+00  9.39752540e+00
  5.66419094e-02  2.54013780e+00 -8.63764280e+00  1.09429052e+00 -5.89182017e+00
  6.96053459e+00  4.30323446e+00  3.45986751e+00  4.96687352e+00  4.35142247e+00
  8.20487027e-01  9.86787823e+00 -1.80625011e+00  1.76327139e+00  9.17094723e+00
 -1.87321733e-01  4.58727811e+00 -1.06460437e+01 -5.62432369e-01 -3.77173643e+00
  8.27824061e+00  4.40622453e+00  3.14229398e-01  1.08278591e+01  1.43746479e+00
  2.17164121e+00
Integer atomic weights                     I   N=          32
          12          14          12          12          12          16
          12          12          12          12          12           1
           1           1          14           1           1           1
           1           1           1          14          12          12
           1           1           1           1           1           1
           1           1
Real atomic weights                        R   N=          32
  1.20000000e+01  1.40030740e+01  1.20000000e+01  1.20000000e+01  1.20000000e+01
  1.59949146e+01  1.20000000e+01  1.20000000e+01  1.20000000e+01  1.20000000e+01
  1.20000000e+01  1.00782503e+00  1.00782503e+00  1.00782503e+00  1.40030740e+01
  1.00782503e+00  1.00782503e+00  1.00782503e+00  1.00782503e+00  1.00782503e+00
  1.00782503e+00  1.40030740e+01  1.20000000e+01  1.20000000e+01  1.00782503e+00
  1.00782503e+00  1.00782503e+00  1.00782503e+00  1.00782503e+00  1.00782503e+00
  1.00782503e+00  1.00782503e+00
Number of primitive shells                 I              186
Number of contracted shells                I               62
Pure/Cartesian d shells                    I                0
Pure/Cartesian f shells                    I                0
Highest angular momentum                   I                1
Largest degree of contraction              I                3
Shell types                                I   N=          62
           0           0           1           0           0           1
           0           0           1           0           0           1
           0           0           1           0           0           1
           0           0           1           0           0           1
           0           0           1           0           0           1
           0           0           1           0           0           0
           0           0           1           0           0           0
           0           0           0           0           0           1
           0           0           1           0           0           1
           0           0           0           0           0           0
           0           0
Number of primitives per shell             I   N=          62
           3           3           3           3           3           3
           3           3           3           3           3           3
           3           3           3           3           3           3
           3           3           3           3           3           3
           3           3           3           3           3           3
           3           3           3           3           3           3
           3           3           3           3           3           3
           3           3           3           3           3           3
           3           3           3           3           3           3
           3           3           3           3           3           3
           3           3
Shell to atom map                          I   N=          62
           1           1           1           2           2           2
           3           3           3           4           4           4
           5           5           5           6           6           6
           7           7           7           8           8           8
           9           9           9          10          10          10
          11          11          11          12          13          14
          15          15          15          16          17          18
          19          20          21          22          22          22
          23          23          23          24          24          24
          25          26          27          28          29          30
          31          32
Primitive exponents                        R   N=         186
  1.53172260e+02  2.30730300e+01  4.92329000e+00  6.61661200e+00  5.25856000e-01
  1.69958000e-01  4.91292000e+00  9.97616000e-01  2.32685000e-01  2.18364490e+02
  3.25988900e+01  6.91739000e+00  8.91942600e+00  7.06141000e-01  2.25054000e-01
  6.55627200e+00  1.34907900e+00  3.12209000e-01  1.53172260e+02  2.30730300e+01
  4.92329000e+00  6.61661200e+00  5.25856000e-01  1.69958000e-01  4.91292000e+00
  9.97616000e-01  2.32685000e-01  1.53172260e+02  2.30730300e+01  4.92329000e+00
  6.61661200e+00  5.25856000e-01  1.69958000e-01  4.91292000e+00  9.97616000e-01
  2.32685000e-01  1.53172260e+02  2.30730300e+01  4.92329000e+00  6.61661200e+00
  5.25856000e-01  1.69958000e-01  4.91292000e+00  9.97616000e-01  2.32685000e-01
  2.81866580e+02  4.24160000e+01  9.09562000e+00  1.17893260e+01  9.12894000e-01
  2.86661000e-01  8.27414000e+00  1.71546300e+00  3.83013000e-01  1.53172260e+02
  2.30730300e+01  4.92329000e+00  6.61661200e+00  5.25856000e-01  1.69958000e-01
  4.91292000e+00  9.97616000e-01  2.32685000e-01  1.53172260e+02  2.30730300e+01
  4.92329000e+00  6.61661200e+00  5.25856000e-01  1.69958000e-01  4.91292000e+00
  9.97616000e-01  2.32685000e-01  1.53172260e+02  2.30730300e+01  4.92329000e+00
  6.61661200e+00  5.25856000e-01  1.69958000e-01  4.91292000e+00  9.97616000e-01
  2.32685000e-01  1.53172260e+02  2.30730300e+01  4.92329000e+00  6.61661200e+00
  5.25856000e-01  1.69958000e-01  4.91292000e+00  9.97616000e-01  2.32685000e-01
  1.53172260e+02  2.30730300e+01  4.92329000e+00  6.61661200e+00  5.25856000e-01
  1.69958000e-01  4.91292000e+00  9.97616000e-01  2.32685000e-01  7.03406300e+00
  1.06475600e+00  2.36559000e-01  7.03406300e+00  1.06475600e+00  2.36559000e-01
  7.03406300e+00  1.06475600e+00  2.36559000e-01  2.18364490e+02  3.25988900e+01
  6.91739000e+00  8.91942600e+00  7.06141000e-01  2.25054000e-01  6.55627200e+00
  1.34907900e+00  3.12209000e-01  7.03406300e+00  1.06475600e+00  2.36559000e-01
  7.03406300e+00  1.06475600e+00  2.36559000e-01  7.03406300e+00  1.06475600e+00
  2.36559000e-01  7.03406300e+00  1.06475600e+00  2.36559000e-01  7.03406300e+00
  1.06475600e+00  2.36559000e-01  7.03406300e+00  1.06475600e+00  2.36559000e-01
  2.18364490e+02  3.25988900e+01  6.91739000e+00  8.91942600e+00  7.06141000e-01
  2.25054000e-01  6.55627200e+00  1.34907900e+00  3.12209000e-01  1.53172260e+02
  2.30730300e+01  4.92329000e+00  6.61661200e+00  5.25856000e-01  1.69958000e-01
  4.91292000e+00  9.97616000e-01  2.32685000e-01  1.53172260e+02  2.30730300e+01
  4.92329000e+00  6.61661200e+00  5.25856000e-01  1.69958000e-01  4.91292000e+00
  9.97616000e-01  2.32685000e-01  7.03406300e+00  1.06475600e+00  2.36559000e-01
  7.03406300e+00  1.06475600e+00  2.36559000e-01  7.03406300e+00  1.06475600e+00
  2.36559000e-01  7.03406300e+00  1.06475600e+00  2.36559000e-01  7.03406300e+00
  1.06475600e+00  2.36559000e-01  7.03406300e+00  1.06475600e+00  2.36559000e-01
  7.03406300e+00  1.06475600e+00  2.36559000e-01  7.03406300e+00  1.06475600e+00
  2.36559000e-01
Contraction coefficients                   R   N=         186
  7.07400095e-02  3.95380053e-01  6.63311089e-01 -8.13799884e-02  5.74852918e-01
  5.02412928e-01  1.09930928e-01  4.62712695e-01  6.27513586e-01  6.78700100e-02
  3.90202057e-01  6.70083099e-01 -8.08899713e-02  5.67201799e-01  5.11091818e-01
  1.15918975e-01  4.69957900e-01  6.18447868e-01  7.07400095e-02  3.95380053e-01
  6.63311089e-01 -8.13799884e-02  5.74852918e-01  5.02412928e-01  1.09930928e-01
  4.62712695e-01  6.27513586e-01  7.07400095e-02  3.95380053e-01  6.63311089e-01
 -8.13799884e-02  5.74852918e-01  5.02412928e-01  1.09930928e-01  4.62712695e-01
  6.27513586e-01  7.07400095e-02  3.95380053e-01  6.63311089e-01 -8.13799884e-02
  5.74852918e-01  5.02412928e-01  1.09930928e-01  4.62712695e-01  6.27513586e-01
  6.90600291e-02  3.93159166e-01  6.65669281e-01 -8.08199297e-02  5.82089494e-01
  4.97159568e-01  1.24271003e-01  4.76594010e-01  6.13044013e-01  7.07400095e-02
  3.95380053e-01  6.63311089e-01 -8.13799884e-02  5.74852918e-01  5.02412928e-01
  1.09930928e-01  4.62712695e-01  6.27513586e-01  7.07400095e-02  3.95380053e-01
  6.63311089e-01 -8.13799884e-02  5.74852918e-01  5.02412928e-01  1.09930928e-01
  4.62712695e-01  6.27513586e-01  7.07400095e-02  3.95380053e-01  6.63311089e-01
 -8.13799884e-02  5.74852918e-01  5.02412928e-01  1.09930928e-01  4.62712695e-01
  6.27513586e-01  7.07400095e-02  3.95380053e-01  6.63311089e-01 -8.13799884e-02
  5.74852918e-01  5.02412928e-01  1.09930928e-01  4.62712695e-01  6.27513586e-01
  7.07400095e-02  3.95380053e-01  6.63311089e-01 -8.13799884e-02  5.74852918e-01
  5.02412928e-01  1.09930928e-01  4.62712695e-01  6.27513586e-01  7.04520124e-02
  4.07826072e-01  6.47752114e-01  7.04520124e-02  4.07826072e-01  6.47752114e-01
  7.04520124e-02  4.07826072e-01  6.47752114e-01  6.78700100e-02  3.90202057e-01
  6.70083099e-01 -8.08899713e-02  5.67201799e-01  5.11091818e-01  1.15918975e-01
  4.69957900e-01  6.18447868e-01  7.04520124e-02  4.07826072e-01  6.47752114e-01
  7.04520124e-02  4.07826072e-01  6.47752114e-01  7.04520124e-02  4.07826072e-01
  6.47752114e-01  7.04520124e-02  4.07826072e-01  6.47752114e-01  7.04520124e-02
  4.07826072e-01  6.47752114e-01  7.04520124e-02  4.07826072e-01  6.47752114e-01
  6.78700100e-02  3.90202057e-01  6.70083099e-01 -8.08899713e-02  5.67201799e-01
  5.11091818e-01  1.15918975e-01  4.69957900e-01  6.18447868e-01  7.07400095e-02
  3.95380053e-01  6.63311089e-01 -8.13799884e-02  5.74852918e-01  5.02412928e-01
  1.09930928e-01  4.62712695e-01  6.27513586e-01  7.07400095e-02  3.95380053e-01
  6.63311089e-01 -8.13799884e-02  5.74852918e-01  5.02412928e-01  1.09930928e-01
  4.62712695e-01  6.27513586e-01  7.04520124e-02  4.07826072e-01  6.47752114e-01
  7.04520124e-02  4.07826072e-01  6.47752114e-01  7.04520124e-02  4.07826072e-01
  6.47752114e-01  7.04520124e-02  4.07826072e-01  6.47752114e-01  7.04520124e-02
  4.07826072e-01  6.47752114e-01  7.04520124e-02  4.07826072e-01  6.47752114e-01
  7.04520124e-02  4.07826072e-01  6.47752114e-01  7.04520124e-02  4.07826072e-01
  6.47752114e-01
Coordinates of each shell                  R   N=         186
 -2.16060650e+00 -7.02272103e-01 -2.68661674e-02 -2.16060650e+00 -7.02272103e-01
 -2.68661674e-02 -2.16060650e+00 -7.02272103e-01 -2.68661674e-02  1.47693958e-01
 -1.03316315e+00  1.40138884e+00  1.47693958e-01 -1.03316315e+00  1.40138884e+00
  1.47693958e-01 -1.03316315e+00  1.40138884e+00  2.49133230e+00 -1.35165292e-01
  5.04146874e-01  2.49133230e+00 -1.35165292e-01  5.04146874e-01  2.49133230e+00
 -1.35165292e-01  5.04146874e-01  4.77620016e+00 -4.39978116e-01  2.32206341e+00
  4.77620016e+00 -4.39978116e-01  2.32206341e+00  4.77620016e+00 -4.39978116e-01
  2.32206341e+00 -1.00994000e-01 -2.17606951e+00  3.91207897e+00 -1.00994000e-01
 -2.17606951e+00  3.91207897e+00 -1.00994000e-01 -2.17606951e+00  3.91207897e+00
  2.81390855e+00  9.14199625e-01 -1.55603255e+00  2.81390855e+00  9.14199625e-01
 -1.55603255e+00  2.81390855e+00  9.14199625e-01 -1.55603255e+00 -4.52238622e+00
 -6.82241006e-01  1.18463725e+00 -4.52238622e+00 -6.82241006e-01  1.18463725e+00
 -4.52238622e+00 -6.82241006e-01  1.18463725e+00 -6.76492421e+00 -2.66950128e-02
 -2.78473247e+00 -6.76492421e+00 -2.66950128e-02 -2.78473247e+00 -6.76492421e+00
 -2.66950128e-02 -2.78473247e+00 -6.78136483e+00 -3.72136948e-01 -1.71241243e-01
 -6.78136483e+00 -3.72136948e-01 -1.71241243e-01 -6.78136483e+00 -3.72136948e-01
 -1.71241243e-01 -4.42922272e+00 -1.27606388e-01 -4.01173165e+00 -4.42922272e+00
 -1.27606388e-01 -4.01173165e+00 -4.42922272e+00 -1.27606388e-01 -4.01173165e+00
 -2.17024411e+00 -4.41111952e-01 -2.65812082e+00 -2.17024411e+00 -4.41111952e-01
 -2.65812082e+00 -2.17024411e+00 -4.41111952e-01 -2.65812082e+00  1.64851445e+00
 -3.08899620e+00  4.51320085e+00 -1.54342195e+00 -3.65912657e+00  3.90281931e+00
 -5.79850601e-01 -6.97547787e-01  5.27627226e+00  7.02932062e+00  9.09286337e-01
  1.36567301e+00  7.02932062e+00  9.09286337e-01  1.36567301e+00  7.02932062e+00
  9.09286337e-01  1.36567301e+00  5.19477449e+00 -2.46746528e+00  2.40388855e+00
  4.29261924e+00  2.53740344e-01  4.21103364e+00 -4.69378438e+00 -8.54961974e-01
  3.22157304e+00 -8.55128232e+00 -3.82341470e-01  8.66596345e-01 -4.33284669e+00
  2.62173188e-02 -6.05849401e+00 -4.45680046e-01 -5.49015314e-01 -3.76285472e+00
 -8.99328926e+00  1.40545749e-01 -4.25701810e+00 -8.99328926e+00  1.40545749e-01
 -4.25701810e+00 -8.99328926e+00  1.40545749e-01 -4.25701810e+00  6.80444321e+00
  3.67282182e+00  1.48831624e+00  6.80444321e+00  3.67282182e+00  1.48831624e+00
  6.80444321e+00  3.67282182e+00  1.48831624e+00  9.39752540e+00  5.66419094e-02
  2.54013780e+00  9.39752540e+00  5.66419094e-02  2.54013780e+00  9.39752540e+00
  5.66419094e-02  2.54013780e+00 -8.63764280e+00  1.09429052e+00 -5.89182017e+00
  6.96053459e+00  4.30323446e+00  3.45986751e+00  4.96687352e+00  4.35142247e+00
  8.20487027e-01  9.86787823e+00 -1.80625011e+00  1.76327139e+00  9.17094723e+00
 -1.87321733e-01  4.58727811e+00 -1.06460437e+01 -5.62432369e-01 -3.77173643e+00
  8.27824061e+00  4.40622453e+00  3.14229398e-01  1.08278591e+01  1.43746479e+00
  2.17164121e+00
Total Energy                               R     -6.600720339206888e+02
Alpha Orbital Energies                     R   N=          92
 -2.02891864e+01 -1.54424538e+01 -1.53752792e+01 -1.53725603e+01 -1.13105948e+01
 -1.12200703e+01 -1.12150068e+01 -1.12120096e+01 -1.12044619e+01 -1.11774554e+01
 -1.11675307e+01 -1.11656227e+01 -1.11615791e+01 -1.11564014e+01 -1.11533170e+01
 -1.36429093e+00 -1.23474025e+00 -1.20874552e+00 -1.18988994e+00 -1.11041641e+00
 -1.00756638e+00 -1.00185144e+00 -9.75408070e-01 -9.46540623e-01 -9.39243590e-01
 -8.38874479e-01 -8.24500385e-01 -7.93662075e-01 -7.38161254e-01 -6.95473310e-01
 -6.79369599e-01 -6.65235251e-01 -6.56042204e-01 -6.47487793e-01 -6.30190887e-01
 -6.28634716e-01 -6.06498354e-01 -5.98215717e-01 -5.84044680e-01 -5.69635886e-01
 -5.56328643e-01 -5.49949216e-01 -5.46085544e-01 -5.34083471e-01 -5.30444434e-01
 -5.12754174e-01 -5.06726412e-01 -4.95671807e-01 -4.92121620e-01 -4.75793467e-01
 -4.37018858e-01 -3.82364313e-01 -3.68674539e-01 -3.38031894e-01 -3.29553147e-01
 -2.70230420e-01  1.91312100e-01  1.98071436e-01  2.54240188e-01  4.36842805e-01
  4.53766572e-01  5.12223377e-01  5.22292535e-01  5.41115040e-01  5.61900054e-01
  5.84969369e-01  6.05891825e-01  6.35261930e-01  6.42120029e-01  6.63454278e-01
  6.67393634e-01  6.69839367e-01  6.85797997e-01  6.89602513e-01  6.93950286e-01
  6.99747399e-01  7.14241695e-01  7.25742955e-01  7.36419425e-01  7.46589674e-01
  7.62622454e-01  7.68297452e-01  7.92633596e-01  7.99990446e-01  8.15784868e-01
  8.55737815e-01  8.82394392e-01  8.90561138e-01  9.19489125e-01  9.58355477e-01
  1.07051598e+00  1.11428830e+00
Alpha MO coefficients                      R   N=        8464
  4.64070527e-06  3.61548972e-05  7.88095998e-05 -6.72109255e-05  1.59741863e-04
  2.37396044e-05  3.04854961e-04  6.43016087e-04 -4.17913596e-04  1.14259032e-03
 -8.02376633e-04  1.48089013e-02  1.98729914e-03  6.55217015e-03 -1.28728901e-02
  8.50971948e-06  2.33762177e-04 -8.04181113e-04 -5.43373431e-04  6.60400202e-04
 -2.18827266e-05 -1.34557064e-04  3.42416596e-04  1.04830721e-04  2.19991082e-05
 -9.90381009e-01 -4.91505941e-02  1.62007739e-03  4.94131508e-03 -9.62107678e-03
  1.36108449e-06 -1.99595193e-05 -1.66534734e-05 -2.07611980e-06 -1.26744661e-05
  7.62191318e-07 -1.39924420e-05 -9.76438789e-06  8.84941364e-06  3.59569020e-07
 -2.41918848e-07 -7.48553533e-07  2.95909535e-06 -1.48840250e-06 -3.43581784e-06
 -3.40074009e-06  1.26797338e-04  3.96652082e-05 -6.76192312e-05  3.96811245e-05
  2.05573261e-06 -3.12144833e-04  4.41345078e-05  2.15675035e-04  3.75467741e-04
  1.05412637e-05  1.42230732e-04 -3.91877205e-07 -6.93117206e-06  1.76516064e-04
 -1.25825462e-04 -1.07921666e-04 -8.86144259e-06 -1.48232026e-04 -1.21633160e-04
  1.54121074e-05  1.47465764e-06 -3.16898357e-06  1.07107073e-03 -7.01194222e-09
 -1.42844477e-06  9.65949649e-07 -4.13952878e-07 -5.35592860e-07 -6.08980470e-07
 -9.36426422e-05  1.15293628e-04 -1.24104807e-04 -1.46512897e-04 -1.94200018e-06
  2.25157029e-05 -2.87541292e-05 -2.32774959e-06  1.40195622e-05  1.23305822e-06
  7.55093918e-05  3.61081160e-04  1.94473464e-06 -8.59064339e-06  5.87961001e-07
 -6.48955177e-05  5.40583086e-06 -5.47438123e-04  9.28847346e-03  8.04114771e-03
 -1.07682886e-03  4.88348021e-03 -9.89016877e-01 -5.85812273e-02 -2.93696143e-04
 -7.33326075e-04  2.26548187e-04 -5.79681324e-04  1.05022156e-02 -8.74940863e-03
 -3.26004431e-03  3.20495187e-03 -1.07337021e-06  2.05646465e-04  2.65250124e-04
  2.37937905e-04 -4.86364388e-04 -5.71206231e-04  9.33060560e-03  9.05141793e-04
  3.46187395e-03 -7.74604444e-03  5.19164712e-06  1.97594930e-04  9.97718597e-04
  1.57879808e-04  6.37001630e-05  8.54205141e-06  3.50089385e-04 -2.37740172e-04
  2.00944674e-04 -7.98241835e-04 -4.65842557e-06 -6.86173686e-05  5.58128171e-05
 -5.07027364e-06  3.67717970e-05 -1.01158665e-05 -1.66686131e-04  1.03518062e-04
 -1.07702990e-05 -1.53609604e-04 -1.07695465e-05 -1.44503648e-04 -7.77815905e-05
  8.34974752e-06  1.79651756e-04  7.91073429e-06  3.46891171e-04 -8.13834485e-04
 -4.09112053e-05  1.87210316e-04 -1.12953128e-04 -8.09924056e-05  1.49041955e-04
  3.16286965e-04 -3.02387718e-05 -1.44199075e-04  4.15128190e-05 -1.49385546e-04
 -9.83142824e-05 -5.77245253e-05  4.29454202e-05  1.01396504e-04  1.03255134e-04
  1.23543877e-04  1.12403104e-04  4.32046005e-05  2.60040110e-05 -1.48083777e-06
  1.73544292e-05 -1.59456970e-06 -1.68808382e-05 -1.61547381e-05 -1.70983671e-05
 -1.46413933e-05 -1.25829692e-06  5.25782627e-05 -2.51980517e-05  2.87241308e-05
 -7.47595541e-06  3.87684462e-06  7.48108798e-06  2.10708563e-05 -9.14632079e-07
 -9.12202019e-07  3.38239145e-06  2.32652318e-06 -8.18913223e-06 -5.02853959e-06
 -7.61727062e-05 -5.21175827e-05  1.04885581e-05 -3.37171143e-05 -1.18720562e-04
  2.82476010e-05 -2.78224763e-05  2.54976675e-06 -1.75550378e-05 -3.59018386e-07
  5.54864375e-06 -5.87691895e-06 -1.92305032e-06  1.65593186e-07 -3.60800444e-08
  7.28386854e-07 -6.77855273e-07  5.52355388e-08 -3.88629395e-07 -4.10930096e-07
  4.88627939e-06 -2.37813960e-06  3.95519378e-06 -5.66667102e-06  7.89778109e-08
 -6.14853538e-07 -1.42212558e-07  7.92460297e-07  1.02662923e-06 -1.27404381e-05
 -1.16539607e-04  7.22933767e-05  1.00212568e-05 -2.15701049e-04 -5.75633758e-04
  1.03493059e-02 -8.70244915e-03  5.13322272e-04 -5.43031188e-03  5.77563639e-06
  3.57706101e-04  7.92682414e-04  1.25684938e-04 -2.00922327e-04  2.19928477e-06
  3.79458496e-04  1.62908936e-04 -1.65372036e-04  7.54085986e-04 -1.23580396e-05
 -1.20711098e-04 -1.46044860e-04  4.11568686e-05  1.58874260e-04  1.65132556e-06
  1.88315500e-06 -1.01494521e-06  1.32874303e-05  8.42919315e-07 -1.40418167e-07
 -1.96692244e-08  3.09384136e-08 -1.63701697e-07 -8.97679076e-08  1.13342742e-04
  1.53173888e-04  1.36721698e-05  1.11861205e-04 -9.88995865e-01 -5.90320496e-02
 -1.14715720e-03 -8.35489789e-05 -5.21066576e-04  5.67257428e-09 -1.26650302e-07
 -1.90602228e-08  9.66114192e-08 -1.31640069e-08  5.31358994e-09 -9.25573295e-08
  5.33232518e-08 -3.59373199e-08  5.02559310e-08  1.24415921e-02  7.68251530e-09
  7.85508613e-09  4.54204905e-11  4.56896080e-09  1.31592649e-02  1.65101154e-09
  1.52025053e-08 -1.92143230e-06  5.15459745e-05  3.68645210e-05 -6.03910641e-06
  2.55899643e-05 -3.43215643e-04 -4.39890922e-05  1.46484343e-04  1.06037754e-05
  5.65414322e-05 -1.06990823e-05  7.55941932e-05  8.69087811e-06 -2.82775590e-04
  2.17986380e-04 -5.60027424e-04  9.33525664e-03  7.13687226e-03  4.19157317e-03
 -2.72237476e-03 -9.09268137e-06 -2.40785739e-05  1.52779422e-04  1.54357112e-04
 -8.70635818e-05 -3.23316936e-05  1.27319839e-04  1.55235946e-04  1.38557103e-05
  3.99690357e-05  1.28367786e-07 -2.55969536e-06  3.07898783e-07 -5.76603107e-07
 -2.60513615e-06 -2.21573332e-08 -3.73117520e-07 -3.41284869e-08  8.19586687e-08
  6.24546207e-08 -1.00609086e-07  7.59479304e-07  1.46534801e-06  1.19050481e-07
 -2.71278815e-07 -1.02432460e-07  1.85135951e-06  5.90875338e-07 -1.32534359e-06
  1.73779225e-06 -1.20503237e-07 -2.48337222e-07  1.36701962e-06  4.16720245e-06
  4.46080375e-06  2.73137249e-04  8.65201626e-05 -1.47306351e-05 -9.89165374e-01
 -5.67569220e-02  2.51139703e-04 -1.55435648e-03 -6.13734194e-03 -2.37170475e-04
 -1.08298468e-04  4.65176653e-06  4.37234112e-07  4.47510815e-07  7.35307889e-06
 -1.32808308e-05 -6.48638087e-07  1.21069410e-07 -4.23840098e-09  8.91745056e-08
 -5.67122247e-04  9.65285167e-03  6.22834573e-04 -8.62035356e-03 -2.65985152e-04
 -5.70805886e-04  9.71912545e-03 -7.35579389e-03  2.75798702e-03 -3.54581739e-03
  2.23388272e-07 -9.42532922e-05 -1.60235752e-04 -5.68111623e-05 -1.12372798e-04
  2.11403337e-07 -1.25756039e-04 -3.69365988e-04  2.18053310e-03  8.18283470e-04
  1.15934497e-03  1.96360321e-04  1.31404938e-04 -9.66886653e-04  8.85189919e-03
  5.82824703e-03  2.32751956e-03 -2.46559484e-03 -9.89224507e-01 -5.42459126e-02
  6.96217297e-05 -2.42889377e-04 -4.46810626e-05  9.89261608e-03  9.74227371e-03
 -5.98022305e-03  1.04299556e-03 -5.08573635e-03  1.78748850e-03  8.99423429e-04
  3.99087686e-04  4.26831391e-04 -7.08426099e-04 -6.59180459e-04  1.03944432e-02
 -7.31737591e-04 -1.85003537e-03  3.60510466e-03  1.56202120e-04  2.35980753e-04
  1.05116286e-04 -6.92855917e-05 -1.09412309e-04  2.92938490e-06 -2.18909733e-05
 -9.30617412e-07  3.41794112e-07  5.46654674e-06  1.68620609e-05 -1.35388578e-06
  1.97839331e-05  7.93100500e-06 -7.59872197e-06  1.02129718e-04  2.31327160e-04
  8.69376495e-05 -5.05061754e-05  1.08357415e-04  4.73942558e-04 -1.02392634e-05
  4.62224783e-04  4.91133149e-05  3.53091674e-04  2.67231907e-05  9.61598859e-05
  1.14851679e-07 -4.43776756e-05 -3.01265597e-05 -8.90902224e-05 -4.27893639e-05
 -1.39591840e-04  5.79910191e-04  4.29710418e-04 -3.50001183e-06  1.06222381e-05
  9.77118125e-06  5.02621415e-04 -7.85605544e-07  4.20657796e-06  5.55453440e-06
  3.06006026e-07  1.84373364e-06  2.17143543e-04 -1.49271264e-04 -8.63004070e-05
 -3.34901652e-04 -9.13344056e-06  2.37266381e-04  1.48346422e-04 -2.63495094e-04
 -7.98619572e-05  7.96548164e-05  2.01539508e-06  1.16740878e-05  8.33376162e-04
 -3.63511812e-05  3.04119226e-05  1.47176941e-06  5.78003053e-05  7.73317502e-05
  9.55581296e-03  6.86689851e-04 -2.21759645e-04  3.46703655e-05 -1.36785716e-04
  1.53647812e-06 -7.37561222e-06  2.84910706e-06 -1.98759862e-06  4.10332633e-06
  2.26850782e-05 -6.02720347e-06  4.50623209e-06 -3.25159932e-06  5.63944142e-06
 -8.86113761e-06 -2.04361229e-06  8.99517764e-07  2.62955522e-07  5.86190086e-07
 -1.61610662e-04 -1.07449664e-05  6.03294221e-06 -3.84068538e-06  5.26110577e-06
  9.13488061e-07 -2.20778521e-06  6.21968605e-06  2.78219480e-07  7.54255088e-06
  1.89589965e-03  3.46714802e-04 -4.99146855e-04  4.40944409e-05  1.40167594e-05
 -9.88454275e-01 -6.11634504e-02 -2.33452981e-03  1.18015831e-03 -1.00969851e-03
  1.22485999e-02  1.31073987e-02 -1.71352471e-04  1.12789072e-03 -9.14264236e-03
  1.18078056e-02  1.32234357e-02 -8.26897640e-03  2.60767980e-04  4.15557412e-03
  1.67947724e-03  2.99033161e-04 -1.88147239e-04  8.04417626e-05 -4.50974315e-04
 -7.80683160e-07 -8.30132250e-06 -1.19113010e-06  7.95100531e-09  2.76156303e-08
  4.04928107e-08 -3.37714372e-08  3.47473670e-08  1.82898737e-07  1.73364545e-07
  8.85812658e-05  3.00515251e-04  2.74151479e-04  8.54827196e-05 -9.80782323e-04
  8.71976566e-03  5.41504512e-03 -5.87849673e-04  3.76568981e-03 -5.60911704e-08
  1.06412427e-08 -2.96048147e-09  1.42349886e-08  4.44529000e-08 -6.26786828e-08
 -2.65118292e-08  2.63717140e-08 -4.05142750e-09 -8.84713331e-09  1.24492325e-03
 -1.72186515e-08 -1.17641509e-08  4.85449192e-09  2.01534165e-09  9.76145467e-04
  1.65121621e-08 -5.14556373e-09  9.86094348e-01  6.05727808e-02 -2.49243626e-03
  1.22271626e-04 -1.38408844e-03  8.95488253e-04 -7.48769963e-03  5.41260505e-03
 -9.23945061e-04  3.84052342e-03  2.26092834e-03 -7.70182139e-04  9.87212007e-04
 -2.09763901e-05  1.78387551e-04 -2.22900250e-03 -3.25365981e-04  9.32745019e-05
  1.32767893e-05  1.02442142e-04 -6.66780544e-02 -4.87546381e-03  3.44348863e-04
 -3.45115435e-04  9.04612882e-04  8.10771731e-07  9.16490765e-05  3.11530533e-05
 -7.59122163e-05  8.53450383e-05 -1.61971349e-02 -1.32356682e-02 -8.15970646e-03
  7.33491476e-05  4.08388347e-03  9.48395621e-03  4.72195867e-04 -1.82151638e-04
  1.20852788e-05 -1.18523018e-04 -1.83249244e-03 -4.78681917e-04 -1.09540873e-04
  4.27518962e-05 -2.79962060e-04 -1.82259796e-03 -5.36454061e-04 -3.22751100e-04
  1.59922837e-05 -6.66801021e-06 -1.48047083e-02 -1.31774820e-02 -1.98898391e-04
  9.57083997e-04 -9.10589428e-03  6.68917902e-04  5.22816434e-04  8.15693309e-04
  9.07503796e-07  1.14915684e-05  3.78058303e-06 -8.72486196e-06  8.77455179e-06
  4.21703518e-05  6.35543590e-05 -1.72162989e-04 -6.05013515e-05 -6.60146737e-05
 -2.55447687e-04  1.68629504e-05 -1.57672931e-04 -9.82891987e-05  6.86770373e-06
 -6.64706681e-05 -1.71105244e-06  2.34323744e-06  4.32392433e-07 -1.72091798e-06
  2.47259900e-06 -5.87868523e-06 -3.03366616e-06  2.13941322e-06 -1.31037066e-06
 -7.67812919e-07 -1.37594292e-05 -1.33804282e-06  3.09691722e-06  6.41312279e-07
 -3.86600375e-07 -1.42533390e-05  6.69853892e-07 -1.94355803e-08  6.68413029e-02
  3.46857379e-03 -8.35137124e-04  3.09108256e-04 -1.02525200e-03  1.11070440e-03
 -9.19351477e-03  9.20095287e-04  2.99907902e-03 -6.18183581e-03  2.03269056e-03
 -5.91481280e-04  9.19239729e-04  3.86247609e-04 -5.60387382e-04 -1.11321727e-02
 -8.85575891e-04  5.84216559e-04  2.64141024e-04 -1.60098633e-05  9.86030841e-01
  6.19405794e-02  1.22907510e-04 -2.38300004e-04  4.51417948e-04  2.38630794e-05
 -2.20150665e-04 -3.52634265e-05  5.32382427e-05 -1.05419083e-04 -2.66823949e-03
 -9.78531815e-04 -1.22858462e-03  1.25353501e-04  2.18723489e-05  4.68997464e-04
  4.49653263e-05 -1.42620510e-05 -7.74151062e-07 -3.85861944e-06 -5.20188707e-04
 -3.24203246e-04 -1.79920448e-04  7.95582513e-06 -7.00847852e-05 -1.90435671e-04
 -4.24572967e-05 -2.91174525e-05  9.72573019e-06 -2.08133894e-05 -1.62139879e-03
 -1.18959028e-03  7.19952918e-06  3.68790052e-05 -8.11326505e-04 -1.26809610e-02
 -1.26010326e-02 -1.26932167e-02  8.81763824e-06 -7.49689189e-05  4.82567652e-05
  4.56015037e-05 -6.23352475e-06  3.64069039e-04 -3.26520751e-04 -6.00763104e-04
 -1.14050044e-05 -1.41449244e-05 -1.56629773e-05  1.82796920e-06 -1.32674264e-05
 -8.71366689e-06  1.30301097e-06 -8.51992084e-06  2.38525222e-05  5.19153669e-07
 -1.41391012e-05 -5.51325562e-07  1.37914544e-05 -5.27184128e-05 -1.09088721e-05
  1.31735979e-05  5.13730054e-06 -2.73013940e-06 -2.06170379e-06  2.43718663e-06
 -5.28442009e-06 -2.32353010e-06  9.32753948e-06 -1.64570748e-06  7.79138108e-06
 -4.50113625e-06  2.98216732e-03  1.50230839e-04 -2.43000560e-04 -6.54288633e-05