Generated by Psi4
        SP                        DF-MP2                   AUG-CC-PVTZ
Number of atoms                            I                3
Charge                                     I                0
Multiplicity                               I                1
Number of electrons                        I               10
Number of alpha electrons                  I                5
Number of beta electrons                   I                5
Number of basis functions                  I               92
Number of independent functions            I               92
Atomic numbers                             I   N=           3
           8           1           1
Nuclear charges                            R   N=           3
  8.00000000e+00  1.00000000e+00  1.00000000e+00
Current cartesian coordinates              R   N=           9
  1.84151741e-03  1.26115469e-01  0.00000000e+00  1.42754720e+00 -1.02182979e+00
  0.00000000e+00 -1.45677342e+00 -9.79714223e-01  0.00000000e+00
Integer atomic weights                     I   N=           3
          16           1           1
Real atomic weights                        R   N=           3
  1.59949146e+01  1.00782503e+00  1.00782503e+00
Number of primitive shells                 I               52
Number of contracted shells                I               32
Pure/Cartesian d shells                    I                0
Pure/Cartesian f shells                    I                0
Highest angular momentum                   I                3
Largest degree of contraction              I                8
Shell types                                I   N=          32
           0           0           0           0           1           1
           1          -2          -2          -3           0           1
          -2          -3           0           0           0           1
           1          -2           0           1          -2           0
           0           0           1           1          -2           0
           1          -2
Number of primitives per shell             I   N=          32
           8           8           1           1           3           1
           1           1           1           1           1           1
           1           1           3           1           1           1
           1           1           1           1           1           3
           1           1           1           1           1           1
           1           1
Shell to atom map                          I   N=          32
           1           1           1           1           1           1
           1           1           1           1           1           1
           1           1           2           2           2           2
           2           2           2           2           2           3
           3           3           3           3           3           3
           3           3
Primitive exponents                        R   N=          52
  1.53300000e+04  2.29900000e+03  5.22400000e+02  1.47300000e+02  4.75500000e+01
  1.67600000e+01  6.20700000e+00  6.88200000e-01  1.53300000e+04  2.29900000e+03
  5.22400000e+02  1.47300000e+02  4.75500000e+01  1.67600000e+01  6.20700000e+00
  6.88200000e-01  1.75200000e+00  2.38400000e-01  3.44600000e+01  7.74900000e+00
  2.28000000e+00  7.15600000e-01  2.14000000e-01  2.31400000e+00  6.45000000e-01
  1.42800000e+00  7.37600000e-02  5.97400000e-02  2.14000000e-01  5.00000000e-01
  3.38700000e+01  5.09500000e+00  1.15900000e+00  3.25800000e-01  1.02700000e-01
  1.40700000e+00  3.88000000e-01  1.05700000e+00  2.52600000e-02  1.02000000e-01
  2.47000000e-01  3.38700000e+01  5.09500000e+00  1.15900000e+00  3.25800000e-01
  1.02700000e-01  1.40700000e+00  3.88000000e-01  1.05700000e+00  2.52600000e-02
  1.02000000e-01  2.47000000e-01
Contraction coefficients                   R   N=          52
  5.20198307e-04  4.02334478e-03  2.07290833e-02  8.10823271e-02  2.36226352e-01
  4.43518209e-01  3.58670589e-01 -8.34979724e-03 -1.97236012e-04 -1.53501070e-03
 -7.95118391e-03 -3.21134529e-02 -1.00269643e-01 -2.34047112e-01 -3.01410928e-01
  1.03491965e+00  1.00000000e+00  1.00000000e+00  4.11634896e-02  2.57762836e-01
  8.02419274e-01  1.00000000e+00  1.00000000e+00  1.00000000e+00  1.00000000e+00
  1.00000000e+00  1.00000000e+00  1.00000000e+00  1.00000000e+00  1.00000000e+00
  2.54948632e-02  1.90362766e-01  8.52162022e-01  1.00000000e+00  1.00000000e+00
  1.00000000e+00  1.00000000e+00  1.00000000e+00  1.00000000e+00  1.00000000e+00
  1.00000000e+00  2.54948632e-02  1.90362766e-01  8.52162022e-01  1.00000000e+00
  1.00000000e+00  1.00000000e+00  1.00000000e+00  1.00000000e+00  1.00000000e+00
  1.00000000e+00  1.00000000e+00
Coordinates of each shell                  R   N=          96
  1.84151741e-03  1.26115469e-01  0.00000000e+00  1.84151741e-03  1.26115469e-01
  0.00000000e+00  1.84151741e-03  1.26115469e-01  0.00000000e+00  1.84151741e-03
  1.26115469e-01  0.00000000e+00  1.84151741e-03  1.26115469e-01  0.00000000e+00
  1.84151741e-03  1.26115469e-01  0.00000000e+00  1.84151741e-03  1.26115469e-01
  0.00000000e+00  1.84151741e-03  1.26115469e-01  0.00000000e+00  1.84151741e-03
  1.26115469e-01  0.00000000e+00  1.84151741e-03  1.26115469e-01  0.00000000e+00
  1.84151741e-03  1.26115469e-01  0.00000000e+00  1.84151741e-03  1.26115469e-01
  0.00000000e+00  1.84151741e-03  1.26115469e-01  0.00000000e+00  1.84151741e-03
  1.26115469e-01  0.00000000e+00  1.42754720e+00 -1.02182979e+00  0.00000000e+00
  1.42754720e+00 -1.02182979e+00  0.00000000e+00  1.42754720e+00 -1.02182979e+00
  0.00000000e+00  1.42754720e+00 -1.02182979e+00  0.00000000e+00  1.42754720e+00
 -1.02182979e+00  0.00000000e+00  1.42754720e+00 -1.02182979e+00  0.00000000e+00
  1.42754720e+00 -1.02182979e+00  0.00000000e+00  1.42754720e+00 -1.02182979e+00
  0.00000000e+00  1.42754720e+00 -1.02182979e+00  0.00000000e+00 -1.45677342e+00
 -9.79714223e-01  0.00000000e+00 -1.45677342e+00 -9.79714223e-01  0.00000000e+00
 -1.45677342e+00 -9.79714223e-01  0.00000000e+00 -1.45677342e+00 -9.79714223e-01
  0.00000000e+00 -1.45677342e+00 -9.79714223e-01  0.00000000e+00 -1.45677342e+00
 -9.79714223e-01  0.00000000e+00 -1.45677342e+00 -9.79714223e-01  0.00000000e+00
 -1.45677342e+00 -9.79714223e-01  0.00000000e+00 -1.45677342e+00 -9.79714223e-01
  0.00000000e+00
Total Energy                               R     -7.632884105711928e+01
Alpha Orbital Energies                     R   N=          92
 -2.05694308e+01 -1.34816620e+00 -7.10652953e-01 -5.83780473e-01 -5.09585643e-01
  2.92592189e-02  4.76713280e-02  1.35828610e-01  1.59162721e-01  1.74935677e-01
  1.83116120e-01  2.26393109e-01  2.44603092e-01  2.65398725e-01  2.99539944e-01
  3.09802035e-01  3.65534637e-01  4.35825071e-01  4.64626107e-01  5.98695281e-01
  6.57865204e-01  7.07596325e-01  7.22912811e-01  7.31995987e-01  8.28288271e-01
  8.45720786e-01  8.93693961e-01  9.10950695e-01  9.19060831e-01  9.21622000e-01
  9.30139353e-01  9.60534369e-01  1.01789274e+00  1.04056923e+00  1.08149035e+00
  1.10671937e+00  1.17459455e+00  1.17955630e+00  1.26375980e+00  1.50758286e+00
  1.53551870e+00  1.57806496e+00  1.80919822e+00  1.81507395e+00  1.97434880e+00
  2.11038505e+00  2.26208654e+00  2.31407019e+00  2.32847001e+00  2.41695003e+00
  2.41942969e+00  2.44356242e+00  2.48054901e+00  2.68231955e+00  2.69992860e+00
  2.76362072e+00  2.81275940e+00  2.88014636e+00  3.64066967e+00  3.72982439e+00
  4.01257938e+00  4.07451249e+00  4.15857395e+00  4.23678857e+00  4.28245716e+00
  4.37371942e+00  4.37419032e+00  4.39840598e+00  4.51160160e+00  4.71549601e+00
  4.82190165e+00  5.12896209e+00  5.13390592e+00  5.23669656e+00  5.29335917e+00
  5.49936718e+00  5.64907128e+00  6.16810720e+00  6.51763343e+00  6.71199096e+00
  6.88868373e+00  7.12741400e+00  7.25201675e+00  7.28302757e+00  7.29866781e+00
  7.33439760e+00  7.35918092e+00  7.51189682e+00  7.88848048e+00  7.90173298e+00
  8.76724955e+00  1.54828556e+01
Alpha MO coefficients                      R   N=        8464
  9.75393422e-01 -1.50087391e-03  4.35838538e-02  6.06046069e-04 -2.73446199e-05
 -1.87270776e-03  0.00000000e+00  2.40775270e-05  1.64884838e-03  0.00000000e+00
 -2.77778641e-06 -1.90475457e-04  0.00000000e+00 -5.42849485e-05  0.00000000e+00
  0.00000000e+00  2.07819949e-05 -6.07265846e-07  5.23357030e-04  0.00000000e+00
  0.00000000e+00 -2.06606047e-04  6.03401652e-06  0.00000000e+00 -2.15620782e-07
 -1.47571795e-05  0.00000000e+00  0.00000000e+00 -3.38716502e-07 -7.72576981e-06
  1.88456740e-04 -2.35072209e-06 -1.61030793e-04  0.00000000e+00 -1.35075568e-04
  0.00000000e+00  0.00000000e+00 -1.74348013e-05  5.08458533e-07  0.00000000e+00
 -1.05792333e-06 -7.24506108e-05  0.00000000e+00  0.00000000e+00  7.18458416e-06
  1.63919011e-04  4.86286498e-04  1.10118142e-03 -1.61120407e-04 -1.74507390e-04
  1.18383011e-04  0.00000000e+00 -7.04651495e-04  6.55509453e-04  0.00000000e+00
  4.51303593e-05  0.00000000e+00  0.00000000e+00  1.64362742e-05  9.29090761e-05
  2.89974079e-05 -1.19283190e-04  9.02173921e-05  0.00000000e+00 -2.31741098e-04
  0.00000000e+00  0.00000000e+00  5.96233765e-05 -4.06940973e-04  4.86285965e-04
  1.10118853e-03 -1.61114148e-04  1.77890094e-04  1.13237980e-04  0.00000000e+00
  7.23492564e-04  6.34658195e-04  0.00000000e+00  4.51297737e-05  0.00000000e+00
  0.00000000e+00  1.09854699e-05 -9.37090719e-05  2.89980308e-05  1.21868078e-04
  8.66971277e-05  0.00000000e+00 -2.31741248e-04  0.00000000e+00  0.00000000e+00
  8.32746807e-05  4.02767173e-04  8.18618755e-03 -5.06355934e-01 -1.32984179e-01
 -2.96591193e-01  6.33395984e-04  4.33806479e-02  0.00000000e+00  9.10369688e-04
  6.23489718e-02  0.00000000e+00  2.61366968e-04  1.78992987e-02  0.00000000e+00
  3.52018680e-03  0.00000000e+00  0.00000000e+00 -9.61227219e-04  2.80802234e-05
  9.10968472e-03  0.00000000e+00  0.00000000e+00 -1.18281677e-03  3.45475834e-05
  0.00000000e+00 -2.22582129e-05 -1.52436629e-03  0.00000000e+00  0.00000000e+00
  1.02623616e-04  2.34140581e-03 -3.44433699e-02  4.12699526e-05  2.82648853e-03
  0.00000000e+00 -2.04290065e-03  0.00000000e+00  0.00000000e+00  2.09587180e-03
 -6.12270877e-05  0.00000000e+00 -1.13824791e-05 -7.79441428e-04  0.00000000e+00
  0.00000000e+00  1.44777717e-06  3.30822573e-05 -8.68446749e-02 -7.33421312e-02
  1.42382386e-02  1.02830387e-02 -7.48662356e-03  0.00000000e+00  7.84727405e-03
 -5.66612168e-03  0.00000000e+00  1.12467649e-03  0.00000000e+00  0.00000000e+00
 -4.85401589e-04  2.05913019e-03  1.34768927e-03 -4.81379469e-03  4.21435129e-03
  0.00000000e+00 -3.14410584e-04  0.00000000e+00  0.00000000e+00  1.39204728e-04
 -7.00412194e-04 -8.68446059e-02 -7.33420673e-02  1.42382145e-02 -1.04972320e-02
 -7.18318916e-03  0.00000000e+00 -8.00935834e-03 -5.43458755e-03  0.00000000e+00
  1.12467418e-03  0.00000000e+00  0.00000000e+00 -6.04762565e-04 -2.02728258e-03
  1.34768549e-03  4.93478058e-03  4.07199966e-03  0.00000000e+00 -3.14407213e-04
  0.00000000e+00  0.00000000e+00  1.79850052e-04  6.91087698e-04 -6.63710962e-09
 -1.00284655e-07 -2.30732106e-08 -2.22457147e-07  2.83411582e-01 -4.13836737e-03
  0.00000000e+00  3.40260825e-01 -4.96846058e-03  0.00000000e+00  1.62024400e-01
 -2.36583010e-03  0.00000000e+00 -2.13851080e-09  0.00000000e+00  0.00000000e+00
 -3.69703702e-04 -1.26569585e-02  2.83306915e-09  0.00000000e+00  0.00000000e+00
 -6.94841309e-04 -2.37879780e-02  0.00000000e+00 -2.66742950e-03  3.89490853e-05
  0.00000000e+00  0.00000000e+00  7.43470743e-04 -3.25857602e-05 -3.18267716e-08
  8.72363553e-03 -1.27379262e-04  0.00000000e+00  1.31094523e-08  0.00000000e+00
  0.00000000e+00 -4.46462087e-05 -1.52829017e-03  0.00000000e+00 -2.42918874e-03
  3.54684054e-05  0.00000000e+00  0.00000000e+00 -1.88928194e-03  8.28109568e-05
  1.38805889e-01  2.19411476e-01  3.66194705e-02 -8.83808555e-03  1.24883206e-02
  0.00000000e+00 -1.83882994e-02  2.79611419e-02  0.00000000e+00 -3.65443876e-03
  0.00000000e+00  0.00000000e+00 -5.10688766e-04 -6.00429807e-03 -4.81641562e-03
  8.29644777e-03  7.76526754e-05  0.00000000e+00 -4.04958546e-04  0.00000000e+00
  0.00000000e+00 -2.56436853e-03 -2.76849131e-03 -1.38805833e-01 -2.19411315e-01
 -3.66194671e-02 -9.19892933e-03 -1.22249411e-02  0.00000000e+00 -1.91968210e-02
 -2.74123236e-02  0.00000000e+00  3.65443495e-03  0.00000000e+00  0.00000000e+00
  1.59353504e-04 -6.02386374e-03  4.81641689e-03  8.29063437e-03 -3.19859447e-04
  0.00000000e+00  4.04963746e-04  0.00000000e+00  0.00000000e+00  2.39839873e-03
 -2.91346129e-03  4.69564019e-03  1.81575239e-01  5.23445911e-02  3.25517148e-01
  4.54587140e-03  3.11321663e-01  0.00000000e+00  5.58300426e-03  3.82348156e-01
  0.00000000e+00  3.14143448e-03  2.15136681e-01  0.00000000e+00  6.05684448e-03
  0.00000000e+00  0.00000000e+00  3.21422095e-03 -9.38876148e-05  9.13986803e-03
  0.00000000e+00  0.00000000e+00  1.32560115e-02 -3.87212446e-04  0.00000000e+00
 -3.74763270e-05 -2.56650803e-03  0.00000000e+00  0.00000000e+00  5.34662598e-05
  1.21985050e-03  8.36544962e-02  1.98066336e-04  1.35642712e-02  0.00000000e+00
 -5.51440996e-03  0.00000000e+00  0.00000000e+00  8.20157140e-03 -2.39580542e-04
  0.00000000e+00 -1.05345175e-05 -7.21367900e-04  0.00000000e+00  0.00000000e+00
 -6.67494850e-05 -1.52284181e-03 -8.55525599e-02 -1.77489923e-01 -6.61112179e-02
  9.45014508e-03  1.22375701e-03  0.00000000e+00  3.25465219e-02 -2.27877679e-03
  0.00000000e+00  1.75693255e-03  0.00000000e+00  0.00000000e+00 -3.21746882e-03
  2.01186916e-03 -1.91262901e-03  5.27233758e-03  7.89050346e-03  0.00000000e+00
  1.26849544e-03  0.00000000e+00  0.00000000e+00 -2.84811544e-03 -1.60733779e-03
 -8.55526149e-02 -1.77489961e-01 -6.61112609e-02 -9.41038182e-03  1.49914717e-03
  0.00000000e+00 -3.25991785e-02 -1.32755810e-03  0.00000000e+00  1.75693230e-03
  0.00000000e+00  0.00000000e+00 -3.32941219e-03 -1.82063733e-03 -1.91262666e-03
 -5.03971394e-03  8.04106783e-03  0.00000000e+00  1.26850163e-03  0.00000000e+00
  0.00000000e+00 -2.74943912e-03  1.77082993e-03  0.00000000e+00  0.00000000e+00
  0.00000000e+00  0.00000000e+00  0.00000000e+00  0.00000000e+00  3.54284916e-01
  0.00000000e+00  0.00000000e+00  4.50444897e-01  0.00000000e+00  0.00000000e+00
  3.27058371e-01  0.00000000e+00 -8.32308023e-05 -5.70021833e-03  0.00000000e+00
  0.00000000e+00  0.00000000e+00 -2.08790395e-04 -1.42990381e-02  0.00000000e+00
  0.00000000e+00 -3.59256559e-03  0.00000000e+00  0.00000000e+00  1.06972142e-03
 -3.12464738e-05  0.00000000e+00  0.00000000e+00  0.00000000e+00  0.00000000e+00
  0.00000000e+00  3.36425577e-02  0.00000000e+00 -8.22485382e-05 -5.63247030e-03
  0.00000000e+00  0.00000000e+00 -1.68113958e-03  0.00000000e+00  0.00000000e+00
  1.63022085e-04 -4.75882433e-06  0.00000000e+00  0.00000000e+00  0.00000000e+00
  0.00000000e+00  0.00000000e+00  0.00000000e+00  0.00000000e+00  1.04338923e-02
  0.00000000e+00  0.00000000e+00  2.94114508e-02  0.00000000e+00 -3.69239598e-03
  2.93238343e-03  0.00000000e+00  0.00000000e+00  0.00000000e+00  0.00000000e+00
  0.00000000e+00  1.81714736e-02  0.00000000e+00 -5.89219041e-03  4.28593576e-03
  0.00000000e+00  0.00000000e+00  0.00000000e+00  0.00000000e+00  0.00000000e+00
  0.00000000e+00  0.00000000e+00  1.04338857e-02  0.00000000e+00  0.00000000e+00
  2.94114317e-02  0.00000000e+00  3.77643698e-03  2.82332458e-03  0.00000000e+00
  0.00000000e+00  0.00000000e+00  0.00000000e+00  0.00000000e+00  1.81714641e-02
  0.00000000e+00  6.01481136e-03  4.11207004e-03  0.00000000e+00  0.00000000e+00
 -8.35618055e-04  5.83294858e-02  1.23253831e-02  7.90313922e-01 -4.36051629e-04
 -2.98617231e-02  0.00000000e+00 -1.06125381e-03 -7.26801767e-02  0.00000000e+00
 -5.11107178e-03 -3.50034915e-01  0.00000000e+00  8.80188001e-04  0.00000000e+00
  0.00000000e+00 -4.95130186e-04  1.44612019e-05 -2.33790094e-02  0.00000000e+00
  0.00000000e+00  5.56539155e-03 -1.62565537e-04  0.00000000e+00  9.56729885e-06
  6.55253028e-04  0.00000000e+00  0.00000000e+00 -5.93078146e-05 -1.35312420e-03
  2.36740144e+00 -3.27578493e-03 -2.24335380e-01  0.00000000e+00 -4.74071587e-02
  0.00000000e+00  0.00000000e+00  2.83634879e-02 -8.28478972e-04  0.00000000e+00
  9.04635164e-05  6.19520929e-03  0.00000000e+00  0.00000000e+00 -4.68558264e-04
 -1.06904720e-02 -2.00884763e-03 -2.39520049e-01 -9.43488913e-01 -2.08416657e-03
  4.18087426e-04  0.00000000e+00  7.77559571e-02 -6.11256487e-02  0.00000000e+00
  2.59573349e-03  0.00000000e+00  0.00000000e+00 -9.65768407e-05  4.88160586e-03
 -8.54827142e-01  2.14793638e-01 -2.00347724e-01  0.00000000e+00  1.89895804e-02
  0.00000000e+00  0.00000000e+00 -6.73079584e-03  2.78372732e-02 -2.00885514e-03
 -2.39519891e-01 -9.43488701e-01  2.09548822e-03  3.57062726e-04  0.00000000e+00
 -7.95074702e-02 -5.88293070e-02  0.00000000e+00  2.59573091e-03  0.00000000e+00
  0.00000000e+00 -3.81348468e-04 -4.86764289e-03 -8.54827815e-01 -2.20551617e-01
 -1.93990946e-01  0.00000000e+00  1.89895853e-02  0.00000000e+00  0.00000000e+00
 -8.34416487e-03 -2.73969464e-02  6.03620874e-09  1.95925414e-08  6.00227751e-09
  3.12685806e-07  2.94885890e-02 -4.30579043e-04  0.00000000e+00  7.35183365e-02
 -1.07350089e-03  0.00000000e+00  5.28632232e-01 -7.71895488e-03  0.00000000e+00
 -4.26389290e-10  0.00000000e+00  0.00000000e+00  3.36383477e-06  1.15151382e-04
 -4.48537352e-09  0.00000000e+00  0.00000000e+00 -8.75011503e-04 -2.99564536e-02
  0.00000000e+00 -4.14916466e-04  6.05875353e-06  0.00000000e+00  0.00000000e+00
 -7.68587373e-04  3.36865751e-05  7.74741780e-07  1.12534200e+00 -1.64318079e-02
  0.00000000e+00  8.16355802e-10  0.00000000e+00  0.00000000e+00 -3.69790441e-03
 -1.26599446e-01  0.00000000e+00 -9.99621478e-03  1.45959894e-04  0.00000000e+00
  0.00000000e+00 -2.00888039e-03  8.80516186e-05  6.28145571e-03 -2.50426545e-01
 -1.35520866e+00  4.15349394e-04  1.32157522e-03  0.00000000e+00  6.48985771e-02
 -7.02396352e-02  0.00000000e+00  2.99525642e-03  0.00000000e+00  0.00000000e+00
 -1.71043163e-03  4.52920283e-03 -3.39380120e+00  2.75095190e-01 -3.25855347e-01
  0.00000000e+00  1.06734329e-02  0.00000000e+00  0.00000000e+00  1.18996261e-02
  3.25204826e-02 -6.28145460e-03  2.50426346e-01  1.35520802e+00  3.76581691e-04
 -1.33314010e-03  0.00000000e+00  6.69216753e-02  6.83148101e-02  0.00000000e+00
 -2.99525567e-03  0.00000000e+00  0.00000000e+00  1.97188150e-03  4.42164259e-03
  3.39380086e+00  2.84491904e-01  3.17684362e-01  0.00000000e+00 -1.06734363e-02
  0.00000000e+00  0.00000000e+00 -9.98113297e-03  3.31596114e-02  9.74838053e-03
  6.35159869e-02  2.00192896e-02 -1.57550457e+00 -1.33586140e-03 -9.14855067e-02
  0.00000000e+00 -5.42905367e-04 -3.71757486e-02  0.00000000e+00  6.18639433e-03
  4.23685547e-01  0.00000000e+00  4.95150280e-04  0.00000000e+00  0.00000000e+00
 -5.04884298e-04  1.47494832e-05  1.33331344e-02  0.00000000e+00  0.00000000e+00
 -1.69365716e-02  4.94708618e-04  0.00000000e+00 -1.23961107e-05 -8.48981584e-04
  0.00000000e+00  0.00000000e+00  1.38832474e-04  3.16754229e-03 -6.73061664e+00
  2.99604012e-02  2.05185437e+00  0.00000000e+00  9.52157535e-02  0.00000000e+00
  0.00000000e+00  4.27207145e-02 -1.24780767e-03  0.00000000e+00  8.08756741e-06
  5.54077049e-04  0.00000000e+00  0.00000000e+00 -2.37325919e-04 -5.41465694e-03
 -1.81747334e-03  2.40686951e-01  3.22437336e+00 -5.57469549e-04  8.57369122e-05
  0.00000000e+00 -2.07988487e-01  1.39488844e-01  0.00000000e+00 -8.12126442e-03
  0.00000000e+00  0.00000000e+00  2.36086859e-03 -1.05672529e-02  7.39006434e-01
 -7.75099258e-01  4.94644888e-01  0.00000000e+00 -4.39898437e-02  0.00000000e+00
  0.00000000e+00  4.06452368e-02 -8.92567172e-02 -1.81749608e-03  2.40686480e-01
  3.22437239e+00  5.59727272e-04  6.94209706e-05  0.00000000e+00  2.11972381e-01
  1.33356654e-01  0.00000000e+00 -8.12125630e-03  0.00000000e+00  0.00000000e+00
  2.97364386e-03  1.04114224e-02  7.39006550e-01  7.89211139e-01  4.71803598e-01
  0.00000000e+00 -4.39898717e-02  0.00000000e+00  0.00000000e+00  4.57857916e-02
  8.67321332e-02  0.00000000e+00  0.00000000e+00  0.00000000e+00  0.00000000e+00
  0.00000000e+00  0.00000000e+00  8.80421755e-02  0.00000000e+00  0.00000000e+00
  8.05491213e-02  0.00000000e+00  0.00000000e+00 -3.02624356e-02  0.00000000e+00
  2.82804818e-05  1.93675600e-03  0.00000000e+00  0.00000000e+00  0.00000000e+00
 -4.14202281e-04 -2.83669941e-02  0.00000000e+00  0.00000000e+00 -4.55884093e-03
  0.00000000e+00  0.00000000e+00  6.44835623e-04 -1.88369677e-05  0.00000000e+00
  0.00000000e+00  0.00000000e+00  0.00000000e+00  0.00000000e+00 -1.81343491e+00
  0.00000000e+00  2.96154546e-03  2.02826685e-01  0.00000000e+00  0.00000000e+00
  1.35674885e-02  0.00000000e+00  0.00000000e+00 -3.29290267e-04  9.62390436e-06
  0.00000000e+00  0.00000000e+00  0.00000000e+00  0.00000000e+00  0.00000000e+00
  0.00000000e+00  0.00000000e+00 -4.01691672e-04  0.00000000e+00  0.00000000e+00
  3.74280196e-02  0.00000000e+00  1.98890205e-03 -2.48163273e-03  0.00000000e+00
  0.00000000e+00  0.00000000e+00  0.00000000e+00  0.00000000e+00  5.55989938e-01
  0.00000000e+00 -6.68884322e-02  4.37382489e-02  0.00000000e+00  0.00000000e+00
  0.00000000e+00  0.00000000e+00  0.00000000e+00  0.00000000e+00  0.00000000e+00
 -4.01689619e-04  0.00000000e+00  0.00000000e+00  3.74279498e-02  0.00000000e+00
 -2.06050832e-03 -2.42250522e-03  0.00000000e+00  0.00000000e+00  0.00000000e+00
  0.00000000e+00  0.00000000e+00  5.55989506e-01  0.00000000e+00  6.81368954e-02
  4.17666366e-02  0.00000000e+00  0.00000000e+00  5.64308585e-03  1.44936679e-01
  5.69715224e-02 -1.59175227e+00 -2.71730649e-04 -1.86023834e-02  0.00000000e+00
  8.24275450e-04  5.64595572e-02  0.00000000e+00  8.25713126e-03  5.65438924e-01
  0.00000000e+00 -3.42703073e-03  0.00000000e+00  0.00000000e+00 -6.49923687e-04
  1.89896861e-05  7.15206309e-02  0.00000000e+00  0.00000000e+00 -2.08502905e-02
  6.08975707e-04  0.00000000e+00 -3.30804917e-05 -2.26566806e-03  0.00000000e+00
  0.00000000e+00  1.50462729e-04  3.43291644e-03 -3.88196118e+00 -1.36645963e-02
 -9.35974246e-01  0.00000000e+00  2.52104019e-02  0.00000000e+00  0.00000000e+00
 -1.51171098e-01  4.41535661e-03  0.00000000e+00 -1.22833306e-04 -8.41051902e-03
  0.00000000e+00  0.00000000e+00  1.39079046e-03  3.17318863e-02 -3.18043786e-02
  4.87343155e-01  1.12122231e+00 -1.21738262e-02  7.90874120e-03  0.00000000e+00
 -1.83102099e-01  1.83448404e-01  0.00000000e+00 -4.80042974e-03  0.00000000e+00
  0.00000000e+00 -5.80218054e-04 -1.40796764e-02  6.89079371e-01 -7.59900086e-01
  8.92401984e-01  0.00000000e+00 -6.73575481e-02  0.00000000e+00  0.00000000e+00
  8.62414893e-03 -1.07758763e-01 -3.18044283e-02  4.87343763e-01  1.12122734e+00
  1.23995548e-02  7.54993034e-03  0.00000000e+00  1.88380449e-01  1.78024373e-01
  0.00000000e+00 -4.80043708e-03  0.00000000e+00  0.00000000e+00  2.42597957e-04
  1.40895510e-02  6.89083765e-01  7.85633234e-01  8.69836067e-01  0.00000000e+00
 -6.73575972e-02  0.00000000e+00  0.00000000e+00  1.48992063e-02  1.07071781e-01
 -1.51375209e-08  6.63755272e-08  2.77348433e-08 -1.79851694e-06  9.54883438e-02
 -1.39428794e-03  0.00000000e+00  6.28745966e-03 -9.17099569e-05  0.00000000e+00
 -1.58640928e+00  2.31646278e-02  0.00000000e+00 -1.02861381e-09  0.00000000e+00
  0.00000000e+00 -1.24534410e-04 -4.26350021e-03  5.07783524e-08  0.00000000e+00
  0.00000000e+00  2.59814850e-03  8.89492759e-02  0.00000000e+00 -3.90892962e-04
  5.70501778e-06  0.00000000e+00  0.00000000e+00  2.92906211e-03 -1.28377282e-04
 -4.14103409e-06 -3.59414644e+00  5.24796634e-02  0.00000000e+00 -3.24479526e-09
  0.00000000e+00  0.00000000e+00  1.33803556e-02  4.58086230e-01  0.00000000e+00
  3.19197094e-02 -4.66077699e-04  0.00000000e+00  0.00000000e+00  7.54827290e-03
 -3.30829112e-04 -1.31541850e-03  8.84348130e-01  4.82197802e+00 -1.03560869e-02
  4.78304706e-03  0.00000000e+00 -2.43306370e-01  2.58881623e-01  0.00000000e+00
 -1.15506853e-02  0.00000000e+00  0.00000000e+00  4.31606775e-03 -1.68819039e-02
  3.31953198e+00 -1.11015783e+00  1.22584406e+00  0.00000000e+00 -1.87067170e-02
  0.00000000e+00  0.00000000e+00 -4.78618797e-02 -9.56732110e-02  1.31541111e-03
 -8.84346933e-01 -4.82197502e+00 -1.04912908e-02 -4.47861989e-03  0.00000000e+00
 -2.50761000e-01 -2.51667114e-01  0.00000000e+00  1.15506777e-02  0.00000000e+00
  0.00000000e+00 -5.29409480e-03 -1.66011728e-02 -3.31953082e+00 -1.14547476e+00
 -1.19290676e+00  0.00000000e+00  1.87066575e-02  0.00000000e+00  0.00000000e+00
  4.21958735e-02 -9.83036404e-02 -1.40069020e-08 -7.38361325e-09  5.36393109e-09
 -8.00140024e-07  6.77265998e-02 -9.88906816e-04  0.00000000e+00  3.60420943e-02
 -5.26219815e-04  0.00000000e+00  8.00714441e-01 -1.16918253e-02  0.00000000e+00
 -5.88008125e-10  0.00000000e+00  0.00000000e+00  1.09321312e-04  3.74259188e-03
  1.27382919e-08  0.00000000e+00  0.00000000e+00  5.30668337e-04  1.81680148e-02
  0.00000000e+00  6.18920822e-03 -9.03725052e-05  0.00000000e+00  0.00000000e+00
  6.61305099e-03 -2.89848939e-04 -3.54189314e-06  1.72396110e+00 -2.51725248e-02
  0.00000000e+00  2.21120673e-08  0.00000000e+00  0.00000000e+00 -1.98044347e-02
 -6.78007104e-01  0.00000000e+00 -3.93315299e-02  5.74302945e-04  0.00000000e+00
  0.00000000e+00 -4.42161359e-02  1.93800164e-03 -4.17359531e-02 -6.60621572e-01
 -7.16835960e-02 -3.24523976e-04  9.11759421e-03  0.00000000e+00  6.71149769e-03
  1.66212026e-02  0.00000000e+00  1.22531109e-03  0.00000000e+00  0.00000000e+00
 -2.61567674e-03 -1.98807877e-03 -9.25419246e-02 -1.24551593e+00  7.77350400e-01
  0.00000000e+00 -1.54585038e-01  0.00000000e+00  0.00000000e+00  2.95004209e-02
 -1.46391704e-01  4.17359968e-02  6.60621771e-01  7.16871852e-02 -5.90593081e-04
 -9.10423324e-03  0.00000000e+00  6.22358671e-03 -1.68097231e-02  0.00000000e+00
 -1.22531870e-03  0.00000000e+00  0.00000000e+00  2.49517924e-03 -2.13734588e-03
  9.25424585e-02 -1.26768066e+00 -7.40652368e-01  0.00000000e+00  1.54584927e-01
  0.00000000e+00  0.00000000e+00 -3.79949944e-02 -1.44420059e-01  1.05345766e-02
  1.48320558e-02  4.28867465e-03 -1.53963074e-01  2.57312562e-06  1.77416358e-04
  0.00000000e+00  1.74926753e-05  1.19838065e-03  0.00000000e+00 -1.14943803e-02
 -7.87185328e-01  0.00000000e+00 -4.27250698e-04  0.00000000e+00  0.00000000e+00
  7.49971661e-03 -2.19062438e-04 -6.72894777e-03  0.00000000e+00  0.00000000e+00
 -3.35236471e-02  9.79170695e-04  0.00000000e+00 -3.10735198e-05 -2.12784960e-03
  0.00000000e+00  0.00000000e+00 -2.74328596e-04 -6.25882193e-03 -2.65682927e+00
 -8.55204674e-03 -5.85681793e-01  0.00000000e+00  1.28848524e-01  0.00000000e+00
  0.00000000e+00 -8.14648003e-01  2.37955843e-02  0.00000000e+00  2.71189733e-04
  1.85718134e-02  0.00000000e+00  0.00000000e+00  2.90011318e-03  6.61677487e-02
  3.15535547e-02  1.28474882e-01  1.41116950e+00 -4.83775856e-03 -5.93652058e-03
  0.00000000e+00  1.80093400e-01  2.71797554e-01  0.00000000e+00  4.47859407e-03
  0.00000000e+00  0.00000000e+00 -6.58456123e-03 -9.22625944e-03  9.56616369e-02
  8.84431261e-01  1.06735810e+00  0.00000000e+00 -1.15306013e-02  0.00000000e+00
  0.00000000e+00 -2.91338683e-01 -1.73611750e-02  3.15535396e-02  1.28474857e-01
  1.41117012e+00  4.66237744e-03 -6.07522457e-03  0.00000000e+00 -1.72080694e-01
  2.76939807e-01  0.00000000e+00  4.47858628e-03  0.00000000e+00  0.00000000e+00
 -6.03478627e-03  9.59486773e-03  9.56618958e-02 -8.52889580e-01  1.09272667e+00
  0.00000000e+00 -1.15306581e-02  0.00000000e+00  0.00000000e+00 -2.89828607e-01
  3.43370016e-02  0.00000000e+00  0.00000000e+00  0.00000000e+00  0.00000000e+00
  0.00000000e+00  0.00000000e+00  7.61545396e-09  0.00000000e+00  0.00000000e+00
 -3.82551010e-08  0.00000000e+00  0.00000000e+00 -1.27539936e-07  0.00000000e+00
  5.07266456e-03 -7.40711973e-05  0.00000000e+00  0.00000000e+00  0.00000000e+00
 -1.01947503e-02  1.48892671e-04  0.00000000e+00  0.00000000e+00  4.52718860e-09
  0.00000000e+00  0.00000000e+00 -3.50527827e-04 -1.20004610e-02  0.00000000e+00
  0.00000000e+00  0.00000000e+00  0.00000000e+00  0.00000000e+00  2.70108795e-07
  0.00000000e+00 -6.87094166e-01  1.00326309e-02  0.00000000e+00  0.00000000e+00
 -8.57098245e-09  0.00000000e+00  0.00000000e+00  2.80970919e-03  9.61916123e-02
  0.00000000e+00  0.00000000e+00  0.00000000e+00  0.00000000e+00  0.00000000e+00
  0.00000000e+00  0.00000000e+00 -1.19712298e-03  0.00000000e+00  0.00000000e+00
  2.70803654e-01  0.00000000e+00 -4.20528339e-03  3.07363794e-03  0.00000000e+00
  0.00000000e+00  0.00000000e+00  0.00000000e+00  0.00000000e+00  1.77778200e+00
  0.00000000e+00 -2.43196769e-01  2.24177856e-01  0.00000000e+00  0.00000000e+00
  0.00000000e+00  0.00000000e+00  0.00000000e+00  0.00000000e+00  0.00000000e+00
  1.19711705e-03  0.00000000e+00  0.00000000e+00 -2.70803517e-01  0.00000000e+00
 -4.29322520e-03 -2.94954120e-03  0.00000000e+00  0.00000000e+00  0.00000000e+00
  0.00000000e+00  0.00000000e+00 -1.77778235e+00  0.00000000e+00 -2.49638498e-01
 -2.16981650e-01  0.00000000e+00  0.00000000e+00  0.00000000e+00  0.00000000e+00
  0.00000000e+00  0.00000000e+00  0.00000000e+00  0.00000000e+00  8.51250904e-02
  0.00000000e+00  0.00000000e+00  4.92669924e-02  0.00000000e+00  0.00000000e+00
  1.90415213e+00  0.00000000e+00  9.00575545e-05  6.16804083e-03  0.00000000e+00
  0.00000000e+00  0.00000000e+00 -4.43275445e-04 -3.03627771e-02  0.00000000e+00
  0.00000000e+00  1.01414589e-02  0.00000000e+00  0.00000000e+00 -6.13811758e-04
  1.79290614e-05  0.00000000e+00  0.00000000e+00  0.00000000e+00  0.00000000e+00
  0.00000000e+00  1.91274244e+00  0.00000000e+00 -8.26147335e-03 -5.65807997e-01
  0.00000000e+00  0.00000000e+00 -9.49675956e-02  0.00000000e+00  0.00000000e+00
  1.87201934e-02 -5.46864735e-04  0.00000000e+00  0.00000000e+00  0.00000000e+00
  0.00000000e+00  0.00000000e+00  0.00000000e+00  0.00000000e+00  6.79198199e-03
  0.00000000e+00  0.00000000e+00 -3.27290358e-01  0.00000000e+00  7.31017996e-03
 -5.68511701e-03  0.00000000e+00  0.00000000e+00  0.00000000e+00  0.00000000e+00