Generated by Psi4
        SP                        DF-MP2                      6-311G**
Number of atoms                            I                3
Charge                                     I                0
Multiplicity                               I                1
Number of electrons                        I               10
Number of alpha electrons                  I                5
Number of beta electrons                   I                5
Number of basis functions                  I               30
Number of independent functions            I               30
Atomic numbers                             I   N=           3
           8           1           1
Nuclear charges                            R   N=           3
  8.00000000e+00  1.00000000e+00  1.00000000e+00
Current cartesian coordinates              R   N=           9
  2.98159578e-03  1.26095695e-01  0.00000000e+00  1.41823604e+00 -1.03470925e+00
  0.00000000e+00 -1.46555613e+00 -9.66520926e-01  0.00000000e+00
Integer atomic weights                     I   N=           3
          16           1           1
Real atomic weights                        R   N=           3
  1.59949146e+01  1.00782503e+00  1.00782503e+00
Number of primitive shells                 I               29
Number of contracted shells                I               16
Pure/Cartesian d shells                    I                0
Pure/Cartesian f shells                    I                0
Highest angular momentum                   I                2
Largest degree of contraction              I                6
Shell types                                I   N=          16
           0           0           1           0           1           0
           1          -2           0           0           0           1
           0           0           0           1
Number of primitives per shell             I   N=          16
           6           3           3           1           1           1
           1           1           3           1           1           1
           3           1           1           1
Shell to atom map                          I   N=          16
           1           1           1           1           1           1
           1           1           2           2           2           2
           3           3           3           3
Primitive exponents                        R   N=          29
  8.58850000e+03  1.29723000e+03  2.99296000e+02  8.73771000e+01  2.56789000e+01
  3.74004000e+00  4.21175000e+01  9.62837000e+00  2.85332000e+00  4.21175000e+01
  9.62837000e+00  2.85332000e+00  9.05661000e-01  9.05661000e-01  2.55611000e-01
  2.55611000e-01  1.29200000e+00  3.38650000e+01  5.09479000e+00  1.15879000e+00
  3.25840000e-01  1.02741000e-01  7.50000000e-01  3.38650000e+01  5.09479000e+00
  1.15879000e+00  3.25840000e-01  1.02741000e-01  7.50000000e-01
Contraction coefficients                   R   N=          29
  1.89515008e-03  1.43859006e-02  7.07320031e-02  2.40001011e-01  5.94797026e-01
  2.80802012e-01  1.13889012e-01  9.20811101e-01 -3.27447036e-03  3.65113974e-02
  2.37152983e-01  8.19701941e-01  1.00000000e+00  1.00000000e+00  1.00000000e+00
  1.00000000e+00  1.00000000e+00  2.54938145e-02  1.90373109e-01  8.52161486e-01
  1.00000000e+00  1.00000000e+00  1.00000000e+00  2.54938145e-02  1.90373109e-01
  8.52161486e-01  1.00000000e+00  1.00000000e+00  1.00000000e+00
Coordinates of each shell                  R   N=          48
  2.98159578e-03  1.26095695e-01  0.00000000e+00  2.98159578e-03  1.26095695e-01
  0.00000000e+00  2.98159578e-03  1.26095695e-01  0.00000000e+00  2.98159578e-03
  1.26095695e-01  0.00000000e+00  2.98159578e-03  1.26095695e-01  0.00000000e+00
  2.98159578e-03  1.26095695e-01  0.00000000e+00  2.98159578e-03  1.26095695e-01
  0.00000000e+00  2.98159578e-03  1.26095695e-01  0.00000000e+00  1.41823604e+00
 -1.03470925e+00  0.00000000e+00  1.41823604e+00 -1.03470925e+00  0.00000000e+00
  1.41823604e+00 -1.03470925e+00  0.00000000e+00  1.41823604e+00 -1.03470925e+00
  0.00000000e+00 -1.46555613e+00 -9.66520926e-01  0.00000000e+00 -1.46555613e+00
 -9.66520926e-01  0.00000000e+00 -1.46555613e+00 -9.66520926e-01  0.00000000e+00
 -1.46555613e+00 -9.66520926e-01  0.00000000e+00
Total Energy                               R     -7.626362208246827e+01
Alpha Orbital Energies                     R   N=          30
 -2.05472640e+01 -1.33599614e+00 -6.99378198e-01 -5.70800064e-01 -4.99138605e-01
  1.48705930e-01  2.15798762e-01  5.60106427e-01  6.08257008e-01  1.00038332e+00
  1.00401183e+00  1.10827958e+00  1.31626843e+00  1.48480122e+00  1.51412142e+00
  1.71149125e+00  1.91514701e+00  2.23051063e+00  2.37388796e+00  2.59647687e+00
  2.78352191e+00  3.48855222e+00  3.53852016e+00  3.70514391e+00  3.99891902e+00
  4.25196874e+00  5.32487584e+00  5.73958795e+00  6.15529490e+00  5.15370528e+01
Alpha MO coefficients                      R   N=         900
  5.51459873e-01  4.71691201e-01 -4.24175895e-05 -1.79390529e-03  0.00000000e+00
  5.44388829e-03  1.54875181e-05  6.54987903e-04  0.00000000e+00 -4.63541057e-04
 -2.10508971e-06 -8.90281828e-05  0.00000000e+00  1.41887461e-04  0.00000000e+00
  0.00000000e+00 -5.54400908e-05  2.62319769e-06  1.97515587e-04  1.19602136e-04
  8.68372170e-05 -8.94008434e-05  3.48755420e-05  0.00000000e+00  1.97515526e-04
  1.19602252e-04  8.68371576e-05  9.09493521e-05  3.06111475e-05  0.00000000e+00
  1.13638061e-01  1.89912774e-01  8.40568124e-04  3.55494070e-02  0.00000000e+00
 -5.41654514e-01  1.42432841e-03  6.02376940e-02  0.00000000e+00 -3.80404896e-01
  4.87404155e-04  2.06132340e-02  0.00000000e+00  7.76525314e-03  0.00000000e+00
  0.00000000e+00 -1.20379393e-03  5.69636617e-05 -9.17169278e-02 -8.05067744e-02
  2.20556302e-03  2.31212410e-02 -1.53439727e-02  0.00000000e+00 -9.17168944e-02
 -8.05067575e-02  2.20556031e-03 -2.38206224e-02 -1.42340108e-02  0.00000000e+00
  8.82951737e-09  1.50727326e-08  2.25514759e-01 -5.33242339e-03  0.00000000e+00
 -4.54245685e-08  3.46948746e-01 -8.20379374e-03  0.00000000e+00 -8.44175133e-08
  2.18361558e-01 -5.16327979e-03  0.00000000e+00 -2.48679199e-09  0.00000000e+00
  0.00000000e+00 -1.34541415e-03 -2.84338768e-02  1.47420786e-01  2.13751583e-01
  5.98669798e-02 -1.84962602e-02  2.69082157e-02  0.00000000e+00 -1.47420761e-01
 -2.13751561e-01 -5.98669890e-02 -1.97473906e-02 -2.60039316e-02  0.00000000e+00
  3.80809310e-02  6.47004621e-02 -5.99153525e-03 -2.53390086e-01  0.00000000e+00
 -1.95828994e-01 -8.87451441e-03 -3.75314950e-01  0.00000000e+00 -3.30428112e-01
 -7.98859397e-03 -3.37848391e-01  0.00000000e+00 -1.27395125e-02  0.00000000e+00
  0.00000000e+00 -1.20685357e-02  5.71052227e-04  8.83585062e-02  1.50840286e-01
  3.09992700e-02 -3.02629774e-02 -7.18587427e-03  0.00000000e+00  8.83585334e-02
  1.50840338e-01  3.09993072e-02  2.98895227e-02 -8.60819586e-03  0.00000000e+00
  0.00000000e+00  0.00000000e+00  0.00000000e+00  0.00000000e+00  2.92396145e-01
  0.00000000e+00  0.00000000e+00  0.00000000e+00  4.37273759e-01  0.00000000e+00
  0.00000000e+00  0.00000000e+00  4.66971911e-01  0.00000000e+00 -3.99501876e-04
 -1.68955906e-02  0.00000000e+00  0.00000000e+00  0.00000000e+00  0.00000000e+00
  0.00000000e+00  0.00000000e+00  0.00000000e+00  3.03992407e-02  0.00000000e+00
  0.00000000e+00  0.00000000e+00  0.00000000e+00  0.00000000e+00  3.03992352e-02
  3.34936270e-02  5.45804569e-02  1.83504530e-03  7.76055654e-02  0.00000000e+00
 -1.03798630e-01  2.84632570e-03  1.20374011e-01  0.00000000e+00 -8.36269367e-01
  5.13324485e-03  2.17088394e-01  0.00000000e+00  4.55786486e-03  0.00000000e+00
  0.00000000e+00  2.97486423e-03 -1.40759847e-04  3.70202318e-02 -6.37179842e-02
  8.35389304e-01  6.50666706e-03  2.96803314e-03  0.00000000e+00  3.70202535e-02
 -6.37179822e-02  8.35389603e-01 -6.35911685e-03  3.27224138e-03  0.00000000e+00
 -4.62260724e-09 -7.31717988e-09  1.24781836e-01 -2.95051893e-03  0.00000000e+00
  7.97638902e-09  1.35025580e-01 -3.19273922e-03  0.00000000e+00  1.57844607e-07
  5.05432527e-01 -1.19511496e-02  0.00000000e+00 -2.05709535e-09  0.00000000e+00
  0.00000000e+00 -2.17313205e-04 -4.59272103e-03 -2.78089709e-02  1.20149271e-01
 -1.54268421e+00 -7.66992381e-03  8.53188669e-03  0.00000000e+00  2.78089789e-02
 -1.20149200e-01  1.54268392e+00 -8.06460411e-03 -8.15983423e-03  0.00000000e+00
  2.50380316e-08  4.35619077e-08  1.22902448e-01 -2.90599349e-03  0.00000000e+00
 -1.11409017e-07  1.83430516e-01 -4.33714934e-03  0.00000000e+00 -6.04451267e-07
  1.06380924e+00 -2.51535963e-02  0.00000000e+00 -6.94964278e-09  0.00000000e+00
  0.00000000e+00  7.14551341e-04  1.51009956e-02 -8.41474393e-02 -1.41681101e+00
  7.70597234e-01  2.02022588e-02  6.12292909e-03  0.00000000e+00  8.41475583e-02
  1.41681339e+00 -7.70598329e-01  1.98902946e-02 -7.07090502e-03  0.00000000e+00
  3.34480880e-02  5.85049261e-02  2.44391019e-03  1.03360293e-01  0.00000000e+00
 -1.37013014e-01  4.44530028e-03  1.88004656e-01  0.00000000e+00 -1.26910601e+00
  2.39820820e-02  1.01428300e+00  0.00000000e+00 -4.03007313e-03  0.00000000e+00
  0.00000000e+00  1.42588076e-02 -6.74692911e-04  6.54789445e-02  1.75472831e+00
 -6.29135747e-01 -2.45002029e-02  3.70109633e-02  0.00000000e+00  6.54788304e-02
  1.75472576e+00 -6.29134753e-01  2.62220585e-02  3.58116008e-02  0.00000000e+00
  1.50679730e-02  2.79573256e-02 -5.51881695e-03 -2.33399591e-01  0.00000000e+00
 -5.96682420e-02 -1.74965454e-02 -7.39955519e-01  0.00000000e+00 -8.93884998e-01
  3.70702336e-02  1.56775791e+00  0.00000000e+00  1.13987367e-02  0.00000000e+00
  0.00000000e+00 -1.04499083e-02  4.94466092e-04  3.03450712e-02  5.82207056e-01
  9.66917327e-02 -1.40131754e-01  1.16369705e-01  0.00000000e+00  3.03450505e-02
  5.82207053e-01  9.66916049e-02  1.45475267e-01  1.09616434e-01  0.00000000e+00
  0.00000000e+00  0.00000000e+00  0.00000000e+00  0.00000000e+00  2.40442257e-01
  0.00000000e+00  0.00000000e+00  0.00000000e+00  8.37244489e-01  0.00000000e+00
  0.00000000e+00  0.00000000e+00 -1.14710713e+00  0.00000000e+00 -1.88031194e-04
 -7.95222382e-03  0.00000000e+00  0.00000000e+00  0.00000000e+00  0.00000000e+00
  0.00000000e+00  0.00000000e+00  0.00000000e+00  1.51849807e-02  0.00000000e+00
  0.00000000e+00  0.00000000e+00  0.00000000e+00  0.00000000e+00  1.51849181e-02
 -9.83244881e-10 -5.82437574e-10  2.39224438e-01 -5.65655559e-03  0.00000000e+00
 -3.21737474e-08  7.17521111e-01 -1.69660428e-02  0.00000000e+00  5.49249934e-08
 -1.78816282e+00  4.22817035e-02  0.00000000e+00  2.72259691e-09  0.00000000e+00
  0.00000000e+00  1.36668422e-03  2.88833893e-02  1.24735766e-02  3.50732081e-01
  7.60243561e-01 -1.70333308e-01  1.46498433e-01  0.00000000e+00 -1.24735341e-02
 -3.50732348e-01 -7.60243462e-01 -1.77067172e-01 -1.38283995e-01  0.00000000e+00
  9.96148457e-02  2.05364430e-01  6.57520379e-04  2.78077832e-02  0.00000000e+00
 -1.51241770e+00 -3.50147714e-03 -1.48086932e-01  0.00000000e+00  3.05914919e+00
 -1.36141719e-02 -5.75766814e-01  0.00000000e+00 -2.80135774e-02  0.00000000e+00
  0.00000000e+00 -2.20042606e-02  1.04115507e-03  1.77044166e-02 -8.39460365e-01
 -3.36243094e-01  1.36394741e-01 -3.73472443e-01  0.00000000e+00  1.77044427e-02
 -8.39460155e-01 -3.36242934e-01 -1.53894167e-01 -3.66608369e-01  0.00000000e+00
  3.60717928e-02  7.55832139e-02 -2.17080482e-04 -9.18023928e-03  0.00000000e+00
 -6.42624879e-01 -1.79118859e-03 -7.57529171e-02  0.00000000e+00  2.01789953e+00
 -2.93851710e-02 -1.24274936e+00  0.00000000e+00  9.80539415e-03  0.00000000e+00
  0.00000000e+00  1.31907263e-01 -6.24151522e-03  8.38665300e-02 -1.15484731e+00
  2.25443773e-02  6.04890927e-01  3.95775442e-01  0.00000000e+00  8.38665485e-02
 -1.15484699e+00  2.25444634e-02 -5.85508749e-01  4.23923038e-01  0.00000000e+00
  0.00000000e+00  0.00000000e+00  0.00000000e+00  0.00000000e+00 -1.13053811e-08
  0.00000000e+00  0.00000000e+00  0.00000000e+00 -8.36620044e-08  0.00000000e+00
  0.00000000e+00  0.00000000e+00  8.02700708e-08  0.00000000e+00  1.25707180e-01
 -2.97238058e-03  0.00000000e+00  0.00000000e+00  0.00000000e+00  0.00000000e+00
  0.00000000e+00  0.00000000e+00  0.00000000e+00  6.88625312e-01  0.00000000e+00
  0.00000000e+00  0.00000000e+00  0.00000000e+00  0.00000000e+00 -6.88625429e-01
  0.00000000e+00  0.00000000e+00  0.00000000e+00  0.00000000e+00  4.66963599e-02
  0.00000000e+00  0.00000000e+00  0.00000000e+00  3.70758761e-02  0.00000000e+00
  0.00000000e+00  0.00000000e+00  5.58809529e-01  0.00000000e+00  3.47338775e-03
  1.46895025e-01  0.00000000e+00  0.00000000e+00  0.00000000e+00  0.00000000e+00
  0.00000000e+00  0.00000000e+00  0.00000000e+00 -7.65326747e-01  0.00000000e+00
  0.00000000e+00  0.00000000e+00  0.00000000e+00  0.00000000e+00 -7.65326617e-01
  4.52199460e-09  9.96018129e-09  1.30405121e-02 -3.08353030e-04  0.00000000e+00
 -6.51789667e-08  4.36748545e-02 -1.03272453e-03  0.00000000e+00 -1.54461202e-07
 -8.85649726e-01  2.09416022e-02  0.00000000e+00 -5.87250276e-10  0.00000000e+00
  0.00000000e+00  3.23992094e-03  6.84721379e-02 -1.75392254e-01  7.07399233e-01
 -1.54335826e-01  5.05199811e-01  6.26255303e-01  0.00000000e+00  1.75392301e-01
 -7.07399100e-01  1.54335863e-01  4.75035704e-01 -6.49433261e-01  0.00000000e+00
  2.28528978e-08  4.52666364e-08  1.70619421e-01 -4.03428452e-03  0.00000000e+00
 -1.70180172e-07  4.85321134e-01 -1.14753637e-02  0.00000000e+00 -6.51425322e-07
  2.75221568e-02 -6.50548088e-04  0.00000000e+00 -1.11568343e-07  0.00000000e+00
  0.00000000e+00  1.06705387e-02  2.25510213e-01 -6.57399511e-01  6.29633644e-01
 -5.26749953e-01  3.05524088e-01 -5.03385855e-01  0.00000000e+00  6.57400024e-01
 -6.29633487e-01  5.26750253e-01  3.28975729e-01  4.88383323e-01  0.00000000e+00
  3.21115214e-02  6.11131953e-02  3.85926298e-03  1.63218180e-01  0.00000000e+00
 -2.68388409e-01  6.47606866e-03  2.73889761e-01  0.00000000e+00 -2.74867519e-02
 -3.69702526e-03 -1.56363552e-01  0.00000000e+00 -2.74230315e-01  0.00000000e+00
  0.00000000e+00  6.32645950e-02 -2.99370568e-03  8.48877164e-01 -9.48826393e-01
  3.98941540e-01 -3.50607743e-01  1.86066052e-01  0.00000000e+00  8.48876215e-01
 -9.48824966e-01  3.98940913e-01  3.59010149e-01  1.69286659e-01  0.00000000e+00
  5.26142626e-02  1.22523114e-01  3.85812922e-04  1.63176465e-02  0.00000000e+00
 -8.34267759e-01  1.52054831e-02  6.43075656e-01  0.00000000e+00 -1.75509959e+00
  1.79120071e-02  7.57530513e-01  0.00000000e+00 -7.39769018e-03  0.00000000e+00
  0.00000000e+00 -2.46360187e-02  1.16570987e-03 -6.27169695e-01  2.02127601e+00
 -2.92037757e-01 -8.49133691e-01  6.61836377e-01  0.00000000e+00 -6.27170128e-01
  2.02127575e+00 -2.92037976e-01  8.79465513e-01  6.20962527e-01  0.00000000e+00
 -9.29171724e-09 -2.59509421e-08  1.16843613e-02 -2.76291283e-04  0.00000000e+00
  3.08275895e-07  8.43818234e-01 -1.99525836e-02  0.00000000e+00  2.75146522e-07
  6.61397018e-01 -1.56390620e-02  0.00000000e+00 -6.38401693e-09  0.00000000e+00
  0.00000000e+00 -1.06477853e-02 -2.25029758e-01  8.19931882e-01 -2.05803981e+00
  5.32794944e-01  8.39070321e-01 -6.36541647e-01  0.00000000e+00 -8.19932362e-01
  2.05803977e+00 -5.32795090e-01  8.68218051e-01  5.96171870e-01  0.00000000e+00
  0.00000000e+00  0.00000000e+00  0.00000000e+00  0.00000000e+00  1.62951569e-02
  0.00000000e+00  0.00000000e+00  0.00000000e+00 -1.64905772e-02  0.00000000e+00
  0.00000000e+00  0.00000000e+00  2.60487692e-01  0.00000000e+00 -2.43953582e-02
 -1.03166055e+00  0.00000000e+00  0.00000000e+00  0.00000000e+00  0.00000000e+00
  0.00000000e+00  0.00000000e+00  0.00000000e+00 -3.50186685e-01  0.00000000e+00
  0.00000000e+00  0.00000000e+00  0.00000000e+00  0.00000000e+00 -3.50187461e-01
  0.00000000e+00  0.00000000e+00  0.00000000e+00  0.00000000e+00  3.73951087e-08
  0.00000000e+00  0.00000000e+00  0.00000000e+00 -9.65508575e-09  0.00000000e+00
  0.00000000e+00  0.00000000e+00  3.73579985e-07  0.00000000e+00  1.04932212e+00
 -2.48129850e-02  0.00000000e+00  0.00000000e+00  0.00000000e+00  0.00000000e+00
  0.00000000e+00  0.00000000e+00  0.00000000e+00 -3.32190945e-01  0.00000000e+00
  0.00000000e+00  0.00000000e+00  0.00000000e+00  0.00000000e+00  3.32189957e-01
  3.80588431e-04  3.79085377e-04  7.90068143e-04  3.34123619e-02  0.00000000e+00
  5.91415129e-02  4.72593312e-04  1.99873063e-02  0.00000000e+00 -6.53036646e-01
  1.36471577e-02  5.77156139e-01  0.00000000e+00  3.86983583e-01  0.00000000e+00
  0.00000000e+00  1.00472840e+00 -4.75410358e-02  6.19701359e-03  4.49933895e-01
 -3.10909872e-02 -3.71591063e-01 -2.40811618e-01  0.00000000e+00  6.19703616e-03
  4.49933848e-01 -3.10909536e-02  3.59793886e-01 -2.58105397e-01  0.00000000e+00
  2.12655138e-02  4.17734485e-02  7.11877422e-03  3.01060817e-01  0.00000000e+00
 -9.16890340e-02  2.70350349e-03  1.14338331e-01  0.00000000e+00 -2.00538040e+00
  2.26078809e-02  9.56113215e-01  0.00000000e+00  1.03759002e+00  0.00000000e+00
  0.00000000e+00 -4.24369761e-01  2.00797182e-02  2.92415931e-01  1.07250921e+00
  4.25139033e-02 -5.64442132e-01  4.73884337e-01  0.00000000e+00  2.92415892e-01
  1.07250940e+00  4.25139354e-02  5.86209427e-01  4.46676845e-01  0.00000000e+00
 -1.11944513e-08 -2.35199726e-08  4.37789311e-01 -1.03518581e-02  0.00000000e+00
  1.59217460e-07 -3.59220560e-02  8.49351711e-04  0.00000000e+00  6.13714370e-07
  9.18536496e-01 -2.17194591e-02  0.00000000e+00 -2.75914930e-07  0.00000000e+00
  0.00000000e+00 -5.46574520e-02 -1.15512828e+00 -3.88428633e-01 -5.04970671e-01
 -2.21716458e-01  4.54877366e-01 -3.71522894e-01  0.00000000e+00  3.88428227e-01
  5.04970134e-01  2.21716378e-01  4.71928470e-01  3.49607954e-01  0.00000000e+00
  0.00000000e+00  0.00000000e+00  0.00000000e+00  0.00000000e+00  1.27029902e+00
  0.00000000e+00  0.00000000e+00  0.00000000e+00 -1.37295874e+00  0.00000000e+00
  0.00000000e+00  0.00000000e+00  4.84726180e-01  0.00000000e+00  5.72101798e-04
  2.41959621e-02  0.00000000e+00  0.00000000e+00  0.00000000e+00  0.00000000e+00
  0.00000000e+00  0.00000000e+00  0.00000000e+00  5.40686527e-02  0.00000000e+00
  0.00000000e+00  0.00000000e+00  0.00000000e+00  0.00000000e+00  5.40686108e-02
  2.13073590e-02  3.98556312e-02 -2.98521468e-02 -1.26247837e+00  0.00000000e+00
 -2.00139483e-01  4.01712343e-02  1.69888627e+00  0.00000000e+00 -9.75995776e-01
 -2.41974836e-03 -1.02330984e-01  0.00000000e+00  3.52896365e-01  0.00000000e+00
  0.00000000e+00 -9.12129678e-02  4.31589276e-03  2.62872223e-01  4.79588222e-01
  1.00762545e-02 -4.48944122e-01  2.77668949e-01  0.00000000e+00  2.62872149e-01
  4.79588316e-01  1.00761429e-02  4.61566359e-01  2.56139703e-01  0.00000000e+00
  1.47758489e-08  2.82545455e-08  1.25745831e+00 -2.97334235e-02  0.00000000e+00
 -2.40894717e-07 -1.96068355e+00  4.63617109e-02  0.00000000e+00 -4.16097123e-07
  1.66839884e-01 -3.94498097e-03  0.00000000e+00  1.49806143e-07  0.00000000e+00
  0.00000000e+00  2.96764635e-02  6.27181437e-01  3.20600456e-01  4.69376903e-01
 -1.47850687e-01 -4.90348622e-01  4.58665604e-01  0.00000000e+00 -3.20600032e-01
 -4.69376517e-01  1.47850719e-01 -5.11478819e-01 -4.34976718e-01  0.00000000e+00
  2.24706437e+00 -2.33534248e+00  4.09108032e-04  1.73021376e-02  0.00000000e+00
  2.62062220e-01 -1.55939744e-03 -6.59509185e-02  0.00000000e+00 -8.31210062e-02
 -1.57910738e-04 -6.67878576e-03  0.00000000e+00 -2.13868578e-02  0.00000000e+00
  0.00000000e+00  8.68959667e-03 -4.11184636e-04 -3.10045346e-03 -6.03374575e-02
  3.06950195e-02  5.36660602e-02 -4.34168117e-02  0.00000000e+00 -3.10043138e-03
 -6.03373955e-02  3.06950052e-02 -5.56581073e-02 -4.08317590e-02  0.00000000e+00
Total SCF Density                          R   N=         465
  6.36943515e-01  5.68327886e-01  5.25491202e-01 -3.12064633e-04 -4.96050160e-04
  1.01787027e-01 -1.31976631e-02 -2.09786772e-02  6.91226497e-04  1.31003898e-01
  0.00000000e+00  0.00000000e+00  0.00000000e+00  0.00000000e+00  1.70991011e-01
 -1.32015666e-01 -2.25939007e-01  1.43555528e-03  6.07117265e-02  0.00000000e+00
  6.63536487e-01 -3.35096090e-04 -5.92752938e-04  1.56592863e-01  8.98485223e-04
  0.00000000e+00  1.93292373e-03  2.40908436e-01 -1.41716971e-02 -2.50683825e-02
  8.98484579e-04  1.94570146e-01  0.00000000e+00  8.17461924e-02  1.14050078e-03
  2.89115246e-01  0.00000000e+00  0.00000000e+00  0.00000000e+00  0.00000000e+00
  2.55714323e-01  0.00000000e+00  0.00000000e+00  0.00000000e+00  3.82416681e-01
 -1.12134218e-01 -1.87682498e-01  3.32003215e-03  1.40409743e-01  0.00000000e+00
  5.41505821e-01  4.78106215e-03  2.02199188e-01  0.00000000e+00  5.07781675e-01
 -4.99968755e-04 -8.50582215e-04  9.85840556e-02  1.75432988e-03  0.00000000e+00
  2.60074456e-03  1.51663715e-01  2.47240858e-03  0.00000000e+00  4.90845528e-03
  9.54916503e-02 -2.11444577e-02 -3.59724489e-02  1.75433070e-03  1.72735827e-01
  0.00000000e+00  1.09989550e-01  2.47241121e-03  2.56167092e-01  0.00000000e+00
  2.07586545e-01  3.16303793e-03  2.29186216e-01  0.00000000e+00  0.00000000e+00
  0.00000000e+00  0.00000000e+00  2.73081573e-01  0.00000000e+00  0.00000000e+00
  0.00000000e+00  4.08389126e-01  0.00000000e+00  0.00000000e+00  0.00000000e+00
  4.36125531e-01  9.51082103e-04  1.43479097e-03  1.65699766e-04  7.00772359e-03
  0.00000000e+00 -3.42109217e-03  2.48237185e-04  1.04983668e-02  0.00000000e+00
  2.51097395e-03  2.11109535e-04  8.92815633e-03  0.00000000e+00  4.45228934e-04
  0.00000000e+00  0.00000000e+00  0.00000000e+00  0.00000000e+00 -2.33625617e-04
  0.00000000e+00  0.00000000e+00  0.00000000e+00 -3.49383374e-04  0.00000000e+00
  0.00000000e+00  0.00000000e+00 -3.73112308e-04  0.00000000e+00  3.19203497e-07
  0.00000000e+00  0.00000000e+00  0.00000000e+00  0.00000000e+00 -9.88041110e-03
  0.00000000e+00  0.00000000e+00  0.00000000e+00 -1.47759968e-02  0.00000000e+00
  0.00000000e+00  0.00000000e+00 -1.57795324e-02  0.00000000e+00  1.34996402e-05
  5.70921961e-04 -1.25390176e-03 -2.07121261e-03 -4.64222422e-04  6.04505382e-03
  0.00000000e+00  6.03021574e-03 -7.22805632e-04  8.93597859e-03  0.00000000e+00
  8.89147677e-03 -3.95925433e-04  8.11894594e-03  0.00000000e+00  2.88783268e-04
  0.00000000e+00  0.00000000e+00  2.97823773e-04  5.93315555e-05  9.80047614e-05
 -1.28312652e-02  1.78856302e-05  0.00000000e+00 -2.85335271e-04 -1.97401690e-02
  4.47485992e-05  0.00000000e+00 -4.20719562e-04 -1.24267995e-02 -8.98860864e-05
  0.00000000e+00 -1.36642937e-05  0.00000000e+00  0.00000000e+00  6.25897163e-05
  1.61762940e-03 -1.38976728e-02 -2.32164228e-02  6.52781145e-02 -5.28722325e-02
  0.00000000e+00  6.47535983e-02  1.00465372e-01 -7.97927299e-02  0.00000000e+00
  1.13866601e-02  6.28809373e-02 -6.50071080e-02  0.00000000e+00 -3.67564359e-03
  0.00000000e+00  0.00000000e+00 -2.30860494e-03 -8.29302231e-03  7.59042953e-02
 -6.67707502e-03 -1.09468203e-02  9.44653906e-02 -8.44468593e-02  0.00000000e+00
  2.81371955e-02  1.45415086e-01 -1.26431305e-01  0.00000000e+00 -3.84335465e-02
  9.08617745e-02 -1.07448646e-01  0.00000000e+00 -5.09354151e-03  0.00000000e+00
  0.00000000e+00 -4.02219770e-03 -1.19924683e-02  1.04446613e-01  1.49847772e-01
  2.95800947e-03  4.93098588e-03  2.66340091e-02 -1.61917862e-02  0.00000000e+00
 -1.45294780e-02  4.09976258e-02 -2.39854218e-02  0.00000000e+00 -2.21641651e-02
  2.56521624e-02 -2.14734148e-02  0.00000000e+00 -7.55553320e-04  0.00000000e+00
  0.00000000e+00 -9.14643073e-04 -3.36884452e-03  2.27248322e-02  3.45900961e-02
  9.09976412e-03  2.85141897e-03  4.78164104e-03 -7.94083838e-03  1.71781502e-02
  0.00000000e+00 -1.31956840e-02 -1.22315084e-02  2.58051981e-02  0.00000000e+00
  2.40869642e-03 -7.57168794e-03  2.15928222e-02  0.00000000e+00  1.13013046e-03
  0.00000000e+00  0.00000000e+00  7.24573401e-04  1.01991096e-03 -1.50427031e-02
 -2.07598166e-02 -3.98891570e-03  3.58511844e-03 -3.99614276e-03 -6.72498983e-03
  1.21967101e-02  2.26362322e-03  0.00000000e+00  1.94370465e-02  1.87553770e-02
  3.10390781e-03  0.00000000e+00  1.64226376e-02  1.18512923e-02  3.94501882e-03
  0.00000000e+00 -5.52008311e-05  0.00000000e+00  0.00000000e+00  1.37978667e-04
 -1.54016471e-03  9.47841224e-03  1.18061046e-02  2.70863536e-03 -1.27002043e-03
  2.02225515e-03  0.00000000e+00  0.00000000e+00  0.00000000e+00  0.00000000e+00
  1.77772416e-02  0.00000000e+00  0.00000000e+00  0.00000000e+00  2.65855805e-02
  0.00000000e+00  0.00000000e+00  0.00000000e+00  2.83911830e-02  0.00000000e+00
 -2.42891073e-05 -1.02722625e-03  0.00000000e+00  0.00000000e+00  0.00000000e+00
  0.00000000e+00  0.00000000e+00  0.00000000e+00  0.00000000e+00  1.84822767e-03
 -1.38976684e-02 -2.32164156e-02 -6.77041268e-02 -4.97278040e-02  0.00000000e+00
  6.47535783e-02 -1.04124438e-01 -7.49551078e-02  0.00000000e+00  1.13866664e-02
 -6.58831823e-02 -6.19624262e-02  0.00000000e+00 -3.67564230e-03  0.00000000e+00
  0.00000000e+00 -1.51523769e-03  8.47395417e-03 -1.10272514e-02 -2.15990793e-02
 -1.25777119e-02 -4.13577123e-03 -6.38890909e-03  0.00000000e+00  7.59042781e-02
 -6.67707469e-03 -1.09468200e-02 -9.83511467e-02 -7.98876287e-02  0.00000000e+00
  2.81371959e-02 -1.51228274e-01 -1.19417046e-01  0.00000000e+00 -3.84335212e-02
 -9.58387311e-02 -1.03034043e-01  0.00000000e+00 -5.09354043e-03  0.00000000e+00
  0.00000000e+00 -2.87186142e-03  1.23186752e-02 -2.15990802e-02 -3.29111622e-02
 -1.65965447e-02 -4.94540016e-03 -1.12005903e-02  0.00000000e+00  1.04446604e-01
  1.49847779e-01  2.95800951e-03  4.93098600e-03 -2.73695456e-02 -1.49148608e-02
  0.00000000e+00 -1.45294788e-02 -4.20854755e-02 -2.20209046e-02  0.00000000e+00
 -2.21641674e-02 -2.66384301e-02 -2.02370001e-02  0.00000000e+00 -7.55553716e-04
  0.00000000e+00  0.00000000e+00 -5.92460413e-04  3.44015735e-03 -1.25777123e-02
 -1.65965429e-02 -5.23645576e-03  4.40343197e-04 -3.73502001e-03  0.00000000e+00
  2.27248409e-02  3.45901123e-02  9.09977091e-03 -3.03710748e-03 -5.09414968e-03
 -9.30487776e-03 -1.66307589e-02  0.00000000e+00  1.40996171e-02 -1.43010288e-02
 -2.49816420e-02  0.00000000e+00 -1.62979527e-03 -9.12491340e-03 -2.09743880e-02
  0.00000000e+00 -1.13147631e-03  0.00000000e+00  0.00000000e+00 -6.10968549e-04
  1.15441336e-03  3.82917999e-03  4.41048100e-03 -6.16386476e-04 -2.18012711e-03
 -7.61286493e-04  0.00000000e+00  1.54738824e-02  2.12946264e-02  4.11248278e-03
  3.70154665e-03 -3.85690581e-03 -6.49147222e-03 -1.16493200e-02  3.62765981e-03
  0.00000000e+00  1.87916367e-02 -1.79318227e-02  5.17342310e-03  0.00000000e+00
  1.65181306e-02 -1.12328588e-02  5.49823795e-03  0.00000000e+00 -1.72414092e-06
  0.00000000e+00  0.00000000e+00  3.12014991e-04  1.46733223e-03 -6.57724315e-03
 -1.14218126e-02 -3.71003197e-03  8.24748781e-04 -8.38909293e-04  0.00000000e+00
  8.75683429e-03  1.08117110e-02  2.51707533e-03  1.19056142e-03  1.90582699e-03
  0.00000000e+00  0.00000000e+00  0.00000000e+00  0.00000000e+00  1.77772383e-02
  0.00000000e+00  0.00000000e+00  0.00000000e+00  2.65855757e-02  0.00000000e+00
  0.00000000e+00  0.00000000e+00  2.83911779e-02  0.00000000e+00 -2.42891029e-05
 -1.02722606e-03  0.00000000e+00  0.00000000e+00  0.00000000e+00  0.00000000e+00
  0.00000000e+00  0.00000000e+00  0.00000000e+00  1.84822733e-03  0.00000000e+00
  0.00000000e+00  0.00000000e+00  0.00000000e+00  0.00000000e+00  1.84822700e-03
Total MP2 Density                          R   N=         465
  6.36831667e-01  5.68262335e-01  5.25308739e-01 -2.97380558e-04 -4.67313851e-04
  1.12478169e-01 -1.25766593e-02 -1.97633879e-02  6.53239790e-04  1.40089391e-01
  1.16683228e-16  1.16334431e-16 -2.96823839e-17  6.75754130e-17  1.78931938e-01
 -1.33230468e-01 -2.26878704e-01  1.31983320e-03  5.58177049e-02 -1.04886095e-16
  6.82452440e-01 -2.95688106e-04 -5.21201649e-04  1.65384280e-01  7.67632268e-04
 -6.37843898e-17  1.62267000e-03  2.47806155e-01 -1.25050777e-02 -2.20423780e-02
  7.67631570e-04  1.97830627e-01  2.26488434e-16  6.86251118e-02  8.71849867e-04
  2.84657571e-01 -1.54657249e-16 -1.51065946e-16 -1.72397337e-16 -3.50772429e-16
  2.53546483e-01  8.98763105e-17 -1.39049499e-17  7.86498352e-17  3.65361514e-01
 -1.10963708e-01 -1.85503104e-01  3.33683021e-03  1.41120137e-01 -3.61764122e-16
  5.19345848e-01  4.66577066e-03  1.97323258e-01  6.35987178e-16  5.54363435e-01
 -5.04002519e-04 -8.54532490e-04  9.43167207e-02  1.70726926e-03  5.81082880e-16
  2.46746633e-03  1.42109765e-01  2.33004499e-03 -7.57499947e-18  5.12489232e-03
  9.05821066e-02 -2.13150584e-02 -3.61395236e-02  1.70726983e-03  1.66479354e-01
  1.71238285e-16  1.04353048e-01  2.33004701e-03  2.40595770e-01 -4.93217393e-16
  2.16739977e-01  3.29031416e-03  2.29656521e-01  4.05102024e-17  3.56941327e-17
 -1.76704151e-16 -6.45167772e-17  2.68082682e-01 -2.58768589e-17 -1.60854476e-16
  1.43093192e-16  3.90591363e-01  9.35722171e-17  4.49355446e-16 -1.02640471e-16
  4.57772277e-01  1.07904918e-03  1.65792599e-03  1.53931717e-04  6.51003709e-03
  2.23819678e-16 -4.68177201e-03  2.15314851e-04  9.10603157e-03 -3.27681940e-16
  4.61057493e-03  1.41185955e-04  5.97098034e-03  3.86332613e-17  3.20258113e-03
 -9.01901866e-18  8.43647411e-18 -6.64523418e-17  3.00663190e-17 -2.31096882e-04
 -9.43660677e-17 -6.94202315e-17  1.24324198e-17 -3.33589181e-04 -7.71919746e-17
 -3.14490519e-17  3.87435910e-17 -3.76885512e-04  7.54910417e-18  3.07689837e-03
 -8.02702462e-17 -7.45829965e-17 -1.70144355e-17 -3.96247391e-18 -9.77346696e-03
  3.42231267e-17 -1.55116771e-17 -6.80190197e-17 -1.41080325e-02  2.57562016e-17
  7.89619005e-17 -2.42806902e-17 -1.59390980e-02  2.91810334e-18  1.49946616e-05
  3.71069024e-03 -1.31017737e-03 -2.16478837e-03 -4.41208031e-04  6.25569668e-03
 -1.56080028e-16  6.27170887e-03 -6.50794333e-04  8.88102930e-03  7.81424058e-17
  9.42986372e-03 -2.31738744e-04  8.57837061e-03 -9.74794437e-17  3.75053455e-04
  5.44910065e-18 -4.43255925e-18  2.97435769e-03  6.19943530e-05  1.02432479e-04
 -1.24505941e-02 -1.10829439e-06 -4.61391746e-16 -2.96762113e-04 -1.81916360e-02
  1.06523510e-05  2.32132731e-16 -4.46194387e-04 -9.18879920e-03 -1.88372275e-04
 -3.39387282e-16 -1.77463508e-05  3.84834127e-17 -6.18721875e-17  4.33768572e-05