Generated by Psi4
        SP                        DF-MP2                   AUG-CC-PVTZ
Number of atoms                            I                3
Charge                                     I                0
Multiplicity                               I                1
Number of electrons                        I               10
Number of alpha electrons                  I                5
Number of beta electrons                   I                5
Number of basis functions                  I               92
Number of independent functions            I               92
Atomic numbers                             I   N=           3
           8           1           1
Nuclear charges                            R   N=           3
  8.00000000e+00  1.00000000e+00  1.00000000e+00
Current cartesian coordinates              R   N=           9
  2.98159578e-03  1.26095695e-01  0.00000000e+00  1.41823604e+00 -1.03470925e+00
  0.00000000e+00 -1.46555613e+00 -9.66520926e-01  0.00000000e+00
Integer atomic weights                     I   N=           3
          16           1           1
Real atomic weights                        R   N=           3
  1.59949146e+01  1.00782503e+00  1.00782503e+00
Number of primitive shells                 I               52
Number of contracted shells                I               32
Pure/Cartesian d shells                    I                0
Pure/Cartesian f shells                    I                0
Highest angular momentum                   I                3
Largest degree of contraction              I                8
Shell types                                I   N=          32
           0           0           0           0           1           1
           1          -2          -2          -3           0           1
          -2          -3           0           0           0           1
           1          -2           0           1          -2           0
           0           0           1           1          -2           0
           1          -2
Number of primitives per shell             I   N=          32
           8           8           1           1           3           1
           1           1           1           1           1           1
           1           1           3           1           1           1
           1           1           1           1           1           3
           1           1           1           1           1           1
           1           1
Shell to atom map                          I   N=          32
           1           1           1           1           1           1
           1           1           1           1           1           1
           1           1           2           2           2           2
           2           2           2           2           2           3
           3           3           3           3           3           3
           3           3
Primitive exponents                        R   N=          52
  1.53300000e+04  2.29900000e+03  5.22400000e+02  1.47300000e+02  4.75500000e+01
  1.67600000e+01  6.20700000e+00  6.88200000e-01  1.53300000e+04  2.29900000e+03
  5.22400000e+02  1.47300000e+02  4.75500000e+01  1.67600000e+01  6.20700000e+00
  6.88200000e-01  1.75200000e+00  2.38400000e-01  3.44600000e+01  7.74900000e+00
  2.28000000e+00  7.15600000e-01  2.14000000e-01  2.31400000e+00  6.45000000e-01
  1.42800000e+00  7.37600000e-02  5.97400000e-02  2.14000000e-01  5.00000000e-01
  3.38700000e+01  5.09500000e+00  1.15900000e+00  3.25800000e-01  1.02700000e-01
  1.40700000e+00  3.88000000e-01  1.05700000e+00  2.52600000e-02  1.02000000e-01
  2.47000000e-01  3.38700000e+01  5.09500000e+00  1.15900000e+00  3.25800000e-01
  1.02700000e-01  1.40700000e+00  3.88000000e-01  1.05700000e+00  2.52600000e-02
  1.02000000e-01  2.47000000e-01
Contraction coefficients                   R   N=          52
  5.20198307e-04  4.02334478e-03  2.07290833e-02  8.10823271e-02  2.36226352e-01
  4.43518209e-01  3.58670589e-01 -8.34979724e-03 -1.97236012e-04 -1.53501070e-03
 -7.95118391e-03 -3.21134529e-02 -1.00269643e-01 -2.34047112e-01 -3.01410928e-01
  1.03491965e+00  1.00000000e+00  1.00000000e+00  4.11634896e-02  2.57762836e-01
  8.02419274e-01  1.00000000e+00  1.00000000e+00  1.00000000e+00  1.00000000e+00
  1.00000000e+00  1.00000000e+00  1.00000000e+00  1.00000000e+00  1.00000000e+00
  2.54948632e-02  1.90362766e-01  8.52162022e-01  1.00000000e+00  1.00000000e+00
  1.00000000e+00  1.00000000e+00  1.00000000e+00  1.00000000e+00  1.00000000e+00
  1.00000000e+00  2.54948632e-02  1.90362766e-01  8.52162022e-01  1.00000000e+00
  1.00000000e+00  1.00000000e+00  1.00000000e+00  1.00000000e+00  1.00000000e+00
  1.00000000e+00  1.00000000e+00
Coordinates of each shell                  R   N=          96
  2.98159578e-03  1.26095695e-01  0.00000000e+00  2.98159578e-03  1.26095695e-01
  0.00000000e+00  2.98159578e-03  1.26095695e-01  0.00000000e+00  2.98159578e-03
  1.26095695e-01  0.00000000e+00  2.98159578e-03  1.26095695e-01  0.00000000e+00
  2.98159578e-03  1.26095695e-01  0.00000000e+00  2.98159578e-03  1.26095695e-01
  0.00000000e+00  2.98159578e-03  1.26095695e-01  0.00000000e+00  2.98159578e-03
  1.26095695e-01  0.00000000e+00  2.98159578e-03  1.26095695e-01  0.00000000e+00
  2.98159578e-03  1.26095695e-01  0.00000000e+00  2.98159578e-03  1.26095695e-01
  0.00000000e+00  2.98159578e-03  1.26095695e-01  0.00000000e+00  2.98159578e-03
  1.26095695e-01  0.00000000e+00  1.41823604e+00 -1.03470925e+00  0.00000000e+00
  1.41823604e+00 -1.03470925e+00  0.00000000e+00  1.41823604e+00 -1.03470925e+00
  0.00000000e+00  1.41823604e+00 -1.03470925e+00  0.00000000e+00  1.41823604e+00
 -1.03470925e+00  0.00000000e+00  1.41823604e+00 -1.03470925e+00  0.00000000e+00
  1.41823604e+00 -1.03470925e+00  0.00000000e+00  1.41823604e+00 -1.03470925e+00
  0.00000000e+00  1.41823604e+00 -1.03470925e+00  0.00000000e+00 -1.46555613e+00
 -9.66520926e-01  0.00000000e+00 -1.46555613e+00 -9.66520926e-01  0.00000000e+00
 -1.46555613e+00 -9.66520926e-01  0.00000000e+00 -1.46555613e+00 -9.66520926e-01
  0.00000000e+00 -1.46555613e+00 -9.66520926e-01  0.00000000e+00 -1.46555613e+00
 -9.66520926e-01  0.00000000e+00 -1.46555613e+00 -9.66520926e-01  0.00000000e+00
 -1.46555613e+00 -9.66520926e-01  0.00000000e+00 -1.46555613e+00 -9.66520926e-01
  0.00000000e+00
Total Energy                               R     -7.632884107985761e+01
Alpha Orbital Energies                     R   N=          92
 -2.05694314e+01 -1.34816740e+00 -7.10650314e-01 -5.83783400e-01 -5.09586107e-01
  2.92591287e-02  4.76714219e-02  1.35828393e-01  1.59162942e-01  1.74936017e-01
  1.83116483e-01  2.26392649e-01  2.44603311e-01  2.65399287e-01  2.99538443e-01
  3.09801128e-01  3.65534884e-01  4.35825144e-01  4.64626078e-01  5.98694374e-01
  6.57866781e-01  7.07595166e-01  7.22913982e-01  7.31995855e-01  8.28289856e-01
  8.45722199e-01  8.93694520e-01  9.10950782e-01  9.19058752e-01  9.21622744e-01
  9.30140592e-01  9.60531369e-01  1.01789262e+00  1.04056901e+00  1.08148975e+00
  1.10671828e+00  1.17459608e+00  1.17955864e+00  1.26375996e+00  1.50758230e+00
  1.53550791e+00  1.57806142e+00  1.80920031e+00  1.81508694e+00  1.97434470e+00
  2.11038780e+00  2.26208770e+00  2.31406991e+00  2.32847167e+00  2.41695100e+00
  2.41943174e+00  2.44356362e+00  2.48055164e+00  2.68231589e+00  2.69992711e+00
  2.76362558e+00  2.81274591e+00  2.88014698e+00  3.64067503e+00  3.72981418e+00
  4.01258611e+00  4.07451179e+00  4.15855642e+00  4.23679681e+00  4.28243996e+00
  4.37371900e+00  4.37417836e+00  4.39840877e+00  4.51161040e+00  4.71550363e+00
  4.82191192e+00  5.12895876e+00  5.13392563e+00  5.23668129e+00  5.29336072e+00
  5.49937495e+00  5.64905434e+00  6.16812225e+00  6.51762618e+00  6.71199114e+00
  6.88870118e+00  7.12741135e+00  7.25201903e+00  7.28300312e+00  7.29867291e+00
  7.33441054e+00  7.35917773e+00  7.51189459e+00  7.88846201e+00  7.90174607e+00
  8.76726308e+00  1.54828586e+01
Alpha MO coefficients                      R   N=        8464
  9.75393424e-01 -1.50087523e-03  4.35838484e-02  6.06120283e-04 -4.42735529e-05
 -1.87239506e-03  0.00000000e+00  3.89819327e-05  1.64857233e-03  0.00000000e+00
 -4.50240095e-06 -1.90482004e-04  0.00000000e+00 -5.42839404e-05  0.00000000e+00
  0.00000000e+00  2.07626826e-05 -9.82543248e-07  5.23352598e-04  0.00000000e+00
  0.00000000e+00 -2.06437852e-04  9.76768024e-06  0.00000000e+00 -3.48964361e-07
 -1.47554197e-05  0.00000000e+00  0.00000000e+00 -5.48160850e-07 -7.71535070e-06
  1.88457921e-04 -3.80679112e-06 -1.61006655e-04  0.00000000e+00 -1.35080745e-04
  0.00000000e+00  0.00000000e+00 -1.74349684e-05  8.24598894e-07  0.00000000e+00
 -1.71284347e-06 -7.24382300e-05  0.00000000e+00  0.00000000e+00  1.16265408e-05
  1.63656641e-04  4.86285866e-04  1.10114092e-03 -1.61121247e-04 -1.73431059e-04
  1.19955821e-04  0.00000000e+00 -6.98671966e-04  6.61858509e-04  0.00000000e+00
  4.51296930e-05  0.00000000e+00  0.00000000e+00  1.81182040e-05  9.25984346e-05
  2.89975283e-05 -1.18458434e-04  9.12965659e-05  0.00000000e+00 -2.31742276e-04
  0.00000000e+00  0.00000000e+00  5.22407241e-05 -4.07952564e-04  4.86285616e-04
  1.10114426e-03 -1.61118316e-04  1.78907187e-04  1.11624898e-04  0.00000000e+00
  7.29174674e-04  6.28097423e-04  0.00000000e+00  4.51294186e-05  0.00000000e+00
  0.00000000e+00  9.29394450e-06 -9.38950433e-05  2.89978199e-05  1.22641904e-04
  8.55960901e-05  0.00000000e+00 -2.31742347e-04  0.00000000e+00  0.00000000e+00
  9.05275456e-05  4.01197244e-04  8.18621152e-03 -5.06355505e-01 -1.32984098e-01
 -2.96590279e-01  1.02557820e-03  4.33738965e-02  0.00000000e+00  1.47402060e-03
  6.23391020e-02  0.00000000e+00  4.23171446e-04  1.78964044e-02  0.00000000e+00
  3.52019776e-03  0.00000000e+00  0.00000000e+00 -9.60412588e-04  4.54456276e-05
  9.10969941e-03  0.00000000e+00  0.00000000e+00 -1.18157826e-03  5.59081664e-05
  0.00000000e+00 -3.60386458e-05 -1.52412941e-03  0.00000000e+00  0.00000000e+00
  1.66075798e-04  2.33770632e-03 -3.44431174e-02  6.68218265e-05  2.82602422e-03
  0.00000000e+00 -2.04292327e-03  0.00000000e+00  0.00000000e+00  2.09442734e-03
 -9.91061914e-05  0.00000000e+00 -1.84281516e-05 -7.79327488e-04  0.00000000e+00
  0.00000000e+00  2.34253540e-06  3.29884786e-05 -8.68448782e-02 -7.33424142e-02
  1.42380999e-02  1.02148698e-02 -7.57942454e-03  0.00000000e+00  7.79572654e-03
 -5.73701265e-03  0.00000000e+00  1.12470719e-03  0.00000000e+00  0.00000000e+00
 -4.48063197e-04  2.06758195e-03  1.34768185e-03 -4.77544785e-03  4.25771985e-03
  0.00000000e+00 -3.14402493e-04  0.00000000e+00  0.00000000e+00  1.26533222e-04
 -7.02808640e-04 -8.68448459e-02 -7.33423842e-02  1.42380885e-02 -1.05616859e-02
 -7.08815047e-03  0.00000000e+00 -8.05816855e-03 -5.36214023e-03  0.00000000e+00
  1.12470611e-03  0.00000000e+00  0.00000000e+00 -6.41288270e-04 -2.01603472e-03
  1.34768007e-03  4.97134540e-03  4.02724992e-03  0.00000000e+00 -3.14400914e-04
  0.00000000e+00  0.00000000e+00  1.92329314e-04  6.87718560e-04 -3.11074289e-09
 -4.70014436e-08 -1.08140934e-08 -1.04242909e-07  2.83363068e-01 -6.70027927e-03
  0.00000000e+00  3.40202711e-01 -8.04427631e-03  0.00000000e+00  1.61998835e-01
 -3.83053243e-03  0.00000000e+00 -1.00226081e-09  0.00000000e+00  0.00000000e+00
 -5.98482736e-04 -1.26482916e-02  1.32690610e-09  0.00000000e+00  0.00000000e+00
 -1.12481469e-03 -2.37716957e-02  0.00000000e+00 -2.66694949e-03  6.30612222e-05
  0.00000000e+00  0.00000000e+00  7.42222368e-04 -5.27288752e-05 -1.49054684e-08
  8.72231117e-03 -2.06242552e-04  0.00000000e+00  6.14271712e-09  0.00000000e+00
  0.00000000e+00 -7.22901327e-05 -1.52771923e-03  0.00000000e+00 -2.42879779e-03
  5.74291027e-05  0.00000000e+00  0.00000000e+00 -1.88642736e-03  1.34017774e-04
  1.38805491e-01  2.19410819e-01  3.66192998e-02 -8.72453500e-03  1.25678634e-02
  0.00000000e+00 -1.81343300e-02  2.81265358e-02  0.00000000e+00 -3.65444008e-03
  0.00000000e+00  0.00000000e+00 -6.19371436e-04 -5.99406236e-03 -4.81648182e-03
  8.29701877e-03  2.63151876e-06  0.00000000e+00 -4.05086146e-04  0.00000000e+00
  0.00000000e+00 -2.61399941e-03 -2.72165323e-03 -1.38805465e-01 -2.19410744e-01
 -3.66192983e-02 -9.30879203e-03 -1.21414536e-02  0.00000000e+00 -1.94434365e-02
 -2.72379877e-02  0.00000000e+00  3.65443829e-03  0.00000000e+00  0.00000000e+00
  5.06268021e-05 -6.02576206e-03  4.81648241e-03  8.28761742e-03 -3.94785847e-04
  0.00000000e+00  4.05088584e-04  0.00000000e+00  0.00000000e+00  2.34533192e-03
 -2.95631994e-03  4.69570490e-03  1.81577687e-01  5.23452873e-02  3.25519246e-01
  7.36006278e-03  3.11266882e-01  0.00000000e+00  9.03922431e-03  3.82280571e-01
  0.00000000e+00  5.08609788e-03  2.15097050e-01  0.00000000e+00  6.05687967e-03
  0.00000000e+00  0.00000000e+00  3.21213685e-03 -1.51990399e-04  9.13997895e-03
  0.00000000e+00  0.00000000e+00  1.32470594e-02 -6.26819807e-04  0.00000000e+00
 -6.06767771e-05 -2.56609065e-03  0.00000000e+00  0.00000000e+00  8.65177009e-05
  1.21783325e-03  8.36539903e-02  3.20669413e-04  1.35614806e-02  0.00000000e+00
 -5.51436532e-03  0.00000000e+00  0.00000000e+00  8.19568811e-03 -3.87805410e-04
  0.00000000e+00 -1.70556950e-05 -7.21284126e-04  0.00000000e+00  0.00000000e+00
 -1.08026963e-04 -1.52057989e-03 -8.55534059e-02 -1.77491023e-01 -6.61107325e-02
  9.46086553e-03  1.13805041e-03  0.00000000e+00  3.25244134e-02 -2.57355583e-03
  0.00000000e+00  1.75697170e-03  0.00000000e+00  0.00000000e+00 -3.18047400e-03
  2.06982088e-03 -1.91258520e-03  5.34325232e-03  7.84233982e-03  0.00000000e+00
  1.26840442e-03  0.00000000e+00  0.00000000e+00 -2.87650075e-03 -1.55550028e-03
 -8.55534317e-02 -1.77491041e-01 -6.61107528e-02 -9.39650094e-03  1.58393845e-03
  0.00000000e+00 -3.26097014e-02 -1.03344032e-03  0.00000000e+00  1.75697159e-03
  0.00000000e+00  0.00000000e+00 -3.36170205e-03 -1.76026265e-03 -1.91258413e-03
 -4.96661911e-03  8.08611693e-03  0.00000000e+00  1.26840733e-03  0.00000000e+00
  0.00000000e+00 -2.71677319e-03  1.82015421e-03  0.00000000e+00  0.00000000e+00
  0.00000000e+00  0.00000000e+00  0.00000000e+00  0.00000000e+00  3.54284993e-01
  0.00000000e+00  0.00000000e+00  4.50444984e-01  0.00000000e+00  0.00000000e+00
  3.27058336e-01  0.00000000e+00 -1.34761143e-04 -5.69928646e-03  0.00000000e+00
  0.00000000e+00  0.00000000e+00 -3.38052260e-04 -1.42967206e-02  0.00000000e+00
  0.00000000e+00 -3.59257282e-03  0.00000000e+00  0.00000000e+00  1.06888358e-03
 -5.05768603e-05  0.00000000e+00  0.00000000e+00  0.00000000e+00  0.00000000e+00
  0.00000000e+00  3.36424723e-02  0.00000000e+00 -1.33162245e-04 -5.63152844e-03
  0.00000000e+00  0.00000000e+00 -1.68115737e-03  0.00000000e+00  0.00000000e+00
  1.62891784e-04 -7.70620106e-06  0.00000000e+00  0.00000000e+00  0.00000000e+00
  0.00000000e+00  0.00000000e+00  0.00000000e+00  0.00000000e+00  1.04338997e-02
  0.00000000e+00  0.00000000e+00  2.94114130e-02  0.00000000e+00 -3.66570546e-03
  2.96567742e-03  0.00000000e+00  0.00000000e+00  0.00000000e+00  0.00000000e+00
  0.00000000e+00  1.81714044e-02  0.00000000e+00 -5.85313789e-03  4.33905271e-03
  0.00000000e+00  0.00000000e+00  0.00000000e+00  0.00000000e+00  0.00000000e+00
  0.00000000e+00  0.00000000e+00  1.04338966e-02  0.00000000e+00  0.00000000e+00
  2.94114041e-02  0.00000000e+00  3.80177881e-03  2.78910494e-03  0.00000000e+00
  0.00000000e+00  0.00000000e+00  0.00000000e+00  0.00000000e+00  1.81714000e-02
  0.00000000e+00  6.05167740e-03  4.05755663e-03  0.00000000e+00  0.00000000e+00
 -8.35601018e-04  5.83292980e-02  1.23253750e-02  7.90306609e-01 -7.05987180e-04
 -2.98568370e-02  0.00000000e+00 -1.71826815e-03 -7.26680719e-02  0.00000000e+00
 -8.27536568e-03 -3.49977934e-01  0.00000000e+00  8.80175871e-04  0.00000000e+00
  0.00000000e+00 -4.94752904e-04  2.34097444e-05 -2.33788985e-02  0.00000000e+00
  0.00000000e+00  5.56061555e-03 -2.63114639e-04  0.00000000e+00  1.54906348e-05
  6.55131627e-04  0.00000000e+00  0.00000000e+00 -9.59763789e-05 -1.35097375e-03
  2.36738151e+00 -5.30367844e-03 -2.24298167e-01  0.00000000e+00 -4.74068430e-02
  0.00000000e+00  0.00000000e+00  2.83413900e-02 -1.34103510e-03  0.00000000e+00
  1.46466777e-04  6.19423549e-03  0.00000000e+00  0.00000000e+00 -7.58277448e-04
 -1.06736479e-02 -2.00866889e-03 -2.39518696e-01 -9.43478015e-01 -2.08034090e-03
  4.36981254e-04  0.00000000e+00  7.71985731e-02 -6.18263300e-02  0.00000000e+00
  2.59568093e-03  0.00000000e+00  0.00000000e+00 -8.13388408e-06  4.88251766e-03
 -8.54825359e-01  2.12969494e-01 -2.02281436e-01  0.00000000e+00  1.89893342e-02
  0.00000000e+00  0.00000000e+00 -6.22560604e-03  2.79540775e-02 -2.00867241e-03
 -2.39518622e-01 -9.43477917e-01  2.09867115e-03  3.38169206e-04  0.00000000e+00
 -8.00344684e-02 -5.81084729e-02  0.00000000e+00  2.59567972e-03  0.00000000e+00
  0.00000000e+00 -4.69120522e-04 -4.85993388e-03 -8.54825675e-01 -2.22292185e-01
 -1.91989485e-01  0.00000000e+00  1.89893365e-02  0.00000000e+00  0.00000000e+00
 -8.83730503e-03 -2.72413442e-02  2.83659960e-09  9.20888330e-09  2.82636020e-09
  1.45730886e-07  2.94835221e-02 -6.97148655e-04  0.00000000e+00  7.35055780e-02
 -1.73807526e-03  0.00000000e+00  5.28534519e-01 -1.24974411e-02  0.00000000e+00
 -2.01051474e-10  0.00000000e+00  0.00000000e+00  5.44520036e-06  1.15075302e-04
 -2.06802190e-09  0.00000000e+00  0.00000000e+00 -1.41649131e-03 -2.99360478e-02
  0.00000000e+00 -4.14855380e-04  9.80956127e-06  0.00000000e+00  0.00000000e+00
 -7.67423655e-04  5.45192119e-05  3.62186924e-07  1.12513818e+00 -2.66043371e-02
  0.00000000e+00  4.75561934e-10  0.00000000e+00  0.00000000e+00 -5.98622253e-03
 -1.26512448e-01  0.00000000e+00 -9.99434640e-03  2.36319811e-04  0.00000000e+00
  0.00000000e+00 -2.00635255e-03  1.42536921e-04  6.28138408e-03 -2.50425153e-01
 -1.35521802e+00  4.27372399e-04  1.31774470e-03  0.00000000e+00  6.42601073e-02
 -7.08243827e-02  0.00000000e+00  2.99523660e-03  0.00000000e+00  0.00000000e+00
 -1.62817086e-03  4.55946162e-03 -3.39383011e+00  2.72142384e-01 -3.28332866e-01
  0.00000000e+00  1.06740814e-02  0.00000000e+00  0.00000000e+00  1.24854346e-02
  3.22998789e-02 -6.28138357e-03  2.50425060e-01  1.35521772e+00  3.64610257e-04
 -1.33647209e-03  0.00000000e+00  6.75357510e-02  6.77080004e-02  0.00000000e+00
 -2.99523626e-03  0.00000000e+00  0.00000000e+00  2.05141512e-03  4.38535289e-03
  3.39382995e+00  2.87356684e-01  3.15103237e-01  0.00000000e+00 -1.06740830e-02
  0.00000000e+00  0.00000000e+00 -9.37979105e-03  3.33344830e-02  9.74843149e-03
  6.35157507e-02  2.00191028e-02 -1.57550041e+00 -2.16285282e-03 -9.14698535e-02
  0.00000000e+00 -8.78911832e-04 -3.71689548e-02  0.00000000e+00  1.00163342e-02
  4.23608025e-01  0.00000000e+00  4.95141801e-04  0.00000000e+00  0.00000000e+00
 -5.04526824e-04  2.38738020e-05  1.33328572e-02  0.00000000e+00  0.00000000e+00
 -1.69240112e-02  8.00797834e-04  0.00000000e+00 -2.00716624e-05 -8.48869024e-04
  0.00000000e+00  0.00000000e+00  2.24673358e-04  3.16253804e-03 -6.73060502e+00
  4.85084158e-02  2.05149482e+00  0.00000000e+00  9.52151095e-02  0.00000000e+00
  0.00000000e+00  4.26861150e-02 -2.01977034e-03  0.00000000e+00  1.31080806e-05
  5.54417948e-04  0.00000000e+00  0.00000000e+00 -3.84034043e-04 -5.40570424e-03
 -1.81704846e-03  2.40685244e-01  3.22436368e+00 -5.56769263e-04  9.07013418e-05
  0.00000000e+00 -2.06713897e-01  1.41367692e-01  0.00000000e+00 -8.12100086e-03
  0.00000000e+00  0.00000000e+00  2.16897625e-03 -1.06083702e-02  7.39008701e-01
 -7.70579512e-01  5.01654655e-01  0.00000000e+00 -4.39900106e-02  0.00000000e+00
  0.00000000e+00  3.90202657e-02 -8.99783550e-02 -1.81705912e-03  2.40685024e-01
  3.22436323e+00  5.60430270e-04  6.42832825e-05  0.00000000e+00  2.13164488e-01
  1.31439463e-01  0.00000000e+00 -8.12099707e-03  0.00000000e+00  0.00000000e+00
  3.16096023e-03  1.03561666e-02  7.39008756e-01  7.93428799e-01  4.64673138e-01
  0.00000000e+00 -4.39900238e-02  0.00000000e+00  0.00000000e+00  4.73419718e-02
  8.58919407e-02  0.00000000e+00  0.00000000e+00  0.00000000e+00  0.00000000e+00
  0.00000000e+00  0.00000000e+00  8.80423561e-02  0.00000000e+00  0.00000000e+00
  8.05489119e-02  0.00000000e+00  0.00000000e+00 -3.02557914e-02  0.00000000e+00
  4.57877754e-05  1.93642087e-03  0.00000000e+00  0.00000000e+00  0.00000000e+00
 -6.70635703e-04 -2.83622426e-02  0.00000000e+00  0.00000000e+00 -4.55883043e-03
  0.00000000e+00  0.00000000e+00  6.44359731e-04 -3.04901124e-05  0.00000000e+00
  0.00000000e+00  0.00000000e+00  0.00000000e+00  0.00000000e+00 -1.81342541e+00
  0.00000000e+00  4.79504575e-03  2.02790847e-01  0.00000000e+00  0.00000000e+00
  1.35673104e-02  0.00000000e+00  0.00000000e+00 -3.29107506e-04  1.55750500e-05
  0.00000000e+00  0.00000000e+00  0.00000000e+00  0.00000000e+00  0.00000000e+00
  0.00000000e+00  0.00000000e+00 -4.01715262e-04  0.00000000e+00  0.00000000e+00
  3.74275993e-02  0.00000000e+00  1.96635603e-03 -2.49957808e-03  0.00000000e+00
  0.00000000e+00  0.00000000e+00  0.00000000e+00  0.00000000e+00  5.55981398e-01
  0.00000000e+00 -6.64879164e-02  4.43420465e-02  0.00000000e+00  0.00000000e+00
  0.00000000e+00  0.00000000e+00  0.00000000e+00  0.00000000e+00  0.00000000e+00
 -4.01714299e-04  0.00000000e+00  0.00000000e+00  3.74275666e-02  0.00000000e+00
 -2.08229848e-03 -2.40384624e-03  0.00000000e+00  0.00000000e+00  0.00000000e+00
  0.00000000e+00  0.00000000e+00  5.55981195e-01  0.00000000e+00  6.85093874e-02
  4.11499703e-02  0.00000000e+00  0.00000000e+00  5.64296306e-03  1.44936071e-01
  5.69712508e-02 -1.59173132e+00 -4.39842053e-04 -1.85994918e-02  0.00000000e+00
  1.33470895e-03  5.64493654e-02  0.00000000e+00  1.33681289e-02  5.65342495e-01
  0.00000000e+00 -3.42703517e-03  0.00000000e+00  0.00000000e+00 -6.49482578e-04
  3.07344384e-05  7.15200811e-02  0.00000000e+00  0.00000000e+00 -2.08337663e-02
  9.85772944e-04  0.00000000e+00 -5.35615629e-05 -2.26523850e-03  0.00000000e+00
  0.00000000e+00  2.43492695e-04  3.42744878e-03 -3.88191466e+00 -2.21268063e-02
 -9.35819052e-01  0.00000000e+00  2.52095339e-02  0.00000000e+00  0.00000000e+00
 -1.51065508e-01  7.14787748e-03  0.00000000e+00 -1.98849634e-04 -8.40913552e-03
  0.00000000e+00  0.00000000e+00  2.25079684e-03  3.16826352e-02 -3.18037989e-02
  4.87338526e-01  1.12119562e+00 -1.21016130e-02  8.01860506e-03  0.00000000e+00
 -1.81429791e-01  1.85098279e-01  0.00000000e+00 -4.80024877e-03  0.00000000e+00
  0.00000000e+00 -8.35266641e-04 -1.40668890e-02  6.89076943e-01 -7.51789012e-01
  8.99238744e-01  0.00000000e+00 -6.73577229e-02  0.00000000e+00  0.00000000e+00
  6.67106444e-03 -1.07895262e-01 -3.18038222e-02  4.87338813e-01  1.12119799e+00
  1.24670861e-02  7.43766853e-03  0.00000000e+00  1.89975707e-01  1.76316349e-01
  0.00000000e+00 -4.80025224e-03  0.00000000e+00  0.00000000e+00  4.96708454e-04
  1.40829147e-02  6.89079009e-01  7.93451556e-01  8.62701561e-01  0.00000000e+00
 -6.73577460e-02  0.00000000e+00  0.00000000e+00  1.68290537e-02  1.06783359e-01
 -7.09979592e-09  3.12481237e-08  1.30407686e-08 -8.42588184e-07  9.54717733e-02
 -2.25746981e-03  0.00000000e+00  6.28674368e-03 -1.48607149e-04  0.00000000e+00
 -1.58611999e+00  3.75046659e-02  0.00000000e+00 -4.82504802e-10  0.00000000e+00
  0.00000000e+00 -2.01598968e-04 -4.26058204e-03  2.37907808e-08  0.00000000e+00
  0.00000000e+00  4.20596223e-03  8.88886776e-02  0.00000000e+00 -3.90806176e-04
  9.23952489e-06  0.00000000e+00  0.00000000e+00  2.92456606e-03 -2.07766077e-04
 -1.94339265e-06 -3.59350967e+00  8.49696421e-02  0.00000000e+00 -1.67793712e-09
  0.00000000e+00  0.00000000e+00  2.16605124e-02  4.57772959e-01  0.00000000e+00
  3.19139237e-02 -7.54616620e-04  0.00000000e+00  0.00000000e+00  7.53824614e-03
 -5.35528418e-04 -1.31529684e-03  8.84345322e-01  4.82201631e+00 -1.03125287e-02
  4.87654289e-03  0.00000000e+00 -2.40952302e-01  2.61074816e-01  0.00000000e+00
 -1.15506558e-02  0.00000000e+00  0.00000000e+00  4.00974533e-03 -1.69573619e-02
  3.31955518e+00 -1.09903512e+00  1.23584971e+00  0.00000000e+00 -1.87083067e-02
  0.00000000e+00  0.00000000e+00 -4.95843385e-02 -9.47915909e-02  1.31529331e-03
 -8.84344762e-01 -4.82201491e+00 -1.05314753e-02 -4.38366793e-03  0.00000000e+00
 -2.53022453e-01 -2.49394434e-01  0.00000000e+00  1.15506522e-02  0.00000000e+00
  0.00000000e+00 -5.59299855e-03 -1.65029755e-02 -3.31955463e+00 -1.15621815e+00
 -1.18252268e+00  0.00000000e+00  1.87082787e-02  0.00000000e+00  0.00000000e+00
  4.04122689e-02 -9.90499317e-02 -6.56392330e-09 -3.45055139e-09  2.51165406e-09
 -3.74354729e-07  6.77156577e-02 -1.60115846e-03  0.00000000e+00  3.60349599e-02
 -8.52036140e-04  0.00000000e+00  8.00552371e-01 -1.89294260e-02  0.00000000e+00
 -2.74827144e-10  0.00000000e+00  0.00000000e+00  1.76963535e-04  3.73991501e-03
  5.94742252e-09  0.00000000e+00  0.00000000e+00  8.59199371e-04  1.81583641e-02
  0.00000000e+00  6.18822993e-03 -1.46323183e-04  0.00000000e+00  0.00000000e+00
  6.60282349e-03 -4.69078861e-04 -1.65960014e-06  1.72365511e+00 -4.07564660e-02
  0.00000000e+00  1.03335037e-08  0.00000000e+00  0.00000000e+00 -3.20585127e-02
 -6.77520627e-01  0.00000000e+00 -3.93241719e-02  9.29835219e-04  0.00000000e+00
  0.00000000e+00 -4.41456396e-02  3.13620904e-03 -4.17368821e-02 -6.60596486e-01
 -7.16028419e-02 -2.42257679e-04  9.12048591e-03  0.00000000e+00  6.85126455e-03
  1.65574053e-02  0.00000000e+00  1.22492528e-03  0.00000000e+00  0.00000000e+00
 -2.65087409e-03 -1.94064784e-03 -9.25321158e-02 -1.23847248e+00  7.88570057e-01
  0.00000000e+00 -1.54583170e-01  0.00000000e+00  0.00000000e+00  2.68518531e-02
 -1.46901425e-01  4.17369026e-02  6.60596579e-01  7.16045234e-02 -6.73061414e-04
 -9.09884340e-03  0.00000000e+00  6.06114596e-03 -1.68625592e-02  0.00000000e+00
 -1.22492884e-03  0.00000000e+00  0.00000000e+00  2.45579067e-03 -2.18227264e-03
  9.25323661e-02 -1.27435937e+00 -7.29152541e-01  0.00000000e+00  1.54583118e-01
  0.00000000e+00  0.00000000e+00 -4.06028228e-02 -1.43709589e-01  1.05333914e-02
  1.48284099e-02  4.28718860e-03 -1.53918675e-01  4.16387886e-06  1.76442016e-04
  0.00000000e+00  2.82337663e-05  1.19415884e-03  0.00000000e+00 -1.86113167e-02
 -7.87097036e-01  0.00000000e+00 -4.27131655e-04  0.00000000e+00  0.00000000e+00
  7.49477397e-03 -3.54631981e-04 -6.73079614e-03  0.00000000e+00  0.00000000e+00
 -3.35024346e-02  1.58522572e-03  0.00000000e+00 -5.03069313e-05 -2.12748809e-03
  0.00000000e+00  0.00000000e+00 -4.43986855e-04 -6.24958867e-03 -2.65664293e+00
 -1.38469475e-02 -5.85605672e-01  0.00000000e+00  1.28834949e-01  0.00000000e+00
  0.00000000e+00 -8.14090257e-01  3.85205850e-02  0.00000000e+00  4.39105611e-04
  1.85702248e-02  0.00000000e+00  0.00000000e+00  4.69360194e-03  6.60678917e-02
  3.15528463e-02  1.28435561e-01  1.41108775e+00 -4.89054633e-03 -5.89219830e-03
  0.00000000e+00  1.82556634e-01  2.70154318e-01  0.00000000e+00  4.47905260e-03
  0.00000000e+00  0.00000000e+00 -6.75119726e-03 -9.10496535e-03  9.56484106e-02
  8.94070188e-01  1.05931935e+00  0.00000000e+00 -1.15321157e-02  0.00000000e+00
  0.00000000e+00 -2.91610159e-01 -1.20864465e-02  3.15528392e-02  1.28435549e-01
  1.41108805e+00  4.60659443e-03 -6.11675571e-03  0.00000000e+00 -1.69583820e-01
  2.78480792e-01  0.00000000e+00  4.47904894e-03  0.00000000e+00  0.00000000e+00
 -5.86130555e-03  9.70175616e-03  9.56485314e-02 -8.43002472e-01  1.10039354e+00
  0.00000000e+00 -1.15321424e-02  0.00000000e+00  0.00000000e+00 -2.89166046e-01
  3.95672935e-02  0.00000000e+00  0.00000000e+00  0.00000000e+00  0.00000000e+00
  0.00000000e+00  0.00000000e+00  3.56641532e-09  0.00000000e+00  0.00000000e+00
 -1.79298885e-08  0.00000000e+00  0.00000000e+00 -5.98205893e-08  0.00000000e+00
  5.07175289e-03 -1.19924594e-04  0.00000000e+00  0.00000000e+00  0.00000000e+00
 -1.01926011e-02  2.41023494e-04  0.00000000e+00  0.00000000e+00  2.12140852e-09
  0.00000000e+00  0.00000000e+00 -5.67440103e-04 -1.19922378e-02  0.00000000e+00
  0.00000000e+00  0.00000000e+00  0.00000000e+00  0.00000000e+00  1.26557075e-07
  0.00000000e+00 -6.86966297e-01  1.62435655e-02  0.00000000e+00  0.00000000e+00
 -4.01461428e-09  0.00000000e+00  0.00000000e+00  4.54839271e-03  9.61254259e-02
  0.00000000e+00  0.00000000e+00  0.00000000e+00  0.00000000e+00  0.00000000e+00
  0.00000000e+00  0.00000000e+00 -1.19691908e-03  0.00000000e+00  0.00000000e+00
  2.70801503e-01  0.00000000e+00 -4.17691466e-03  3.11191070e-03  0.00000000e+00
  0.00000000e+00  0.00000000e+00  0.00000000e+00  0.00000000e+00  1.77779429e+00
  0.00000000e+00 -2.41160322e-01  2.26368299e-01  0.00000000e+00  0.00000000e+00
  0.00000000e+00  0.00000000e+00  0.00000000e+00  0.00000000e+00  0.00000000e+00
  1.19691630e-03  0.00000000e+00  0.00000000e+00 -2.70801438e-01  0.00000000e+00
 -4.31932608e-03 -2.91101147e-03  0.00000000e+00  0.00000000e+00  0.00000000e+00
  0.00000000e+00  0.00000000e+00 -1.77779446e+00  0.00000000e+00 -2.51590000e-01
 -2.14717015e-01  0.00000000e+00  0.00000000e+00  0.00000000e+00  0.00000000e+00
  0.00000000e+00  0.00000000e+00  0.00000000e+00  0.00000000e+00  8.51244959e-02
  0.00000000e+00  0.00000000e+00  4.92669437e-02  0.00000000e+00  0.00000000e+00
  1.90414442e+00  0.00000000e+00  1.45819756e-04  6.16705562e-03  0.00000000e+00
  0.00000000e+00  0.00000000e+00 -7.17801557e-04 -3.03583166e-02  0.00000000e+00
  0.00000000e+00  1.01414474e-02  0.00000000e+00  0.00000000e+00 -6.13259490e-04
  2.90177296e-05  0.00000000e+00  0.00000000e+00  0.00000000e+00  0.00000000e+00
  0.00000000e+00  1.91272618e+00  0.00000000e+00 -1.33764560e-02 -5.65715493e-01
  0.00000000e+00  0.00000000e+00 -9.49675797e-02  0.00000000e+00  0.00000000e+00
  1.87049466e-02 -8.85093830e-04  0.00000000e+00  0.00000000e+00  0.00000000e+00
  0.00000000e+00  0.00000000e+00  0.00000000e+00  0.00000000e+00  6.79196967e-03
  0.00000000e+00  0.00000000e+00 -3.27290662e-01  0.00000000e+00  7.25869275e-03
 -5.75078948e-03  0.00000000e+00  0.00000000e+00  0.00000000e+00  0.00000000e+00