
    -----------------------------------------------------------------------
          Psi4: An Open-Source Ab Initio Electronic Structure Package
                               Psi4 1.3.2 release

                         Git: Rev {HEAD} ecbda83 


    R. M. Parrish, L. A. Burns, D. G. A. Smith, A. C. Simmonett,
    A. E. DePrince III, E. G. Hohenstein, U. Bozkaya, A. Yu. Sokolov,
    R. Di Remigio, R. M. Richard, J. F. Gonthier, A. M. James,
    H. R. McAlexander, A. Kumar, M. Saitow, X. Wang, B. P. Pritchard,
    P. Verma, H. F. Schaefer III, K. Patkowski, R. A. King, E. F. Valeev,
    F. A. Evangelista, J. M. Turney, T. D. Crawford, and C. D. Sherrill,
    J. Chem. Theory Comput. 13(7) pp 3185--3197 (2017).
    (doi: 10.1021/acs.jctc.7b00174)


                         Additional Contributions by
    P. Kraus, H. Kruse, M. H. Lechner, M. C. Schieber, R. A. Shaw,
    A. Alenaizan, R. Galvelis, Z. L. Glick, S. Lehtola, and J. P. Misiewicz

    -----------------------------------------------------------------------


    Psi4 started on: Thursday, 04 November 2021 08:48PM

    Process ID: 67485
    Host:       node44.bme.utexas.edu
    PSIDATADIR: /home/bdw2292/miniconda3/envs/amoebamdpoltype/share/psi4
    Memory:     500.0 MiB
    Threads:    1
    
  ==> Input File <==

--------------------------------------------------------------------------
molecule { 
0 1
 C    2.025900   -0.304000    0.109100
 C    0.588300   -0.062000    0.067600
 C   -1.562000   -0.272400   -0.975800
 C   -2.189200    0.431900    0.032300
 C   -0.191000   -0.523700   -0.971300
 C   -1.394700    0.887000    1.064700
 C   -0.023400    0.642700    1.081200
 O    2.693200   -1.006200   -0.882800
 O    2.704000    0.133100    1.073600
 H    0.293100   -1.081400   -1.773600
 H   -1.823800    1.445400    1.885600
 H    0.605400    0.998600    1.891100
 H   -2.158000   -0.649500   -1.811500
 H   -3.255400    0.622200    0.019900
 H    3.687700   -1.261800   -0.810100
}
set {
  geom_maxiter 400
  g_convergence GAU
  dynamic_level 1
}
memory 8.333333333333334GB
set_num_threads(1)
psi4_io.set_default_path("/scratch/bdw2292/Psi4-34_Index_0-farH_in17")
for _ in range(1):
  try:
    set opt_coordinates both
    optimize('mp2/6-31G*')
    break
  except OptimizationConvergenceError:
    break
  else:
    try:
      set opt_coordinates cartesian
      optimize('mp2/6-31G*')
      break
    except OptimizationConvergenceError:
      pass
clean()
--------------------------------------------------------------------------

  Memory set to   7.761 GiB by Python driver.
  Threads set to 1 by Python driver.
gradient() will perform analytic gradient computation.
    SCF Algorithm Type (re)set to DF.

*** tstart() called on node44.bme.utexas.edu
*** at Thu Nov  4 20:48:09 2021

   => Loading Basis Set <=

    Name: 6-31G*
    Role: ORBITAL
    Keyword: BASIS
    atoms 1-7   entry C          line   111 file /home/bdw2292/miniconda3/envs/amoebamdpoltype/share/psi4/basis/6-31gs.gbs 
    atoms 8-9   entry O          line   145 file /home/bdw2292/miniconda3/envs/amoebamdpoltype/share/psi4/basis/6-31gs.gbs 
    atoms 10-15 entry H          line    44 file /home/bdw2292/miniconda3/envs/amoebamdpoltype/share/psi4/basis/6-31gs.gbs 


         ---------------------------------------------------------
                                   SCF
               by Justin Turney, Rob Parrish, Andy Simmonett
                          and Daniel G. A. Smith
                              RHF Reference
                        1 Threads,   7947 MiB Core
         ---------------------------------------------------------

  ==> Geometry <==

    Molecular point group: c1
    Full point group: C1

    Geometry (in Angstrom), charge = 0, multiplicity = 1:

       Center              X                  Y                   Z               Mass       
    ------------   -----------------  -----------------  -----------------  -----------------
         C            1.610428457240    -0.268788608529     0.048936615820    12.000000000000
         C            0.172828457240    -0.026788608529     0.007436615820    12.000000000000
         C           -1.977471542760    -0.237188608529    -1.035963384180    12.000000000000
         C           -2.604671542760     0.467111391471    -0.027863384180    12.000000000000
         C           -0.606471542760    -0.488488608529    -1.031463384180    12.000000000000
         C           -1.810171542760     0.922211391471     1.004536615820    12.000000000000
         C           -0.438871542760     0.677911391471     1.021036615820    12.000000000000
         O            2.277728457240    -0.970988608529    -0.942963384180    15.994914619570
         O            2.288528457240     0.168311391471     1.013436615820    15.994914619570
         H           -0.122371542760    -1.046188608529    -1.833763384180     1.007825032230
         H           -2.239271542760     1.480611391471     1.825436615820     1.007825032230
         H            0.189928457240     1.033811391471     1.830936615820     1.007825032230
         H           -2.573471542760    -0.614288608529    -1.871663384180     1.007825032230
         H           -3.670871542760     0.657411391471    -0.040263384180     1.007825032230
         H            3.272228457240    -1.226588608529    -0.870263384180     1.007825032230

  Running in c1 symmetry.

  Rotational constants: A =      0.13288  B =      0.03992  C =      0.03070 [cm^-1]
  Rotational constants: A =   3983.68166  B =   1196.73754  C =    920.30753 [MHz]
  Nuclear repulsion =  403.557024023413703

  Charge       = 0
  Multiplicity = 1
  Electrons    = 64
  Nalpha       = 32
  Nbeta        = 32

  ==> Algorithm <==

  SCF Algorithm Type is DF.
  DIIS enabled.
  MOM disabled.
  Fractional occupation disabled.
  Guess Type is SAD.
  Energy threshold   = 1.00e-10
  Density threshold  = 1.00e-10
  Integral threshold = 0.00e+00

  ==> Primary Basis <==

  Basis Set: 6-31G*
    Blend: 6-31G*
    Number of shells: 66
    Number of basis function: 147
    Number of Cartesian functions: 147
    Spherical Harmonics?: false
    Max angular momentum: 2

   => Loading Basis Set <=

    Name: (6-31G* AUX)
    Role: JKFIT
    Keyword: DF_BASIS_SCF
    atoms 1-7   entry C          line   121 file /home/bdw2292/miniconda3/envs/amoebamdpoltype/share/psi4/basis/cc-pvdz-jkfit.gbs 
    atoms 8-9   entry O          line   221 file /home/bdw2292/miniconda3/envs/amoebamdpoltype/share/psi4/basis/cc-pvdz-jkfit.gbs 
    atoms 10-15 entry H          line    51 file /home/bdw2292/miniconda3/envs/amoebamdpoltype/share/psi4/basis/cc-pvdz-jkfit.gbs 

  ==> Pre-Iterations <==

   -------------------------------------------------------
    Irrep   Nso     Nmo     Nalpha   Nbeta   Ndocc  Nsocc
   -------------------------------------------------------
     A        147     147       0       0       0       0
   -------------------------------------------------------
    Total     147     147      32      32      32       0
   -------------------------------------------------------

  ==> Integral Setup <==

  DFHelper Memory: AOs need 0.144 GiB; user supplied 5.821 GiB. Using in-core AOs.

  ==> MemDFJK: Density-Fitted J/K Matrices <==

    J tasked:                   Yes
    K tasked:                   Yes
    wK tasked:                   No
    OpenMP threads:               1
    Memory [MiB]:              5960
    Algorithm:                 Core
    Schwarz Cutoff:           1E-12
    Mask sparsity (%):       6.0530
    Fitting Condition:        1E-10

   => Auxiliary Basis Set <=

  Basis Set: (6-31G* AUX)
    Blend: CC-PVDZ-JKFIT
    Number of shells: 270
    Number of basis function: 879
    Number of Cartesian functions: 879
    Spherical Harmonics?: false
    Max angular momentum: 3

  Minimum eigenvalue in the overlap matrix is 4.2916296837E-04.
  Using Symmetric Orthogonalization.

  SCF Guess: Superposition of Atomic Densities via on-the-fly atomic UHF.

  ==> Iterations <==

                           Total Energy        Delta E     RMS |[F,P]|

   @DF-RHF iter SAD:  -417.15847740257311   -4.17158e+02   0.00000e+00 
   @DF-RHF iter   1:  -418.09269176162331   -9.34214e-01   4.26449e-03 DIIS
   @DF-RHF iter   2:  -418.22637814135101   -1.33686e-01   2.81729e-03 DIIS
   @DF-RHF iter   3:  -418.28774447832490   -6.13663e-02   4.95689e-04 DIIS
   @DF-RHF iter   4:  -418.29077133537129   -3.02686e-03   2.15733e-04 DIIS
   @DF-RHF iter   5:  -418.29133091523897   -5.59580e-04   4.42894e-05 DIIS
   @DF-RHF iter   6:  -418.29137842957164   -4.75143e-05   2.10554e-05 DIIS
   @DF-RHF iter   7:  -418.29139142428039   -1.29947e-05   8.38848e-06 DIIS
   @DF-RHF iter   8:  -418.29139392856791   -2.50429e-06   3.08902e-06 DIIS
   @DF-RHF iter   9:  -418.29139422101525   -2.92447e-07   9.94181e-07 DIIS
   @DF-RHF iter  10:  -418.29139424808864   -2.70734e-08   4.10920e-07 DIIS
   @DF-RHF iter  11:  -418.29139425225947   -4.17083e-09   1.31395e-07 DIIS
   @DF-RHF iter  12:  -418.29139425270404   -4.44572e-10   3.71406e-08 DIIS
   @DF-RHF iter  13:  -418.29139425275542   -5.13865e-11   1.62429e-08 DIIS
   @DF-RHF iter  14:  -418.29139425276924   -1.38130e-11   7.78157e-09 DIIS
   @DF-RHF iter  15:  -418.29139425277083   -1.59162e-12   3.72208e-09 DIIS
   @DF-RHF iter  16:  -418.29139425277464   -3.80851e-12   1.62373e-09 DIIS
   @DF-RHF iter  17:  -418.29139425277288    1.76215e-12   5.75317e-10 DIIS
   @DF-RHF iter  18:  -418.29139425277396   -1.08002e-12   1.93062e-10 DIIS
   @DF-RHF iter  19:  -418.29139425277447   -5.11591e-13   8.80490e-11 DIIS
  Energy and wave function converged.


  ==> Post-Iterations <==

    Orbital Energies [Eh]
    ---------------------

    Doubly Occupied:                                                      

       1A    -20.613931     2A    -20.541284     3A    -11.398956  
       4A    -11.255593     5A    -11.254396     6A    -11.253989  
       7A    -11.250042     8A    -11.245882     9A    -11.244221  
      10A     -1.421722    11A     -1.319337    12A     -1.175289  
      13A     -1.057427    14A     -1.024897    15A     -0.897582  
      16A     -0.843946    17A     -0.801195    18A     -0.732875  
      19A     -0.687397    20A     -0.660551    21A     -0.635926  
      22A     -0.622002    23A     -0.608728    24A     -0.591411  
      25A     -0.561129    26A     -0.523955    27A     -0.518876  
      28A     -0.498372    29A     -0.459910    30A     -0.439432  
      31A     -0.356438    32A     -0.343111  

    Virtual:                                                              

      33A      0.084441    34A      0.134756    35A      0.193998  
      36A      0.233440    37A      0.235149    38A      0.287722  
      39A      0.304005    40A      0.325117    41A      0.341300  
      42A      0.381184    43A      0.418719    44A      0.450175  
      45A      0.462562    46A      0.478385    47A      0.484966  
      48A      0.532401    49A      0.585805    50A      0.688291  
      51A      0.725408    52A      0.729177    53A      0.762370  
      54A      0.767880    55A      0.783304    56A      0.799768  
      57A      0.811068    58A      0.814844    59A      0.829317  
      60A      0.830210    61A      0.841106    62A      0.866555  
      63A      0.895442    64A      0.932945    65A      0.945161  
      66A      0.988450    67A      1.010508    68A      1.060360  
      69A      1.083115    70A      1.089069    71A      1.097359  
      72A      1.111741    73A      1.113966    74A      1.138061  
      75A      1.185803    76A      1.197441    77A      1.217356  
      78A      1.232057    79A      1.244207    80A      1.298298  
      81A      1.317968    82A      1.335631    83A      1.357590  
      84A      1.397480    85A      1.446084    86A      1.493329  
      87A      1.531794    88A      1.541740    89A      1.553193  
      90A      1.635804    91A      1.671561    92A      1.691310  
      93A      1.695602    94A      1.731245    95A      1.749069  
      96A      1.761825    97A      1.789662    98A      1.797412  
      99A      1.968017   100A      1.995885   101A      2.001127  
     102A      2.067230   103A      2.095631   104A      2.115227  
     105A      2.154288   106A      2.180788   107A      2.187657  
     108A      2.235275   109A      2.279532   110A      2.307035  
     111A      2.336680   112A      2.377514   113A      2.395144  
     114A      2.438468   115A      2.460556   116A      2.472515  
     117A      2.476820   118A      2.560285   119A      2.593614  
     120A      2.604905   121A      2.629955   122A      2.640738  
     123A      2.787134   124A      2.835883   125A      2.908572  
     126A      2.911957   127A      2.924545   128A      3.022689  
     129A      3.035801   130A      3.072889   131A      3.098271  
     132A      3.114440   133A      3.160431   134A      3.262377  
     135A      3.327033   136A      3.402131   137A      3.579308  
     138A      3.831850   139A      4.280488   140A      4.504841  
     141A      4.514829   142A      4.527668   143A      4.621474  
     144A      4.713404   145A      4.771651   146A      4.849368  
     147A      5.147974  

    Final Occupation by Irrep:
              A 
    DOCC [    32 ]

  @DF-RHF Final Energy:  -418.29139425277447

   => Energetics <=

    Nuclear Repulsion Energy =            403.5570240234137032
    One-Electron Energy =               -1370.0172333693244582
    Two-Electron Energy =                 548.1688150931362316
    Total Energy =                       -418.2913942527744666

Computation Completed


Properties will be evaluated at   0.000000,   0.000000,   0.000000 [a0]

Properties computed using the SCF density matrix

  Nuclear Dipole Moment: [e a0]
     X:    -4.8002      Y:     0.2631      Z:    -0.8992

  Electronic Dipole Moment: [e a0]
     X:     4.0619      Y:    -0.5677      Z:     0.2953

  Dipole Moment: [e a0]
     X:    -0.7384      Y:    -0.3046      Z:    -0.6039     Total:     1.0013

  Dipole Moment: [D]
     X:    -1.8767      Y:    -0.7741      Z:    -1.5351     Total:     2.5452


*** tstop() called on node44.bme.utexas.edu at Thu Nov  4 20:48:17 2021
Module time:
	user time   =       7.07 seconds =       0.12 minutes
	system time =       0.21 seconds =       0.00 minutes
	total time  =          8 seconds =       0.13 minutes
Total time:
	user time   =       7.07 seconds =       0.12 minutes
	system time =       0.21 seconds =       0.00 minutes
	total time  =          8 seconds =       0.13 minutes

*** tstart() called on node44.bme.utexas.edu
*** at Thu Nov  4 20:48:17 2021


  //>>>>>>>>>>>>>>>>>>>>>>>>>>>>>>>>>>>//
  //               DFMP2               //
  //<<<<<<<<<<<<<<<<<<<<<<<<<<<<<<<<<<<//

   => Loading Basis Set <=

    Name: (6-31G* AUX)
    Role: RIFIT
    Keyword: DF_BASIS_MP2
    atoms 1-7   entry C          line   159 file /home/bdw2292/miniconda3/envs/amoebamdpoltype/share/psi4/basis/cc-pvdz-ri.gbs 
    atoms 8-9   entry O          line   235 file /home/bdw2292/miniconda3/envs/amoebamdpoltype/share/psi4/basis/cc-pvdz-ri.gbs 
    atoms 10-15 entry H          line    19 file /home/bdw2292/miniconda3/envs/amoebamdpoltype/share/psi4/basis/cc-pvdz-ri.gbs 

	 --------------------------------------------------------
	                          DF-MP2                         
	      2nd-Order Density-Fitted Moller-Plesset Theory     
	              RMP2 Wavefunction,   1 Threads             
	                                                         
	        Rob Parrish, Justin Turney, Andy Simmonett,      
	           Ed Hohenstein, and C. David Sherrill          
	 --------------------------------------------------------

   => Auxiliary Basis Set <=

  Basis Set: (6-31G* AUX)
    Blend: CC-PVDZ-RI
    Number of shells: 198
    Number of basis function: 588
    Number of Cartesian functions: 684
    Spherical Harmonics?: true
    Max angular momentum: 3

	 --------------------------------------------------------
	                 NBF =   147, NAUX =   588
	 --------------------------------------------------------
	   CLASS    FOCC     OCC    AOCC    AVIR     VIR    FVIR
	   PAIRS       0      32      32     115     115       0
	 --------------------------------------------------------

  DFHelper Memory: AOs need 0.144 GiB; user supplied 5.821 GiB. Using in-core AOs.


         ------------------------------------------------------------
                                     CPHF                           
                                  Rob Parrish                       
         ------------------------------------------------------------

  ==> Geometry <==

    Molecular point group: c1
    Full point group: C1

    Geometry (in Angstrom), charge = 0, multiplicity = 1:

       Center              X                  Y                   Z               Mass       
    ------------   -----------------  -----------------  -----------------  -----------------
         C            1.610428457240    -0.268788608529     0.048936615820    12.000000000000
         C            0.172828457240    -0.026788608529     0.007436615820    12.000000000000
         C           -1.977471542760    -0.237188608529    -1.035963384180    12.000000000000
         C           -2.604671542760     0.467111391471    -0.027863384180    12.000000000000
         C           -0.606471542760    -0.488488608529    -1.031463384180    12.000000000000
         C           -1.810171542760     0.922211391471     1.004536615820    12.000000000000
         C           -0.438871542760     0.677911391471     1.021036615820    12.000000000000
         O            2.277728457240    -0.970988608529    -0.942963384180    15.994914619570
         O            2.288528457240     0.168311391471     1.013436615820    15.994914619570
         H           -0.122371542760    -1.046188608529    -1.833763384180     1.007825032230
         H           -2.239271542760     1.480611391471     1.825436615820     1.007825032230
         H            0.189928457240     1.033811391471     1.830936615820     1.007825032230
         H           -2.573471542760    -0.614288608529    -1.871663384180     1.007825032230
         H           -3.670871542760     0.657411391471    -0.040263384180     1.007825032230
         H            3.272228457240    -1.226588608529    -0.870263384180     1.007825032230

  Nuclear repulsion =  403.557024023413703
  Reference energy  = -418.291394252774467

  ==> Basis Set <==

  Basis Set: 6-31G*
    Blend: 6-31G*
    Number of shells: 66
    Number of basis function: 147
    Number of Cartesian functions: 147
    Spherical Harmonics?: false
    Max angular momentum: 2

  ==> CGRSolver (by Rob Parrish) <==

   Number of roots    =         1
   Preconditioning    =    JACOBI
   Convergence cutoff =     1E-06
   Maximum iterations =       100

  ==> CPHFRHamiltonian (by Rob Parrish) <== 

  ==> MemDFJK: Density-Fitted J/K Matrices <==

    J tasked:                   Yes
    K tasked:                   Yes
    wK tasked:                   No
    OpenMP threads:               1
    Memory [MiB]:              5960
    Algorithm:                 Core
    Schwarz Cutoff:           1E-12
    Mask sparsity (%):       6.0530
    Fitting Condition:        1E-10

   => Auxiliary Basis Set <=

  Basis Set: (6-31G* AUX)
    Blend: CC-PVDZ-JKFIT
    Number of shells: 270
    Number of basis function: 879
    Number of Cartesian functions: 879
    Spherical Harmonics?: false
    Max angular momentum: 3

  ==> CPHF Iterations <==

  => Iterations <=

             Iter  Converged  Remaining    Residual
  CGR           1          0          1   1.444E-01
  CGR           2          0          1   5.010E-02
  CGR           3          0          1   2.459E-02
  CGR           4          0          1   1.128E-02
  CGR           5          0          1   4.665E-03
  CGR           6          0          1   1.580E-03
  CGR           7          0          1   5.170E-04
  CGR           8          0          1   1.664E-04
  CGR           9          0          1   5.744E-05
  CGR          10          0          1   2.479E-05
  CGR          11          0          1   7.301E-06
  CGR          12          0          1   3.058E-06
  CGR          13          0          1   1.222E-06
  CGR          14          1          0   3.015E-07

    CGRSolver converged.

  ==> DFCorrGrad: Density-Fitted Correlated Gradients <==

    OpenMP threads:              1
    Integrals threads:           1
    Memory [GiB]:            5.821
    Schwarz Cutoff:          0E+00
    Fitting Condition:       1E-10

   => Auxiliary Basis Set <=

  Basis Set: (6-31G* AUX)
    Blend: CC-PVDZ-JKFIT
    Number of shells: 270
    Number of basis function: 879
    Number of Cartesian functions: 879
    Spherical Harmonics?: false
    Max angular momentum: 3

	-----------------------------------------------------------
	 ==================> DF-MP2 Energies <==================== 
	-----------------------------------------------------------
	 Reference Energy          =    -418.2913942527744666 [Eh]
	 Singles Energy            =      -0.0000000000000000 [Eh]
	 Same-Spin Energy          =      -0.3480219547187775 [Eh]
	 Opposite-Spin Energy      =      -0.9314701210333846 [Eh]
	 Correlation Energy        =      -1.2794920757521622 [Eh]
	 Total Energy              =    -419.5708863285266261 [Eh]
	-----------------------------------------------------------
	 ================> DF-SCS-MP2 Energies <================== 
	-----------------------------------------------------------
	 SCS Same-Spin Scale       =       0.3333333333333333 [-]
	 SCS Opposite-Spin Scale   =       1.2000000000000000 [-]
	 SCS Same-Spin Energy      =      -0.1160073182395925 [Eh]
	 SCS Opposite-Spin Energy  =      -1.1177641452400615 [Eh]
	 SCS Correlation Energy    =      -1.2337714634796539 [Eh]
	 SCS Total Energy          =    -419.5251657162540937 [Eh]
	-----------------------------------------------------------


  -Total Gradient:
     Atom            X                  Y                   Z
    ------   -----------------  -----------------  -----------------
       1       -0.094664505044    -0.010802056233    -0.052551738493
       2        0.002301316201     0.012365204593     0.023689156793
       3        0.004617286446     0.013540885851     0.024655880387
       4       -0.001663773622     0.000013805084    -0.000482101047
       5        0.006395391883     0.008563830648     0.016575914107
       6       -0.009439824530    -0.006228106307    -0.013812049025
       7       -0.001182169556    -0.011657287812    -0.020131546597
       8        0.015641547881     0.011862695564     0.019433617299
       9        0.024801270064     0.013330033707     0.029294919466
      10        0.004785844366    -0.000979337241    -0.000197734226
      11        0.002075284930    -0.002044606517    -0.002874317528
      12        0.002179444743    -0.001442777510    -0.001703843246
      13       -0.002508333825    -0.000971287122    -0.002453621946
      14        0.001945423332     0.000260525602     0.001070705237
      15        0.044715796714    -0.025811522305    -0.020513241186


*** tstop() called on node44.bme.utexas.edu at Thu Nov  4 20:48:41 2021
Module time:
	user time   =      23.00 seconds =       0.38 minutes
	system time =       0.80 seconds =       0.01 minutes
	total time  =         24 seconds =       0.40 minutes
Total time:
	user time   =      30.07 seconds =       0.50 minutes
	system time =       1.01 seconds =       0.02 minutes
	total time  =         32 seconds =       0.53 minutes

			-----------------------------------------
			 OPTKING 2.0: for geometry optimizations 
			  - R.A. King,  Bethel University        
			-----------------------------------------
	At level 1: Red. Int., RFO, no backsteps, dynamic trust

	Internal coordinates to be generated automatically.
	Detected frag 1 with atoms:  1 2 3 4 5 6 7 8 9 10 11 12 13 14 15
	---Fragment 1 Bond Connectivity---
	 1 : 2 8 9
	 2 : 1 5 7
	 3 : 4 5 13
	 4 : 3 6 14
	 5 : 2 3 10
	 6 : 4 7 11
	 7 : 2 6 12
	 8 : 1 15
	 9 : 1
	 10 : 5
	 11 : 6
	 12 : 7
	 13 : 3
	 14 : 4
	 15 : 8

	---Fragment 1 Geometry and Gradient---
	 C           3.0432687288       -0.5079368558        0.0924768014
	 C           0.3265984509       -0.0506231334        0.0140531672
	 C          -3.7368796367       -0.4482215102       -1.9576870721
	 C          -4.9221158626        0.8827126000       -0.0526541650
	 C          -1.1460651187       -0.9231096855       -1.9491833045
	 C          -3.4207284559        1.7427269597        1.8982990869
	 C          -0.8293470201        1.2810668672        1.9294795680
	 O           4.3042829723       -1.8349025411       -1.7819425424
	 O           4.3246920145        0.3180624337        1.9151176494
	 H          -0.2312487014       -1.9770099457       -3.4653105750
	 H          -4.2316099363        2.7979500281        3.4495752633
	 H           0.3589127676        1.9536203953        3.4599687570
	 H          -4.8631564075       -1.1608372321       -3.5369311951
	 H          -6.9369418576        1.2423274816       -0.0760867690
	 H           6.1836156041       -2.3179165387       -1.6445594531
	            -0.0946645050       -0.0108020562       -0.0525517385
	             0.0023013162        0.0123652046        0.0236891568
	             0.0046172864        0.0135408859        0.0246558804
	            -0.0016637736        0.0000138051       -0.0004821010
	             0.0063953919        0.0085638306        0.0165759141
	            -0.0094398245       -0.0062281063       -0.0138120490
	            -0.0011821696       -0.0116572878       -0.0201315466
	             0.0156415479        0.0118626956        0.0194336173
	             0.0248012701        0.0133300337        0.0292949195
	             0.0047858444       -0.0009793372       -0.0001977342
	             0.0020752849       -0.0020446065       -0.0028743175
	             0.0021794447       -0.0014427775       -0.0017038432
	            -0.0025083338       -0.0009712871       -0.0024536219
	             0.0019454233        0.0002605256        0.0010707052
	             0.0447157967       -0.0258115223       -0.0205132412

	Previous optimization step data not found.  Starting new optimization.

	---Fragment 1 Intrafragment Coordinates---
	 - Coordinate -           - BOHR/RAD -       - ANG/DEG -
	 R(1,2)           =         2.756009	       1.458417
	 R(1,8)           =         2.620008	       1.386449
	 R(1,9)           =         2.376203	       1.257432
	 R(2,5)           =         2.604663	       1.378328
	 R(2,7)           =         2.603549	       1.377739
	 R(3,4)           =         2.608701	       1.380465
	 R(3,5)           =         2.633991	       1.393848
	 R(3,13)          =         2.066478	       1.093533
	 R(4,6)           =         2.607682	       1.379926
	 R(4,14)          =         2.046801	       1.083121
	 R(5,10)          =         2.060640	       1.090444
	 R(6,7)           =         2.632368	       1.392989
	 R(6,11)          =         2.043889	       1.081579
	 R(7,12)          =         2.051021	       1.085354
	 R(8,15)          =         1.945268	       1.029392
	 B(1,2,5)         =         2.121386	     121.546475
	 B(1,2,7)         =         2.096232	     120.105228
	 B(1,8,15)        =         2.141495	     122.698612
	 B(2,1,8)         =         2.138995	     122.555399
	 B(2,1,9)         =         2.089462	     119.717371
	 B(2,5,3)         =         2.092281	     119.878855
	 B(2,5,10)        =         2.065625	     118.351576
	 B(2,7,6)         =         2.115384	     121.202568
	 B(2,7,12)        =         2.048209	     117.353754
	 B(3,4,6)         =         2.040948	     116.937715
	 B(3,4,14)        =         2.127653	     121.905510
	 B(3,5,10)        =         2.125280	     121.769569
	 B(4,3,5)         =         2.137102	     122.446898
	 B(4,3,13)        =         2.078752	     119.103699
	 B(4,6,7)         =         2.115089	     121.185667
	 B(4,6,11)        =         2.105615	     120.642864
	 B(5,2,7)         =         2.065567	     118.348296
	 B(5,3,13)        =         2.067332	     118.449402
	 B(6,4,14)        =         2.114585	     121.156774
	 B(6,7,12)        =         2.119592	     121.443676
	 B(7,6,11)        =         2.062481	     118.171469
	 B(8,1,9)         =         2.054728	     117.727230
	 D(1,2,5,3)       =        -3.141557	    -179.997979
	 D(1,2,5,10)      =         0.000055	       0.003179
	 D(1,2,7,6)       =         3.141593	     180.000000
	 D(1,2,7,12)      =        -0.000201	      -0.011520
	 D(2,1,8,15)      =        -3.029256	    -173.563588
	 D(2,5,3,4)       =         0.000049	       0.002807
	 D(2,5,3,13)      =         3.141593	     180.000000
	 D(2,7,6,4)       =        -0.000130	      -0.007430
	 D(2,7,6,11)      =         3.141550	     179.997535
	 D(3,4,6,7)       =         0.000081	       0.004657
	 D(3,4,6,11)      =         3.141593	     180.000000
	 D(3,5,2,7)       =        -0.000091	      -0.005212
	 D(4,3,5,10)      =        -3.141565	    -179.998392
	 D(4,6,7,12)      =        -3.141506	    -179.995018
	 D(5,2,1,8)       =        -0.000030	      -0.001742
	 D(5,2,1,9)       =         3.141547	     179.997360
	 D(5,2,7,6)       =         0.000131	       0.007527
	 D(5,2,7,12)      =         3.141516	     179.995604
	 D(5,3,4,6)       =        -0.000042	      -0.002434
	 D(5,3,4,14)      =         3.141536	     179.996732
	 D(6,4,3,13)      =        -3.141573	    -179.998897
	 D(7,2,1,8)       =        -3.141495	    -179.994385
	 D(7,2,1,9)       =         0.000082	       0.004717
	 D(7,2,5,10)      =         3.141522	     179.995947
	 D(7,6,4,14)      =        -3.141497	    -179.994516
	 D(9,1,8,15)      =         0.112352	       6.437292
	 D(10,5,3,13)     =        -0.000033	      -0.001906
	 D(11,6,4,14)     =         0.000000	       0.000000
	 D(11,6,7,12)     =         0.000174	       0.009947
	 D(13,3,4,14)     =         0.000000	       0.000000

	Current energy   :      -419.5708863285

	Generating empirical Hessian (Schlegel '84) for each fragment.
	Taking RFO optimization step.
	Going to follow RFO solution 1.
	Using RFO vector 1.
	Norm of target step-size    0.38530
	Projected energy change by RFO approximation:        -0.0349034764

	Back-transformation to cartesian coordinates...
	Could not converge backtransformation.
	Using first guess instead.

	--- Internal Coordinate Step in ANG or DEG, aJ/ANG or AJ/DEG ---
	 ---------------------------------------------------------------------------
	   Coordinate                Previous        Force       Change         New 
	   ----------                --------       ------       ------       ------
	    1 R(1,2)          =      1.458417     0.067291     0.010617     1.469034
	    2 R(1,8)          =      1.386449    -0.303903    -0.021346     1.365103
	    3 R(1,9)          =      1.257432    -0.333493    -0.023423     1.234009
	    4 R(2,5)          =      1.378328     0.201831     0.024842     1.403171
	    5 R(2,7)          =      1.377739     0.167210     0.020500     1.398239
	    6 R(3,4)          =      1.380465     0.128096     0.015332     1.395797
	    7 R(3,5)          =      1.393848    -0.023534    -0.002811     1.391037
	    8 R(3,13)         =      1.093533    -0.029471    -0.004903     1.088630
	    9 R(4,6)          =      1.379926     0.160159     0.019375     1.399301
	   10 R(4,14)         =      1.083121     0.015501     0.002550     1.085671
	   11 R(5,10)         =      1.090444    -0.022830    -0.003759     1.086684
	   12 R(6,7)          =      1.392989    -0.023263    -0.002760     1.390229
	   13 R(6,11)         =      1.081579     0.033453     0.005668     1.087247
	   14 R(7,12)         =      1.085354     0.003970     0.000800     1.086154
	   15 R(8,15)         =      1.029392    -0.396781    -0.046674     0.982718
	   16 B(1,2,5)        =    121.546475    -0.000069    -0.259428   121.287048
	   17 B(1,2,7)        =    120.105228    -0.000584    -1.584800   118.520428
	   18 B(1,8,15)       =    122.698612    -0.004090   -15.779849   106.918763
	   19 B(2,1,8)        =    122.555399    -0.003683    -9.663020   112.892379
	   20 B(2,1,9)        =    119.717371     0.001529     3.997190   123.714561
	   21 B(2,5,3)        =    119.878855    -0.000128    -0.222033   119.656822
	   22 B(2,5,10)       =    118.351576     0.000380     1.280132   119.631708
	   23 B(2,7,6)        =    121.202568    -0.000609    -1.616316   119.586253
	   24 B(2,7,12)       =    117.353754     0.000545     1.698203   119.051957
	   25 B(3,4,6)        =    116.937715     0.000959     2.581852   119.519567
	   26 B(3,4,14)       =    121.905510    -0.000574    -1.644634   120.260877
	   27 B(3,5,10)       =    121.769569    -0.000252    -1.058101   120.711468
	   28 B(4,3,5)        =    122.446898    -0.000680    -1.995599   120.451299
	   29 B(4,3,13)       =    119.103699     0.000393     1.189922   120.293621
	   30 B(4,6,7)        =    121.185667    -0.000196    -0.592136   120.593531
	   31 B(4,6,11)       =    120.642864     0.000058     0.145311   120.788175
	   32 B(5,2,7)        =    118.348296     0.000652     1.844225   120.192521
	   33 B(5,3,13)       =    118.449402     0.000286     0.805677   119.255079
	   34 B(6,4,14)       =    121.156774    -0.000386    -0.937219   120.219556
	   35 B(6,7,12)       =    121.443676     0.000064    -0.081891   121.361785
	   36 B(7,6,11)       =    118.171469     0.000138     0.446824   118.618292
	   37 B(8,1,9)        =    117.727230     0.002154     5.665579   123.392809
	   38 D(1,2,5,3)      =   -179.997979    -0.000001    -0.034191  -180.032171
	   39 D(1,2,5,10)     =      0.003179    -0.000000    -0.016938    -0.013759
	   40 D(1,2,7,6)      =    180.000000     0.000001     0.050027   180.050027
	   41 D(1,2,7,12)     =     -0.011520     0.000001     0.037150     0.025629
	   42 D(2,1,8,15)     =   -173.563588    -0.000028    -1.580611  -175.144199
	   43 D(2,5,3,4)      =      0.002807    -0.000000    -0.006888    -0.004081
	   44 D(2,5,3,13)     =    180.000000     0.000000     0.001669   180.001669
	   45 D(2,7,6,4)      =     -0.007430    -0.000000    -0.025641    -0.033071
	   46 D(2,7,6,11)     =    179.997535    -0.000000    -0.016469   179.981066
	   47 D(3,4,6,7)      =      0.004657     0.000000     0.013950     0.018607
	   48 D(3,4,6,11)     =    180.000000     0.000000     0.004161   180.004161
	   49 D(3,5,2,7)      =     -0.005212    -0.000000    -0.005302    -0.010514
	   50 D(4,3,5,10)     =   -179.998392    -0.000000    -0.024304  -180.022695
	   51 D(4,6,7,12)     =   -179.995018    -0.000000    -0.013076  -180.008094
	   52 D(5,2,1,8)      =     -0.001742     0.000004     0.201436     0.199693
	   53 D(5,2,1,9)      =    179.997360     0.000001     0.024981   180.022341
	   54 D(5,2,7,6)      =      0.007527     0.000000     0.021436     0.028963
	   55 D(5,2,7,12)     =    179.995604     0.000000     0.008962   180.004566
	   56 D(5,3,4,6)      =     -0.002434     0.000000     0.002434     0.000000
	   57 D(5,3,4,14)     =    179.996732     0.000000     0.007248   180.003980
	   58 D(6,4,3,13)     =   -179.998897    -0.000000    -0.006768  -180.005665
	   59 D(7,2,1,8)      =   -179.994385     0.000003     0.172774  -179.821611
	   60 D(7,2,1,9)      =      0.004717     0.000000    -0.003680     0.001037
	   61 D(7,2,5,10)     =    179.995947     0.000000     0.011951   180.007898
	   62 D(7,6,4,14)     =   -179.994516     0.000000     0.009289  -179.985227
	   63 D(9,1,8,15)     =      6.437292    -0.000025    -1.404799     5.032494
	   64 D(10,5,3,13)    =     -0.001906    -0.000000    -0.015039    -0.016946
	   65 D(11,6,4,14)    =      0.000000     0.000000     0.000000     0.000000
	   66 D(11,6,7,12)    =      0.009947    -0.000000    -0.003905     0.006043
	   67 D(13,3,4,14)    =      0.000000    -0.000000    -0.001830    -0.001830
	 ---------------------------------------------------------------------------
	Successfully symmetrized geometry.

  ==> Convergence Check <==

  Measures of convergence in internal coordinates in au.
  Criteria marked as inactive (o), active & met (*), and active & unmet ( ).
  --------------------------------------------------------------------------------------------- ~
   Step     Total Energy     Delta E     MAX Force     RMS Force      MAX Disp      RMS Disp    ~
  --------------------------------------------------------------------------------------------- ~
    Convergence Criteria             o    4.50e-04 *    3.00e-04 *    1.80e-03 *    1.20e-03 *  ~
  --------------------------------------------------------------------------------------------- ~
      1    -419.57088633   -4.20e+02 o    5.38e-02      1.45e-02      2.75e-01      4.70e-02    ~
  ---------------------------------------------------------------------------------------------

	Writing optimization data to binary file.
	Structure for next step:
	Cartesian Geometry (in Angstrom)
	    C     1.6400141506  -0.2596965434   0.0818410084
	    C     0.1911646704  -0.0250296939   0.0199751323
	    C    -1.9496689098  -0.2646401345  -1.0731253038
	    C    -2.5599909303   0.4513059508  -0.0420205609
	    C    -0.5799211216  -0.5058902120  -1.0491776354
	    C    -1.7836028512   0.9271704495   1.0204380732
	    C    -0.4136734234   0.6931580841   1.0560493187
	    O     2.1094935453  -0.9671716750  -0.9870717075
	    O     2.3603344881   0.1418174319   0.9998298964
	    H    -0.1004564829  -1.0630977104  -1.8495003189
	    H    -2.2375958594   1.4870736154   1.8343821221
	    H     0.2008284463   1.0568320912   1.8744981910
	    H    -2.5416337488  -0.6407362381  -1.9057387034
	    H    -3.6293088626   0.6377601910  -0.0638070860
	    H     3.0620437724  -1.1407847367  -0.8190231852
			--------------------------
			 OPTKING Finished Execution 
			--------------------------

    Structure for next step:
    Molecular point group: c1
    Full point group: C1

    Geometry (in Angstrom), charge = 0, multiplicity = 1:

    C            1.633956942466    -0.254245308936     0.086467756357
    C            0.185107456542    -0.019578458481     0.024601880030
    C           -1.955726132108    -0.259188900026    -1.068498560372
    C           -2.566048154944     0.456757188103    -0.037393813369
    C           -0.585978338443    -0.500438978440    -1.044550891821
    C           -1.789660072844     0.932621688650     1.025064824880
    C           -0.419730639610     0.698609322363     1.060676070559
    O            2.103436338962    -0.961720443245    -0.982444963724
    O            2.354277282737     0.147268667959     1.004456647963
    H           -0.106513697859    -1.057646479085    -1.844873578470
    H           -2.243653082791     1.492524856757     1.839008876998
    H            0.194771232444     1.062283330866     1.879124945998
    H           -2.547690973391    -0.635285005101    -1.901111963267
    H           -3.635366091479     0.643211429016    -0.059180338625
    H            3.055986569854    -1.135333505662    -0.814396440777

gradient() will perform analytic gradient computation.
    SCF Algorithm Type (re)set to DF.

*** tstart() called on node44.bme.utexas.edu
*** at Thu Nov  4 20:48:41 2021

   => Loading Basis Set <=

    Name: 6-31G*
    Role: ORBITAL
    Keyword: BASIS
    atoms 1-7   entry C          line   111 file /home/bdw2292/miniconda3/envs/amoebamdpoltype/share/psi4/basis/6-31gs.gbs 
    atoms 8-9   entry O          line   145 file /home/bdw2292/miniconda3/envs/amoebamdpoltype/share/psi4/basis/6-31gs.gbs 
    atoms 10-15 entry H          line    44 file /home/bdw2292/miniconda3/envs/amoebamdpoltype/share/psi4/basis/6-31gs.gbs 


         ---------------------------------------------------------
                                   SCF
               by Justin Turney, Rob Parrish, Andy Simmonett
                          and Daniel G. A. Smith
                              RHF Reference
                        1 Threads,   7947 MiB Core
         ---------------------------------------------------------

  ==> Geometry <==

    Molecular point group: c1
    Full point group: C1

    Geometry (in Angstrom), charge = 0, multiplicity = 1:

       Center              X                  Y                   Z               Mass       
    ------------   -----------------  -----------------  -----------------  -----------------
         C            1.633956942466    -0.254245308936     0.086467756357    12.000000000000
         C            0.185107456542    -0.019578458481     0.024601880030    12.000000000000
         C           -1.955726132108    -0.259188900026    -1.068498560372    12.000000000000
         C           -2.566048154944     0.456757188103    -0.037393813369    12.000000000000
         C           -0.585978338443    -0.500438978440    -1.044550891821    12.000000000000
         C           -1.789660072844     0.932621688650     1.025064824880    12.000000000000
         C           -0.419730639610     0.698609322363     1.060676070559    12.000000000000
         O            2.103436338962    -0.961720443245    -0.982444963724    15.994914619570
         O            2.354277282737     0.147268667959     1.004456647963    15.994914619570
         H           -0.106513697859    -1.057646479085    -1.844873578470     1.007825032230
         H           -2.243653082791     1.492524856757     1.839008876998     1.007825032230
         H            0.194771232444     1.062283330866     1.879124945998     1.007825032230
         H           -2.547690973391    -0.635285005101    -1.901111963267     1.007825032230
         H           -3.635366091479     0.643211429016    -0.059180338625     1.007825032230
         H            3.055986569854    -1.135333505662    -0.814396440777     1.007825032230

  Running in c1 symmetry.

  Rotational constants: A =      0.12766  B =      0.04129  C =      0.03120 [cm^-1]
  Rotational constants: A =   3827.14429  B =   1237.84922  C =    935.34855 [MHz]
  Nuclear repulsion =  404.581029451219081

  Charge       = 0
  Multiplicity = 1
  Electrons    = 64
  Nalpha       = 32
  Nbeta        = 32

  ==> Algorithm <==

  SCF Algorithm Type is DF.
  DIIS enabled.
  MOM disabled.
  Fractional occupation disabled.
  Guess Type is READ.
  Energy threshold   = 1.00e-10
  Density threshold  = 1.00e-10
  Integral threshold = 0.00e+00

  ==> Primary Basis <==

  Basis Set: 6-31G*
    Blend: 6-31G*
    Number of shells: 66
    Number of basis function: 147
    Number of Cartesian functions: 147
    Spherical Harmonics?: false
    Max angular momentum: 2

   => Loading Basis Set <=

    Name: (6-31G* AUX)
    Role: JKFIT
    Keyword: DF_BASIS_SCF
    atoms 1-7   entry C          line   121 file /home/bdw2292/miniconda3/envs/amoebamdpoltype/share/psi4/basis/cc-pvdz-jkfit.gbs 
    atoms 8-9   entry O          line   221 file /home/bdw2292/miniconda3/envs/amoebamdpoltype/share/psi4/basis/cc-pvdz-jkfit.gbs 
    atoms 10-15 entry H          line    51 file /home/bdw2292/miniconda3/envs/amoebamdpoltype/share/psi4/basis/cc-pvdz-jkfit.gbs 

   => Loading Basis Set <=

    Name: 6-31G*
    Role: ORBITAL
    Keyword: BASIS
    atoms 1-7   entry C          line   111 file /home/bdw2292/miniconda3/envs/amoebamdpoltype/share/psi4/basis/6-31gs.gbs 
    atoms 8-9   entry O          line   145 file /home/bdw2292/miniconda3/envs/amoebamdpoltype/share/psi4/basis/6-31gs.gbs 
    atoms 10-15 entry H          line    44 file /home/bdw2292/miniconda3/envs/amoebamdpoltype/share/psi4/basis/6-31gs.gbs 

  Reading orbitals from file 180, no projection.

  ==> Pre-Iterations <==

   -------------------------------------------------------
    Irrep   Nso     Nmo     Nalpha   Nbeta   Ndocc  Nsocc
   -------------------------------------------------------
     A        147     147       0       0       0       0
   -------------------------------------------------------
    Total     147     147      32      32      32       0
   -------------------------------------------------------

  ==> Integral Setup <==

  DFHelper Memory: AOs need 0.144 GiB; user supplied 5.821 GiB. Using in-core AOs.

  ==> MemDFJK: Density-Fitted J/K Matrices <==

    J tasked:                   Yes
    K tasked:                   Yes
    wK tasked:                   No
    OpenMP threads:               1
    Memory [MiB]:              5960
    Algorithm:                 Core
    Schwarz Cutoff:           1E-12
    Mask sparsity (%):       5.5347
    Fitting Condition:        1E-10

   => Auxiliary Basis Set <=

  Basis Set: (6-31G* AUX)
    Blend: CC-PVDZ-JKFIT
    Number of shells: 270
    Number of basis function: 879
    Number of Cartesian functions: 879
    Spherical Harmonics?: false
    Max angular momentum: 3

  Minimum eigenvalue in the overlap matrix is 4.7285833441E-04.
  Using Symmetric Orthogonalization.

  SCF Guess: Orbitals guess was supplied from a previous computation.

  ==> Iterations <==

                           Total Energy        Delta E     RMS |[F,P]|

   @DF-RHF iter   0:  -418.33586981342216   -4.18336e+02   1.99540e-03 
   @DF-RHF iter   1:  -418.31557085177241    2.02990e-02   3.45767e-04 DIIS
   @DF-RHF iter   2:  -418.31677871026892   -1.20786e-03   2.11025e-04 DIIS
   @DF-RHF iter   3:  -418.31714744830822   -3.68738e-04   4.86736e-05 DIIS
   @DF-RHF iter   4:  -418.31718680724407   -3.93589e-05   2.11945e-05 DIIS
   @DF-RHF iter   5:  -418.31719229981701   -5.49257e-06   4.58025e-06 DIIS
   @DF-RHF iter   6:  -418.31719283125034   -5.31433e-07   2.06016e-06 DIIS
   @DF-RHF iter   7:  -418.31719294604852   -1.14798e-07   8.99720e-07 DIIS
   @DF-RHF iter   8:  -418.31719297374144   -2.76929e-08   3.55336e-07 DIIS
   @DF-RHF iter   9:  -418.31719298014735   -6.40591e-09   1.29713e-07 DIIS
   @DF-RHF iter  10:  -418.31719298100984   -8.62485e-10   5.97042e-08 DIIS
   @DF-RHF iter  11:  -418.31719298115172   -1.41881e-10   2.25781e-08 DIIS
   @DF-RHF iter  12:  -418.31719298117679   -2.50679e-11   8.78282e-09 DIIS
   @DF-RHF iter  13:  -418.31719298117883   -2.04636e-12   3.72940e-09 DIIS
   @DF-RHF iter  14:  -418.31719298117770    1.13687e-12   1.31805e-09 DIIS
   @DF-RHF iter  15:  -418.31719298117889   -1.19371e-12   5.23028e-10 DIIS
   @DF-RHF iter  16:  -418.31719298117918   -2.84217e-13   1.85402e-10 DIIS
   @DF-RHF iter  17:  -418.31719298118099   -1.81899e-12   7.66149e-11 DIIS
  Energy and wave function converged.


  ==> Post-Iterations <==

    Orbital Energies [Eh]
    ---------------------

    Doubly Occupied:                                                      

       1A    -20.622814     2A    -20.553024     3A    -11.395294  
       4A    -11.256843     5A    -11.255439     6A    -11.253396  
       7A    -11.252028     8A    -11.246651     9A    -11.245863  
      10A     -1.451580    11A     -1.346486    12A     -1.165238  
      13A     -1.046360    14A     -1.026307    15A     -0.897362  
      16A     -0.838608    17A     -0.796948    18A     -0.725109  
      19A     -0.697932    20A     -0.669749    21A     -0.634427  
      22A     -0.624455    23A     -0.619071    24A     -0.599643  
      25A     -0.577660    26A     -0.522609    27A     -0.512735  
      28A     -0.502182    29A     -0.474329    30A     -0.449385  
      31A     -0.348584    32A     -0.344730  

    Virtual:                                                              

      33A      0.085793    34A      0.135011    35A      0.219602  
      36A      0.235757    37A      0.238629    38A      0.286542  
      39A      0.302893    40A      0.324717    41A      0.339876  
      42A      0.375896    43A      0.432614    44A      0.452413  
      45A      0.460705    46A      0.473162    47A      0.479735  
      48A      0.539429    49A      0.573121    50A      0.688767  
      51A      0.727087    52A      0.728294    53A      0.757334  
      54A      0.767456    55A      0.778121    56A      0.800949  
      57A      0.808885    58A      0.816150    59A      0.826068  
      60A      0.831016    61A      0.843273    62A      0.866892  
      63A      0.895864    64A      0.934607    65A      0.940651  
      66A      0.973850    67A      1.007198    68A      1.055791  
      69A      1.080081    70A      1.092089    71A      1.097586  
      72A      1.102743    73A      1.113995    74A      1.149528  
      75A      1.179620    76A      1.196893    77A      1.209772  
      78A      1.221980    79A      1.239069    80A      1.288046  
      81A      1.324965    82A      1.336581    83A      1.342396  
      84A      1.401061    85A      1.433591    86A      1.495186  
      87A      1.527479    88A      1.549736    89A      1.568246  
      90A      1.613842    91A      1.661579    92A      1.694464  
      93A      1.701057    94A      1.711944    95A      1.753245  
      96A      1.755342    97A      1.777753    98A      1.779210  
      99A      1.975625   100A      1.986141   101A      2.038302  
     102A      2.051614   103A      2.074564   104A      2.123304  
     105A      2.148496   106A      2.163039   107A      2.198731  
     108A      2.205255   109A      2.239324   110A      2.296856  
     111A      2.324802   112A      2.367219   113A      2.383901  
     114A      2.448439   115A      2.456893   116A      2.460627  
     117A      2.469105   118A      2.580075   119A      2.603301  
     120A      2.623507   121A      2.626102   122A      2.703922  
     123A      2.801645   124A      2.816545   125A      2.917249  
     126A      2.934043   127A      2.942587   128A      3.009931  
     129A      3.032203   130A      3.067814   131A      3.093317  
     132A      3.099569   133A      3.156249   134A      3.241187  
     135A      3.328427   136A      3.438592   137A      3.548473  
     138A      3.802551   139A      4.272960   140A      4.497931  
     141A      4.520292   142A      4.526932   143A      4.633685  
     144A      4.727510   145A      4.792601   146A      4.884806  
     147A      5.135041  

    Final Occupation by Irrep:
              A 
    DOCC [    32 ]

  @DF-RHF Final Energy:  -418.31719298118099

   => Energetics <=

    Nuclear Repulsion Energy =            404.5810294512190808
    One-Electron Energy =               -1371.8907643205513978
    Two-Electron Energy =                 548.9925418881512087
    Total Energy =                       -418.3171929811810514

Computation Completed


Properties will be evaluated at   0.000000,   0.000000,   0.000000 [a0]

Properties computed using the SCF density matrix

  Nuclear Dipole Moment: [e a0]
     X:    -4.9307      Y:     0.3427      Z:    -0.8450

  Electronic Dipole Moment: [e a0]
     X:     4.1985      Y:    -0.5835      Z:     0.3168

  Dipole Moment: [e a0]
     X:    -0.7323      Y:    -0.2408      Z:    -0.5281     Total:     0.9344

  Dipole Moment: [D]
     X:    -1.8612      Y:    -0.6120      Z:    -1.3423     Total:     2.3750


*** tstop() called on node44.bme.utexas.edu at Thu Nov  4 20:48:47 2021
Module time:
	user time   =       5.84 seconds =       0.10 minutes
	system time =       0.10 seconds =       0.00 minutes
	total time  =          6 seconds =       0.10 minutes
Total time:
	user time   =      35.96 seconds =       0.60 minutes
	system time =       1.16 seconds =       0.02 minutes
	total time  =         38 seconds =       0.63 minutes

*** tstart() called on node44.bme.utexas.edu
*** at Thu Nov  4 20:48:47 2021


  //>>>>>>>>>>>>>>>>>>>>>>>>>>>>>>>>>>>//
  //               DFMP2               //
  //<<<<<<<<<<<<<<<<<<<<<<<<<<<<<<<<<<<//

   => Loading Basis Set <=

    Name: (6-31G* AUX)
    Role: RIFIT
    Keyword: DF_BASIS_MP2
    atoms 1-7   entry C          line   159 file /home/bdw2292/miniconda3/envs/amoebamdpoltype/share/psi4/basis/cc-pvdz-ri.gbs 
    atoms 8-9   entry O          line   235 file /home/bdw2292/miniconda3/envs/amoebamdpoltype/share/psi4/basis/cc-pvdz-ri.gbs 
    atoms 10-15 entry H          line    19 file /home/bdw2292/miniconda3/envs/amoebamdpoltype/share/psi4/basis/cc-pvdz-ri.gbs 

	 --------------------------------------------------------
	                          DF-MP2                         
	      2nd-Order Density-Fitted Moller-Plesset Theory     
	              RMP2 Wavefunction,   1 Threads             
	                                                         
	        Rob Parrish, Justin Turney, Andy Simmonett,      
	           Ed Hohenstein, and C. David Sherrill          
	 --------------------------------------------------------

   => Auxiliary Basis Set <=

  Basis Set: (6-31G* AUX)
    Blend: CC-PVDZ-RI
    Number of shells: 198
    Number of basis function: 588
    Number of Cartesian functions: 684
    Spherical Harmonics?: true
    Max angular momentum: 3

	 --------------------------------------------------------
	                 NBF =   147, NAUX =   588
	 --------------------------------------------------------
	   CLASS    FOCC     OCC    AOCC    AVIR     VIR    FVIR
	   PAIRS       0      32      32     115     115       0
	 --------------------------------------------------------

  DFHelper Memory: AOs need 0.144 GiB; user supplied 5.821 GiB. Using in-core AOs.


         ------------------------------------------------------------
                                     CPHF                           
                                  Rob Parrish                       
         ------------------------------------------------------------

  ==> Geometry <==

    Molecular point group: c1
    Full point group: C1

    Geometry (in Angstrom), charge = 0, multiplicity = 1:

       Center              X                  Y                   Z               Mass       
    ------------   -----------------  -----------------  -----------------  -----------------
         C            1.633956942466    -0.254245308936     0.086467756357    12.000000000000
         C            0.185107456542    -0.019578458481     0.024601880030    12.000000000000
         C           -1.955726132108    -0.259188900026    -1.068498560372    12.000000000000
         C           -2.566048154944     0.456757188103    -0.037393813369    12.000000000000
         C           -0.585978338443    -0.500438978440    -1.044550891821    12.000000000000
         C           -1.789660072844     0.932621688650     1.025064824880    12.000000000000
         C           -0.419730639610     0.698609322363     1.060676070559    12.000000000000
         O            2.103436338962    -0.961720443245    -0.982444963724    15.994914619570
         O            2.354277282737     0.147268667959     1.004456647963    15.994914619570
         H           -0.106513697859    -1.057646479085    -1.844873578470     1.007825032230
         H           -2.243653082791     1.492524856757     1.839008876998     1.007825032230
         H            0.194771232444     1.062283330866     1.879124945998     1.007825032230
         H           -2.547690973391    -0.635285005101    -1.901111963267     1.007825032230
         H           -3.635366091479     0.643211429016    -0.059180338625     1.007825032230
         H            3.055986569854    -1.135333505662    -0.814396440777     1.007825032230

  Nuclear repulsion =  404.581029451219138
  Reference energy  = -418.317192981180995

  ==> Basis Set <==

  Basis Set: 6-31G*
    Blend: 6-31G*
    Number of shells: 66
    Number of basis function: 147
    Number of Cartesian functions: 147
    Spherical Harmonics?: false
    Max angular momentum: 2

  ==> CGRSolver (by Rob Parrish) <==

   Number of roots    =         1
   Preconditioning    =    JACOBI
   Convergence cutoff =     1E-06
   Maximum iterations =       100

  ==> CPHFRHamiltonian (by Rob Parrish) <== 

  ==> MemDFJK: Density-Fitted J/K Matrices <==

    J tasked:                   Yes
    K tasked:                   Yes
    wK tasked:                   No
    OpenMP threads:               1
    Memory [MiB]:              5960
    Algorithm:                 Core
    Schwarz Cutoff:           1E-12
    Mask sparsity (%):       5.5347
    Fitting Condition:        1E-10

   => Auxiliary Basis Set <=

  Basis Set: (6-31G* AUX)
    Blend: CC-PVDZ-JKFIT
    Number of shells: 270
    Number of basis function: 879
    Number of Cartesian functions: 879
    Spherical Harmonics?: false
    Max angular momentum: 3

  ==> CPHF Iterations <==

  => Iterations <=

             Iter  Converged  Remaining    Residual
  CGR           1          0          1   1.415E-01
  CGR           2          0          1   4.771E-02
  CGR           3          0          1   2.467E-02
  CGR           4          0          1   1.133E-02
  CGR           5          0          1   4.704E-03
  CGR           6          0          1   1.549E-03
  CGR           7          0          1   4.896E-04
  CGR           8          0          1   1.493E-04
  CGR           9          0          1   4.828E-05
  CGR          10          0          1   1.916E-05
  CGR          11          0          1   5.355E-06
  CGR          12          0          1   2.153E-06
  CGR          13          1          0   9.637E-07

    CGRSolver converged.

  ==> DFCorrGrad: Density-Fitted Correlated Gradients <==

    OpenMP threads:              1
    Integrals threads:           1
    Memory [GiB]:            5.821
    Schwarz Cutoff:          0E+00
    Fitting Condition:       1E-10

   => Auxiliary Basis Set <=

  Basis Set: (6-31G* AUX)
    Blend: CC-PVDZ-JKFIT
    Number of shells: 270
    Number of basis function: 879
    Number of Cartesian functions: 879
    Spherical Harmonics?: false
    Max angular momentum: 3

	-----------------------------------------------------------
	 ==================> DF-MP2 Energies <==================== 
	-----------------------------------------------------------
	 Reference Energy          =    -418.3171929811809946 [Eh]
	 Singles Energy            =      -0.0000000000000000 [Eh]
	 Same-Spin Energy          =      -0.3470865374636086 [Eh]
	 Opposite-Spin Energy      =      -0.9293385324441431 [Eh]
	 Correlation Energy        =      -1.2764250699077517 [Eh]
	 Total Energy              =    -419.5936180510887539 [Eh]
	-----------------------------------------------------------
	 ================> DF-SCS-MP2 Energies <================== 
	-----------------------------------------------------------
	 SCS Same-Spin Scale       =       0.3333333333333333 [-]
	 SCS Opposite-Spin Scale   =       1.2000000000000000 [-]
	 SCS Same-Spin Energy      =      -0.1156955124878695 [Eh]
	 SCS Opposite-Spin Energy  =      -1.1152062389329718 [Eh]
	 SCS Correlation Energy    =      -1.2309017514208414 [Eh]
	 SCS Total Energy          =    -419.5480947326018395 [Eh]
	-----------------------------------------------------------


  -Total Gradient:
     Atom            X                  Y                   Z
    ------   -----------------  -----------------  -----------------
       1       -0.017669421818    -0.006332172941    -0.014906901824
       2        0.009221581247     0.001287641615     0.006624717137
       3        0.001967693409     0.000472557256     0.001493760414
       4       -0.003640784490    -0.000612981151    -0.002202914999
       5       -0.002840712181    -0.000385496229    -0.001719304654
       6        0.001710237000    -0.000590147012    -0.000531192836
       7       -0.001248586692     0.000880961169     0.001213745192
       8       -0.001744336526     0.000545183703    -0.004977829914
       9        0.007261541556     0.009792466085     0.016939024728
      10        0.000900986521    -0.000651373688    -0.000897470965
      11        0.001873399752     0.000299525551     0.001103037867
      12        0.000043745309     0.000138857438     0.000285391179
      13        0.000077937475    -0.000751523222    -0.001247050368
      14        0.000789719296    -0.000172140657    -0.000060872034
      15        0.003297000139    -0.003921357917    -0.001116138923


*** tstop() called on node44.bme.utexas.edu at Thu Nov  4 20:49:12 2021
Module time:
	user time   =      23.61 seconds =       0.39 minutes
	system time =       0.58 seconds =       0.01 minutes
	total time  =         25 seconds =       0.42 minutes
Total time:
	user time   =      59.57 seconds =       0.99 minutes
	system time =       1.74 seconds =       0.03 minutes
	total time  =         63 seconds =       1.05 minutes

			-----------------------------------------
			 OPTKING 2.0: for geometry optimizations 
			  - R.A. King,  Bethel University        
			-----------------------------------------
	At level 1: Red. Int., RFO, no backsteps, dynamic trust

	Previous internal coordinate definitions found.
	---Fragment 1 Geometry and Gradient---
	 C           3.0877311221       -0.4804540026        0.1634003782
	 C           0.3498023966       -0.0369979245        0.0464908154
	 C          -3.6957867661       -0.4897960358       -2.0191696445
	 C          -4.8491282376        0.8631459913       -0.0706640661
	 C          -1.1073385751       -0.9456926118       -1.9739151096
	 C          -3.3819673953        1.7623995702        1.9370917799
	 C          -0.7931759553        1.3201802880        2.0043872812
	 O           3.9749186030       -1.8173882470       -1.8565519148
	 O           4.4489392878        0.2782974493        1.8981479695
	 H          -0.2012817176       -1.9986621830       -3.4863057994
	 H          -4.2398898470        2.8204632147        3.4752231198
	 H           0.3680642864        2.0074245630        3.5510315035
	 H          -4.8144381920       -1.2005146713       -3.5925809444
	 H          -6.8698462787        1.2154934416       -0.1118346320
	 H           5.7749776601       -2.1454693868       -1.5389862306
	            -0.0176694218       -0.0063321729       -0.0149069018
	             0.0092215812        0.0012876416        0.0066247171
	             0.0019676934        0.0004725573        0.0014937604
	            -0.0036407845       -0.0006129812       -0.0022029150
	            -0.0028407122       -0.0003854962       -0.0017193047
	             0.0017102370       -0.0005901470       -0.0005311928
	            -0.0012485867        0.0008809612        0.0012137452
	            -0.0017443365        0.0005451837       -0.0049778299
	             0.0072615416        0.0097924661        0.0169390247
	             0.0009009865       -0.0006513737       -0.0008974710
	             0.0018733998        0.0002995256        0.0011030379
	             0.0000437453        0.0001388574        0.0002853912
	             0.0000779375       -0.0007515232       -0.0012470504
	             0.0007897193       -0.0001721407       -0.0000608720
	             0.0032970001       -0.0039213579       -0.0011161389

	---Fragment 1 Intrafragment Coordinates---
	 - Coordinate -           - BOHR/RAD -       - ANG/DEG -
	 R(1,2)           =         2.776072	       1.469034
	 R(1,8)           =         2.579671	       1.365103
	 R(1,9)           =         2.331939	       1.234009
	 R(2,5)           =         2.651608	       1.403171
	 R(2,7)           =         2.642289	       1.398239
	 R(3,4)           =         2.637674	       1.395797
	 R(3,5)           =         2.628679	       1.391037
	 R(3,13)          =         2.057213	       1.088630
	 R(4,6)           =         2.644296	       1.399301
	 R(4,14)          =         2.051620	       1.085671
	 R(5,10)          =         2.053536	       1.086684
	 R(6,7)           =         2.627152	       1.390229
	 R(6,11)          =         2.054599	       1.087247
	 R(7,12)          =         2.052533	       1.086154
	 R(8,15)          =         1.857067	       0.982718
	 B(1,2,5)         =         2.116858	     121.287048
	 B(1,2,7)         =         2.068572	     118.520428
	 B(1,8,15)        =         1.866084	     106.918763
	 B(2,1,8)         =         1.970344	     112.892379
	 B(2,1,9)         =         2.159226	     123.714561
	 B(2,5,3)         =         2.088406	     119.656822
	 B(2,5,10)        =         2.087967	     119.631708
	 B(2,7,6)         =         2.087174	     119.586253
	 B(2,7,12)        =         2.077849	     119.051957
	 B(3,4,6)         =         2.086010	     119.519567
	 B(3,4,14)        =         2.098948	     120.260877
	 B(3,5,10)        =         2.106813	     120.711468
	 B(4,3,5)         =         2.102272	     120.451299
	 B(4,3,13)        =         2.099520	     120.293621
	 B(4,6,7)         =         2.104754	     120.593531
	 B(4,6,11)        =         2.108151	     120.788175
	 B(5,2,7)         =         2.097755	     120.192521
	 B(5,3,13)        =         2.081394	     119.255079
	 B(6,4,14)        =         2.098227	     120.219556
	 B(6,7,12)        =         2.118163	     121.361785
	 B(7,6,11)        =         2.070280	     118.618292
	 B(8,1,9)         =         2.153611	     123.392809
	 D(1,2,5,3)       =         3.141031	     179.967829
	 D(1,2,5,10)      =        -0.000240	      -0.013759
	 D(1,2,7,6)       =        -3.140720	    -179.949973
	 D(1,2,7,12)      =         0.000447	       0.025629
	 D(2,1,8,15)      =        -3.056843	    -175.144199
	 D(2,5,3,4)       =        -0.000071	      -0.004081
	 D(2,5,3,13)      =        -3.141564	    -179.998331
	 D(2,7,6,4)       =        -0.000577	      -0.033071
	 D(2,7,6,11)      =         3.141262	     179.981066
	 D(3,4,6,7)       =         0.000325	       0.018607
	 D(3,4,6,11)      =        -3.141520	    -179.995839
	 D(3,5,2,7)       =        -0.000184	      -0.010514
	 D(4,3,5,10)      =         3.141197	     179.977305
	 D(4,6,7,12)      =         3.141451	     179.991906
	 D(5,2,1,8)       =         0.003485	       0.199693
	 D(5,2,1,9)       =        -3.141203	    -179.977659
	 D(5,2,7,6)       =         0.000506	       0.028963
	 D(5,2,7,12)      =        -3.141513	    -179.995434
	 D(5,3,4,6)       =         0.000000	       0.000000
	 D(5,3,4,14)      =        -3.141523	    -179.996020
	 D(6,4,3,13)      =         3.141494	     179.994335
	 D(7,2,1,8)       =        -3.138479	    -179.821611
	 D(7,2,1,9)       =         0.000018	       0.001037
	 D(7,2,5,10)      =        -3.141455	    -179.992102
	 D(7,6,4,14)      =        -3.141335	    -179.985227
	 D(9,1,8,15)      =         0.087834	       5.032494
	 D(10,5,3,13)     =        -0.000296	      -0.016946
	 D(11,6,4,14)     =         0.000000	       0.000000
	 D(11,6,7,12)     =         0.000105	       0.006043
	 D(13,3,4,14)     =        -0.000032	      -0.001830

	Current energy   :      -419.5936180511

	Energy change for the previous step:
		Projected    :        -0.0349034764
		Actual       :        -0.0227317226

	Performing BFGS update.
	Previous computed or guess Hessian on step 1.
	Steps to be used in Hessian update: 1
	Taking RFO optimization step.
	Going to follow RFO solution 1.
	Using RFO vector 1.
	Norm of target step-size    0.29579
	Projected energy change by RFO approximation:        -0.0004937720

	Back-transformation to cartesian coordinates...
	Could not converge backtransformation.
	Using first guess instead.

	--- Internal Coordinate Step in ANG or DEG, aJ/ANG or AJ/DEG ---
	 ---------------------------------------------------------------------------
	   Coordinate                Previous        Force       Change         New 
	   ----------                --------       ------       ------       ------
	    1 R(1,2)          =      1.469034     0.073473     0.013977     1.483011
	    2 R(1,8)          =      1.365103    -0.058128    -0.007677     1.357426
	    3 R(1,9)          =      1.234009    -0.164989    -0.014419     1.219590
	    4 R(2,5)          =      1.403171    -0.019093    -0.001737     1.401433
	    5 R(2,7)          =      1.398239     0.002884     0.001193     1.399432
	    6 R(3,4)          =      1.395797    -0.003169     0.000161     1.395958
	    7 R(3,5)          =      1.391037     0.012879     0.001936     1.392973
	    8 R(3,13)         =      1.088630    -0.009648    -0.001969     1.086661
	    9 R(4,6)          =      1.399301    -0.028386    -0.003331     1.395971
	   10 R(4,14)         =      1.085671     0.006642     0.001426     1.087096
	   11 R(5,10)         =      1.086684    -0.011472    -0.002266     1.084418
	   12 R(6,7)          =      1.390229     0.011220     0.001662     1.391891
	   13 R(6,11)         =      1.087247    -0.001629    -0.000015     1.087232
	   14 R(7,12)         =      1.086154    -0.002359    -0.000392     1.085762
	   15 R(8,15)         =      0.982718    -0.030464     0.011177     0.993895
	   16 B(1,2,5)        =    121.287048     0.000236     0.734044   122.021092
	   17 B(1,2,7)        =    118.520428    -0.000197    -0.672387   117.848041
	   18 B(1,8,15)       =    106.918763    -0.000438    -2.852002   104.066761
	   19 B(2,1,8)        =    112.892379     0.000086     0.011458   112.903836
	   20 B(2,1,9)        =    123.714561     0.000469     1.623815   125.338375
	   21 B(2,5,3)        =    119.656822    -0.000022    -0.069727   119.587094
	   22 B(2,5,10)       =    119.631708     0.000036     0.179289   119.810997
	   23 B(2,7,6)        =    119.586253     0.000078     0.248441   119.834693
	   24 B(2,7,12)       =    119.051957    -0.000050    -0.162959   118.888998
	   25 B(3,4,6)        =    119.519567     0.000088     0.354359   119.873926
	   26 B(3,4,14)       =    120.260877    -0.000037    -0.150446   120.110430
	   27 B(3,5,10)       =    120.711468    -0.000014    -0.109572   120.601896
	   28 B(4,3,5)        =    120.451299    -0.000010    -0.089418   120.361881
	   29 B(4,3,13)       =    120.293621    -0.000063    -0.291108   120.002513
	   30 B(4,6,7)        =    120.593531    -0.000096    -0.381992   120.211539
	   31 B(4,6,11)       =    120.788175    -0.000123    -0.662515   120.125660
	   32 B(5,2,7)        =    120.192521    -0.000039    -0.061702   120.130818
	   33 B(5,3,13)       =    119.255079     0.000073     0.380510   119.635589
	   34 B(6,4,14)       =    120.219556    -0.000051    -0.203917   120.015639
	   35 B(6,7,12)       =    121.361785    -0.000028    -0.085486   121.276299
	   36 B(7,6,11)       =    118.618292     0.000219     1.044501   119.662794
	   37 B(8,1,9)        =    123.392809    -0.000555    -1.635659   121.757149
	   38 D(1,2,5,3)      =    179.967829    -0.000000    -0.018910   179.948920
	   39 D(1,2,5,10)     =     -0.013759     0.000000     0.003920    -0.009839
	   40 D(1,2,7,6)      =   -179.949973     0.000000     0.061199  -179.888774
	   41 D(1,2,7,12)     =      0.025629     0.000000     0.051455     0.077084
	   42 D(2,1,8,15)     =   -175.144199    -0.000031   -11.049975  -186.194174
	   43 D(2,5,3,4)      =     -0.004081    -0.000000    -0.051801    -0.055882
	   44 D(2,5,3,13)     =   -179.998331    -0.000000    -0.010805  -180.009137
	   45 D(2,7,6,4)      =     -0.033071    -0.000000    -0.038441    -0.071512
	   46 D(2,7,6,11)     =    179.981066    -0.000000    -0.021513   179.959553
	   47 D(3,4,6,7)      =      0.018607     0.000000     0.028028     0.046635
	   48 D(3,4,6,11)     =   -179.995839     0.000000     0.011264  -179.984575
	   49 D(3,5,2,7)      =     -0.010514     0.000000     0.041274     0.030760
	   50 D(4,3,5,10)     =    179.977305    -0.000000    -0.074761   179.902544
	   51 D(4,6,7,12)     =    179.991906    -0.000000    -0.028442   179.963464
	   52 D(5,2,1,8)      =      0.199693     0.000001     0.155890     0.355584
	   53 D(5,2,1,9)      =   -179.977659     0.000002     0.621054  -179.356605
	   54 D(5,2,7,6)      =      0.028963     0.000000     0.003785     0.032748
	   55 D(5,2,7,12)     =   -179.995434    -0.000000    -0.005959  -180.001393
	   56 D(5,3,4,6)      =      0.000000     0.000000     0.017506     0.017506
	   57 D(5,3,4,14)     =   -179.996020     0.000000     0.037350  -179.958670
	   58 D(6,4,3,13)     =    179.994335    -0.000000    -0.023746   179.970589
	   59 D(7,2,1,8)      =   -179.821611     0.000001     0.097141  -179.724470
	   60 D(7,2,1,9)      =      0.001037     0.000002     0.562304     0.563342
	   61 D(7,2,5,10)     =   -179.992102     0.000000     0.064104  -179.927998
	   62 D(7,6,4,14)     =   -179.985227     0.000000     0.008061  -179.977166
	   63 D(9,1,8,15)     =      5.032494    -0.000033   -11.502789    -6.470295
	   64 D(10,5,3,13)    =     -0.016946    -0.000000    -0.033765    -0.050710
	   65 D(11,6,4,14)    =      0.000000    -0.000000    -0.008376    -0.008376
	   66 D(11,6,7,12)    =      0.006043    -0.000000    -0.011514    -0.005471
	   67 D(13,3,4,14)    =     -0.001830     0.000000    -0.003758    -0.005588
	 ---------------------------------------------------------------------------
	Successfully symmetrized geometry.

  ==> Convergence Check <==

  Measures of convergence in internal coordinates in au.
  Criteria marked as inactive (o), active & met (*), and active & unmet ( ).
  ---------------------------------------------------------------------------------------------
   Step     Total Energy     Delta E     MAX Force     RMS Force      MAX Disp      RMS Disp   
  ---------------------------------------------------------------------------------------------
    Convergence Criteria             o    4.50e-04 *    3.00e-04 *    1.80e-03 *    1.20e-03 *
  ---------------------------------------------------------------------------------------------
      2    -419.59361805   -2.27e-02 o    2.00e-02      3.32e-03      2.01e-01      3.56e-02    ~
  ---------------------------------------------------------------------------------------------

	Writing optimization data to binary file.
	Structure for next step:
	Cartesian Geometry (in Angstrom)
	    C     1.6385381742  -0.2854942936   0.1002255437
	    C     0.1780347714  -0.0408344713   0.0202661460
	    C    -1.9667174644  -0.2595202772  -1.0680101102
	    C    -2.5649200108   0.4690595429  -0.0384350956
	    C    -0.5981500207  -0.5180669339  -1.0445350212
	    C    -1.7883834590   0.9419858392   1.0208409530
	    C    -0.4198364725   0.6901828778   1.0530168037
	    O     2.1134255084  -0.9972818952  -0.9535514274
	    O     2.3685099422   0.0908602612   1.0018339902
	    H    -0.1296899348  -1.0849767463  -1.8414801328
	    H    -2.2500870687   1.5096488703   1.8249937281
	    H     0.2005558478   1.0502514530   1.8680889465
	    H    -2.5692895833  -0.6290607919  -1.8933454283
	    H    -3.6334500643   0.6678887076  -0.0605396024
	    H     3.0986284989  -0.9948027404  -0.8224188374
			--------------------------
			 OPTKING Finished Execution 
			--------------------------

    Structure for next step:
    Molecular point group: c1
    Full point group: C1

    Geometry (in Angstrom), charge = 0, multiplicity = 1:

    C            1.637667242159    -0.269045321597     0.097269312666
    C            0.177163833579    -0.024385498358     0.017309914692
    C           -1.967588410659    -0.243071305107    -1.070966345784
    C           -2.565790959399     0.485508517873    -0.041391327164
    C           -0.599020961603    -0.501617962810    -1.047491256671
    C           -1.789254404539     0.958434816045     1.017884725590
    C           -0.420707412684     0.706631853570     1.050060576413
    O            2.112554578200    -0.980832925981    -0.956507662571
    O            2.367639012997     0.107309234616     0.998877762753
    H           -0.130560873805    -1.068527777426    -1.844436371456
    H           -2.250958016063     1.526097849300     1.822037503838
    H            0.199684910128     1.066700430200     1.865132722450
    H           -2.570160531875    -0.612611821280    -1.896301667138
    H           -3.634321017073     0.684337683337    -0.063495834035
    H            3.097757572564    -0.978353771162    -0.825375072039

gradient() will perform analytic gradient computation.
    SCF Algorithm Type (re)set to DF.

*** tstart() called on node44.bme.utexas.edu
*** at Thu Nov  4 20:49:12 2021

   => Loading Basis Set <=

    Name: 6-31G*
    Role: ORBITAL
    Keyword: BASIS
    atoms 1-7   entry C          line   111 file /home/bdw2292/miniconda3/envs/amoebamdpoltype/share/psi4/basis/6-31gs.gbs 
    atoms 8-9   entry O          line   145 file /home/bdw2292/miniconda3/envs/amoebamdpoltype/share/psi4/basis/6-31gs.gbs 
    atoms 10-15 entry H          line    44 file /home/bdw2292/miniconda3/envs/amoebamdpoltype/share/psi4/basis/6-31gs.gbs 


         ---------------------------------------------------------
                                   SCF
               by Justin Turney, Rob Parrish, Andy Simmonett
                          and Daniel G. A. Smith
                              RHF Reference
                        1 Threads,   7947 MiB Core
         ---------------------------------------------------------

  ==> Geometry <==

    Molecular point group: c1
    Full point group: C1

    Geometry (in Angstrom), charge = 0, multiplicity = 1:

       Center              X                  Y                   Z               Mass       
    ------------   -----------------  -----------------  -----------------  -----------------
         C            1.637667242159    -0.269045321597     0.097269312666    12.000000000000
         C            0.177163833579    -0.024385498358     0.017309914692    12.000000000000
         C           -1.967588410659    -0.243071305107    -1.070966345784    12.000000000000
         C           -2.565790959399     0.485508517873    -0.041391327164    12.000000000000
         C           -0.599020961603    -0.501617962810    -1.047491256671    12.000000000000
         C           -1.789254404539     0.958434816045     1.017884725590    12.000000000000
         C           -0.420707412684     0.706631853570     1.050060576413    12.000000000000
         O            2.112554578200    -0.980832925981    -0.956507662571    15.994914619570
         O            2.367639012997     0.107309234616     0.998877762753    15.994914619570
         H           -0.130560873805    -1.068527777426    -1.844436371456     1.007825032230
         H           -2.250958016063     1.526097849300     1.822037503838     1.007825032230
         H            0.199684910128     1.066700430200     1.865132722450     1.007825032230
         H           -2.570160531875    -0.612611821280    -1.896301667138     1.007825032230
         H           -3.634321017073     0.684337683337    -0.063495834035     1.007825032230
         H            3.097757572564    -0.978353771162    -0.825375072039     1.007825032230

  Running in c1 symmetry.

  Rotational constants: A =      0.12917  B =      0.04086  C =      0.03104 [cm^-1]
  Rotational constants: A =   3872.33247  B =   1224.81491  C =    930.54359 [MHz]
  Nuclear repulsion =  404.476472059492380

  Charge       = 0
  Multiplicity = 1
  Electrons    = 64
  Nalpha       = 32
  Nbeta        = 32

  ==> Algorithm <==

  SCF Algorithm Type is DF.
  DIIS enabled.
  MOM disabled.
  Fractional occupation disabled.
  Guess Type is READ.
  Energy threshold   = 1.00e-10
  Density threshold  = 1.00e-10
  Integral threshold = 0.00e+00

  ==> Primary Basis <==

  Basis Set: 6-31G*
    Blend: 6-31G*
    Number of shells: 66
    Number of basis function: 147
    Number of Cartesian functions: 147
    Spherical Harmonics?: false
    Max angular momentum: 2

   => Loading Basis Set <=

    Name: (6-31G* AUX)
    Role: JKFIT
    Keyword: DF_BASIS_SCF
    atoms 1-7   entry C          line   121 file /home/bdw2292/miniconda3/envs/amoebamdpoltype/share/psi4/basis/cc-pvdz-jkfit.gbs 
    atoms 8-9   entry O          line   221 file /home/bdw2292/miniconda3/envs/amoebamdpoltype/share/psi4/basis/cc-pvdz-jkfit.gbs 
    atoms 10-15 entry H          line    51 file /home/bdw2292/miniconda3/envs/amoebamdpoltype/share/psi4/basis/cc-pvdz-jkfit.gbs 

   => Loading Basis Set <=

    Name: 6-31G*
    Role: ORBITAL
    Keyword: BASIS
    atoms 1-7   entry C          line   111 file /home/bdw2292/miniconda3/envs/amoebamdpoltype/share/psi4/basis/6-31gs.gbs 
[...]
    Integrals threads:           1
    Memory [GiB]:            5.821
    Schwarz Cutoff:          0E+00
    Fitting Condition:       1E-10

   => Auxiliary Basis Set <=

  Basis Set: (6-31G* AUX)
    Blend: CC-PVDZ-JKFIT
    Number of shells: 270
    Number of basis function: 879
    Number of Cartesian functions: 879
    Spherical Harmonics?: false
    Max angular momentum: 3

	-----------------------------------------------------------
	 ==================> DF-MP2 Energies <==================== 
	-----------------------------------------------------------
	 Reference Energy          =    -418.3200883421782237 [Eh]
	 Singles Energy            =      -0.0000000000000000 [Eh]
	 Same-Spin Energy          =      -0.3465073222557514 [Eh]
	 Opposite-Spin Energy      =      -0.9279698462976386 [Eh]
	 Correlation Energy        =      -1.2744771685533900 [Eh]
	 Total Energy              =    -419.5945655107316270 [Eh]
	-----------------------------------------------------------
	 ================> DF-SCS-MP2 Energies <================== 
	-----------------------------------------------------------
	 SCS Same-Spin Scale       =       0.3333333333333333 [-]
	 SCS Opposite-Spin Scale   =       1.2000000000000000 [-]
	 SCS Same-Spin Energy      =      -0.1155024407519171 [Eh]
	 SCS Opposite-Spin Energy  =      -1.1135638155571663 [Eh]
	 SCS Correlation Energy    =      -1.2290662563090835 [Eh]
	 SCS Total Energy          =    -419.5491545984872914 [Eh]
	-----------------------------------------------------------


  -Total Gradient:
     Atom            X                  Y                   Z
    ------   -----------------  -----------------  -----------------
       1        0.000052950951     0.000017189113     0.000073218538
       2        0.000017393956    -0.000006082491     0.000001005802
       3        0.000002031425     0.000002112705     0.000006717293
       4        0.000004083741     0.000002594989     0.000006901306
       5       -0.000003459639    -0.000005471062    -0.000008528176
       6       -0.000007794729    -0.000002231245    -0.000009815705
       7       -0.000002213070    -0.000001428168    -0.000002236783
       8        0.000017270111     0.000013291942    -0.000016057589
       9       -0.000051340250    -0.000022809741    -0.000074959803
      10        0.000000014178     0.000005626473     0.000007004872
      11       -0.000001878619    -0.000000426038    -0.000002200436
      12       -0.000001119316    -0.000001850140    -0.000002107449
      13       -0.000000866065     0.000001847568     0.000002923786
      14        0.000001524689     0.000000567718     0.000001148837
      15       -0.000026597369    -0.000002931623     0.000016985508


*** tstop() called on node44.bme.utexas.edu at Thu Nov  4 20:54:21 2021
Module time:
	user time   =      23.05 seconds =       0.38 minutes
	system time =       0.62 seconds =       0.01 minutes
	total time  =         24 seconds =       0.40 minutes
Total time:
	user time   =     348.61 seconds =       5.81 minutes
	system time =       9.10 seconds =       0.15 minutes
	total time  =        372 seconds =       6.20 minutes

			-----------------------------------------
			 OPTKING 2.0: for geometry optimizations 
			  - R.A. King,  Bethel University        
			-----------------------------------------
	At level 2: Red. Int., RFO, backsteps, smaller trust.

	Previous internal coordinate definitions found.
	---Fragment 1 Geometry and Gradient---
	 C           3.0958036857       -0.4890023342        0.1775534865
	 C           0.3326830386       -0.0456271061        0.0308762570
	 C          -3.7134350090       -0.4747344452       -2.0194883407
	 C          -4.8465173804        0.8891355179       -0.0673154881
	 C          -1.1243584485       -0.9486676320       -1.9817639055
	 C          -3.3832090928        1.7857145588        1.9363104282
	 C          -0.7953862552        1.3217913578        1.9908250939
	 O           3.9916797828       -1.8340730382       -1.8218434581
	 O           4.4684656043        0.2467292047        1.8790704516
	 H          -0.2331940383       -2.0078777005       -3.4943523739
	 H          -4.2630096686        2.8480776295        3.4578015291
	 H           0.3802021104        2.0005654601        3.5299603336
	 H          -4.8527882117       -1.1726317038       -3.5792155014
	 H          -6.8678757127        1.2529215239       -0.1074388795
	 H           5.8088637947       -2.0021356980       -1.5127171518
	             0.0000529510        0.0000171891        0.0000732185
	             0.0000173940       -0.0000060825        0.0000010058
	             0.0000020314        0.0000021127        0.0000067173
	             0.0000040837        0.0000025950        0.0000069013
	            -0.0000034596       -0.0000054711       -0.0000085282
	            -0.0000077947       -0.0000022312       -0.0000098157
	            -0.0000022131       -0.0000014282       -0.0000022368
	             0.0000172701        0.0000132919       -0.0000160576
	            -0.0000513402       -0.0000228097       -0.0000749598
	             0.0000000142        0.0000056265        0.0000070049
	            -0.0000018786       -0.0000004260       -0.0000022004
	            -0.0000011193       -0.0000018501       -0.0000021074
	            -0.0000008661        0.0000018476        0.0000029238
	             0.0000015247        0.0000005677        0.0000011488
	            -0.0000265974       -0.0000029316        0.0000169855

	---Fragment 1 Intrafragment Coordinates---
	 - Coordinate -           - BOHR/RAD -       - ANG/DEG -
	 R(1,2)           =         2.802308	       1.482918
	 R(1,8)           =         2.570875	       1.360448
	 R(1,9)           =         2.306656	       1.220630
	 R(2,5)           =         2.643704	       1.398988
	 R(2,7)           =         2.642683	       1.398448
	 R(3,4)           =         2.637233	       1.395563
	 R(3,5)           =         2.632366	       1.392988
	 R(3,13)          =         2.053761	       1.086804
	 R(4,6)           =         2.638113	       1.396029
	 R(4,14)          =         2.054225	       1.087049
	 R(5,10)          =         2.050372	       1.085010
	 R(6,7)           =         2.629643	       1.391547
	 R(6,11)          =         2.053680	       1.086760
	 R(7,12)          =         2.052238	       1.085997
	 R(8,15)          =         1.850935	       0.979473
	 B(1,2,5)         =         2.128492	     121.953600
	 B(1,2,7)         =         2.053239	     117.641917
	 B(1,8,15)        =         1.833546	     105.054422
	 B(2,1,8)         =         1.966731	     112.685376
	 B(2,1,9)         =         2.183291	     125.093366
	 B(2,5,3)         =         2.084590	     119.438187
	 B(2,5,10)        =         2.092703	     119.903067
	 B(2,7,6)         =         2.089768	     119.734909
	 B(2,7,12)        =         2.074693	     118.871154
	 B(3,4,6)         =         2.093986	     119.976546
	 B(3,4,14)        =         2.094280	     119.993408
	 B(3,5,10)        =         2.105892	     120.658746
	 B(4,3,5)         =         2.100276	     120.336932
	 B(4,3,13)        =         2.093882	     119.970616
	 B(4,6,7)         =         2.096297	     120.108944
	 B(4,6,11)        =         2.095387	     120.056828
	 B(5,2,7)         =         2.101455	     120.404482
	 B(5,3,13)        =         2.089027	     119.692452
	 B(6,4,14)        =         2.094920	     120.030046
	 B(6,7,12)        =         2.118724	     121.393938
	 B(7,6,11)        =         2.091502	     119.834228
	 B(8,1,9)         =         2.133163	     122.221258
	 D(1,2,5,3)       =         3.141560	     179.998108
	 D(1,2,5,10)      =        -0.000052	      -0.002979
	 D(1,2,7,6)       =         3.141593	     180.000000
	 D(1,2,7,12)      =         0.000000	       0.000000
	 D(2,1,8,15)      =        -3.140982	    -179.965035
	 D(2,5,3,4)       =         0.000020	       0.001172
	 D(2,5,3,13)      =         3.141593	     180.000000
	 D(2,7,6,4)       =         0.000049	       0.002793
	 D(2,7,6,11)      =        -3.141562	    -179.998243
	 D(3,4,6,7)       =        -0.000027	      -0.001553
	 D(3,4,6,11)      =         3.141593	     180.000000
	 D(3,5,2,7)       =         0.000000	       0.000000
	 D(4,3,5,10)      =        -3.141553	    -179.997733
	 D(4,6,7,12)      =        -3.141552	    -179.997679
	 D(5,2,1,8)       =         0.000400	       0.022898
	 D(5,2,1,9)       =        -3.141269	    -179.981447
	 D(5,2,7,6)       =        -0.000036	      -0.002063
	 D(5,2,7,12)      =         3.141565	     179.998397
	 D(5,3,4,6)       =        -0.000000	      -0.000000
	 D(5,3,4,14)      =         3.141572	     179.998831
	 D(6,4,3,13)      =         3.141593	     180.000000
	 D(7,2,1,8)       =        -3.141227	    -179.979024
	 D(7,2,1,9)       =         0.000290	       0.016631
	 D(7,2,5,10)      =         3.141575	     179.998995
	 D(7,6,4,14)      =         3.141578	     179.999171
	 D(9,1,8,15)      =         0.000684	       0.039166
	 D(10,5,3,13)     =         0.000031	       0.001790
	 D(11,6,4,14)     =         0.000000	       0.000000
	 D(11,6,7,12)     =         0.000022	       0.001285
	 D(13,3,4,14)     =        -0.000000	      -0.000000

	Current energy   :      -419.5945655107

	Energy change for the previous step:
		Projected    :        -0.0000003927
		Actual       :        -0.0000001365

	Performing BFGS update.
	Previous computed or guess Hessian on step 1.
	Steps to be used in Hessian update: 4 3
	Taking RFO optimization step.
	Going to follow RFO solution 1.
	Using RFO vector 1.
	Norm of target step-size    0.00118
	Projected energy change by RFO approximation:        -0.0000000277

	Back-transformation to cartesian coordinates...
	Could not converge backtransformation.
	Using first guess instead.

	--- Internal Coordinate Step in ANG or DEG, aJ/ANG or AJ/DEG ---
	 ---------------------------------------------------------------------------
	   Coordinate                Previous        Force       Change         New 
	   ----------                --------       ------       ------       ------
	    1 R(1,2)          =      1.482918     0.000069     0.000030     1.482948
	    2 R(1,8)          =      1.360448     0.000077    -0.000004     1.360444
	    3 R(1,9)          =      1.220630     0.000767     0.000049     1.220679
	    4 R(2,5)          =      1.398988    -0.000001     0.000000     1.398988
	    5 R(2,7)          =      1.398448    -0.000001     0.000003     1.398451
	    6 R(3,4)          =      1.395563     0.000037     0.000004     1.395567
	    7 R(3,5)          =      1.392988    -0.000011     0.000001     1.392989
	    8 R(3,13)         =      1.086804     0.000020     0.000004     1.086807
	    9 R(4,6)          =      1.396029     0.000138     0.000018     1.396047
	   10 R(4,14)         =      1.087049     0.000012     0.000002     1.087051
	   11 R(5,10)         =      1.085010     0.000066     0.000010     1.085020
	   12 R(6,7)          =      1.391547    -0.000018    -0.000002     1.391545
	   13 R(6,11)         =      1.086760     0.000009     0.000002     1.086763
	   14 R(7,12)         =      1.085997     0.000023     0.000003     1.086000
	   15 R(8,15)         =      0.979473     0.000190     0.000030     0.979503
	   16 B(1,2,5)        =    121.953600    -0.000000    -0.000380   121.953221
	   17 B(1,2,7)        =    117.641917    -0.000000    -0.000128   117.641789
	   18 B(1,8,15)       =    105.054422     0.000002     0.013406   105.067827
	   19 B(2,1,8)        =    112.685376    -0.000000     0.000457   112.685833
	   20 B(2,1,9)        =    125.093366    -0.000000    -0.001164   125.092202
	   21 B(2,5,3)        =    119.438187     0.000000     0.000562   119.438748
	   22 B(2,5,10)       =    119.903067     0.000000     0.001124   119.904191
	   23 B(2,7,6)        =    119.734909    -0.000000    -0.000577   119.734332
	   24 B(2,7,12)       =    118.871154     0.000000     0.000263   118.871416
	   25 B(3,4,6)        =    119.976546     0.000000     0.000227   119.976773
	   26 B(3,4,14)       =    119.993408    -0.000000    -0.000442   119.992966
	   27 B(3,5,10)       =    120.658746    -0.000000    -0.001686   120.657061
	   28 B(4,3,5)        =    120.336932    -0.000000    -0.000807   120.336125
	   29 B(4,3,13)       =    119.970616     0.000000     0.001245   119.971862
	   30 B(4,6,7)        =    120.108944    -0.000000     0.000087   120.109031
	   31 B(4,6,11)       =    120.056828     0.000000     0.000801   120.057629
	   32 B(5,2,7)        =    120.404482     0.000001     0.000507   120.404990
	   33 B(5,3,13)       =    119.692452    -0.000000    -0.000439   119.692013
	   34 B(6,4,14)       =    120.030046     0.000000     0.000215   120.030261
	   35 B(6,7,12)       =    121.393938     0.000000     0.000314   121.394252
	   36 B(7,6,11)       =    119.834228    -0.000000    -0.000888   119.833340
	   37 B(8,1,9)        =    122.221258     0.000000     0.000707   122.221964
	   38 D(1,2,5,3)      =    179.998108     0.000000     0.000583   179.998691
	   39 D(1,2,5,10)     =     -0.002979     0.000000     0.001316    -0.001662
	   40 D(1,2,7,6)      =    180.000000     0.000000     0.001036   180.001036
	   41 D(1,2,7,12)     =      0.000000     0.000000     0.000000     0.000000
	   42 D(2,1,8,15)     =   -179.965035    -0.000000    -0.040542  -180.005577
	   43 D(2,5,3,4)      =      0.001172    -0.000000    -0.001172     0.000000
	   44 D(2,5,3,13)     =    180.000000    -0.000000     0.000000   180.000000
	   45 D(2,7,6,4)      =      0.002793    -0.000000    -0.002793     0.000000
	   46 D(2,7,6,11)     =   -179.998243    -0.000000    -0.001757  -180.000000
	   47 D(3,4,6,7)      =     -0.001553     0.000000     0.001553     0.000000
	   48 D(3,4,6,11)     =    180.000000     0.000000     0.000000   180.000000
	   49 D(3,5,2,7)      =      0.000000     0.000000     0.000000     0.000000
	   50 D(4,3,5,10)     =   -179.997733    -0.000000    -0.002267  -180.000000
	   51 D(4,6,7,12)     =   -179.997679    -0.000000    -0.001472  -179.999150
	   52 D(5,2,1,8)      =      0.022898    -0.000000    -0.011863     0.011035
	   53 D(5,2,1,9)      =   -179.981447     0.000000    -0.003594  -179.985040
	   54 D(5,2,7,6)      =     -0.002063     0.000000     0.002063     0.000000
	   55 D(5,2,7,12)     =    179.998397     0.000000     0.000702   179.999099
	   56 D(5,3,4,6)      =      0.000000     0.000000     0.000000     0.000000
	   57 D(5,3,4,14)     =    179.998831     0.000000     0.001169   180.000000
	   58 D(6,4,3,13)     =    180.000000    -0.000000     0.000000   180.000000
	   59 D(7,2,1,8)      =   -179.979024    -0.000000    -0.011632  -179.990657
	   60 D(7,2,1,9)      =      0.016631     0.000000    -0.003363     0.013268
	   61 D(7,2,5,10)     =    179.998995     0.000000     0.001005   180.000000
	   62 D(7,6,4,14)     =    179.999171     0.000000     0.000829   180.000000
	   63 D(9,1,8,15)     =      0.039166    -0.000000    -0.048540    -0.009373
	   64 D(10,5,3,13)    =      0.001790    -0.000000    -0.000925     0.000866
	   65 D(11,6,4,14)    =      0.000000    -0.000000     0.000000     0.000000
	   66 D(11,6,7,12)    =      0.001285    -0.000000    -0.001285     0.000000
	   67 D(13,3,4,14)    =      0.000000    -0.000000     0.000000     0.000000
	 ---------------------------------------------------------------------------
	Successfully symmetrized geometry.

  ==> Convergence Check <==

  Measures of convergence in internal coordinates in au.
  Criteria marked as inactive (o), active & met (*), and active & unmet ( ).
  ---------------------------------------------------------------------------------------------
   Step     Total Energy     Delta E     MAX Force     RMS Force      MAX Disp      RMS Disp   
  ---------------------------------------------------------------------------------------------
    Convergence Criteria             o    4.50e-04 *    3.00e-04 *    1.80e-03 *    1.20e-03 *
  ---------------------------------------------------------------------------------------------
      5    -419.59456551   -1.36e-07 o    9.31e-05 *    1.30e-05 *    8.47e-04 *    1.44e-04 *  ~
  ---------------------------------------------------------------------------------------------


  **** Optimization is complete! (in 5 steps) ****

  ==> Optimization Summary <==

  Measures of convergence in internal coordinates in au.
  --------------------------------------------------------------------------------------------------------------- ~
   Step         Total Energy             Delta E       MAX Force       RMS Force        MAX Disp        RMS Disp  ~
  --------------------------------------------------------------------------------------------------------------- ~
      1    -419.594530838246   -419.594530838246      0.00137422      0.00032193      0.04241896      0.01220278  ~
      2    -419.594398764978      0.000132073268      0.00279700      0.00070860      0.02954246      0.00841803  ~
      3    -419.594564951050     -0.000166186073      0.00048928      0.00008439      0.00355454      0.00064089  ~
      4    -419.594565374247     -0.000000423197      0.00011547      0.00002721      0.00256800      0.00044482  ~
      5    -419.594565510732     -0.000000136485      0.00009312      0.00001295      0.00084718      0.00014434  ~
  --------------------------------------------------------------------------------------------------------------- ~

	Writing optimization data to binary file.
	Final energy is   -419.5945655107316
	Final (previous) structure:
	Cartesian Geometry (in Angstrom)
	    C     1.6382287528  -0.2587688902   0.0939572584
	    C     0.1760482817  -0.0241448247   0.0163390115
	    C    -1.9650651723  -0.2512186485  -1.0686672029
	    C    -2.5646665387   0.4705102514  -0.0356218221
	    C    -0.5949848652  -0.5020132894  -1.0487042916
	    C    -1.7903171438   0.9449594455   1.0246513474
	    C    -0.4209002783   0.6994618610   1.0534992660
	    O     2.1123059651  -0.9705496507  -0.9640780356
	    O     2.3646101552   0.1305634718   0.9943612563
	    H    -0.1234009702  -1.0625231167  -1.8491316351
	    H    -2.2558875566   1.5071377698   1.8297897611
	    H     0.2011942915   1.0586536458   1.8679745558
	    H    -2.5679849198  -0.6205299717  -1.8940392680
	    H    -3.6343232986   0.6630175146  -0.0568542063
	    H     3.0739183280  -1.0594845799  -0.8004954398
	Saving final (previous) structure.
			--------------------------
			 OPTKING Finished Execution 
			--------------------------

    Final optimized geometry and variables:
    Molecular point group: c1
    Full point group: C1

    Geometry (in Angstrom), charge = 0, multiplicity = 1:

    C            1.638228759196    -0.258768891248     0.093957258754
    C            0.176048282414    -0.024144824762     0.016339011568
    C           -1.965065180048    -0.251218649522    -1.068667207105
    C           -2.564666548806     0.470510253294    -0.035621822250
    C           -0.594984867576    -0.502013291362    -1.048704295731
    C           -1.790317150848     0.944959449261     1.024651351386
    C           -0.420900279956     0.699461863782     1.053499270125
    O            2.112305973372    -0.970549654496    -0.964078039426
    O            2.364610164460     0.130563472324     0.994361260254
    H           -0.123400970729    -1.062523120894    -1.849131642338
    H           -2.255887565483     1.507137775752     1.829789768246
    H            0.201194292255     1.058653649957     1.867974563113
    H           -2.567984929854    -0.620529974136    -1.894039275404
    H           -3.634323312894     0.663017517208    -0.056854206569
    H            3.073918340046    -1.059484584052    -0.800495442917

	Removing binary optimization data file.
	Cleaning optimization helper files.

    Psi4 stopped on: Thursday, 04 November 2021 08:54PM
    Psi4 wall time for execution: 0:06:12.19

*** Psi4 exiting successfully. Buy a developer a beer!
