Generated by Psi4
        SP                        DF-MP2                      6-311G**
Number of atoms                            I                5
Charge                                     I                0
Multiplicity                               I                1
Number of electrons                        I               74
Number of alpha electrons                  I               37
Number of beta electrons                   I               37
Number of basis functions                  I              122
Number of independent functions            I              122
Atomic numbers                             I   N=           5
          17          17          17          17           6
Nuclear charges                            R   N=           5
  1.70000000e+01  1.70000000e+01  1.70000000e+01  1.70000000e+01  6.00000000e+00
Current cartesian coordinates              R   N=          15
 -1.70109523e+00 -9.58959213e-01  2.71362160e+00 -1.34846848e+00  2.80184650e+00
 -1.22796837e+00 -1.40020317e-01 -2.41070721e+00 -2.31261279e+00  3.18964046e+00
  5.67768236e-01  8.26782851e-01 -1.64471966e-04  1.50599878e-04  5.14943934e-04
Integer atomic weights                     I   N=           5
          34          34          34          34          12
Real atomic weights                        R   N=           5
  3.49688527e+01  3.49688527e+01  3.49688527e+01  3.49688527e+01  1.20000000e+01
Number of primitive shells                 I              113
Number of contracted shells                I               56
Pure/Cartesian d shells                    I                0
Pure/Cartesian f shells                    I                0
Highest angular momentum                   I                2
Largest degree of contraction              I                6
Shell types                                I   N=          56
           0           0           0           0           0           0
           1           1           1           1           1          -2
           0           0           0           0           0           0
           1           1           1           1           1          -2
           0           0           0           0           0           0
           1           1           1           1           1          -2
           0           0           0           0           0           0
           1           1           1           1           1          -2
           0           0           1           0           1           0
           1          -2
Number of primitives per shell             I   N=          56
           6           3           1           1           1           1
           5           2           1           1           1           1
           6           3           1           1           1           1
           5           2           1           1           1           1
           6           3           1           1           1           1
           5           2           1           1           1           1
           6           3           1           1           1           1
           5           2           1           1           1           1
           6           3           3           1           1           1
           1           1
Shell to atom map                          I   N=          56
           1           1           1           1           1           1
           1           1           1           1           1           1
           2           2           2           2           2           2
           2           2           2           2           2           2
           3           3           3           3           3           3
           3           3           3           3           3           3
           4           4           4           4           4           4
           4           4           4           4           4           4
           5           5           5           5           5           5
           5           5
Primitive exponents                        R   N=         113
  1.05819000e+05  1.58720000e+04  3.61965000e+03  1.03080000e+03  3.39908000e+02
  1.24538000e+02  1.24538000e+02  4.95135000e+01  2.08056000e+01  6.58346000e+00
  2.56468000e+00  5.59763000e-01  1.83273000e-01  5.89776000e+02  1.39849000e+02
  4.51413000e+01  1.68733000e+01  6.74110000e+00  6.74110000e+00  2.77152000e+00
  1.02387000e+00  3.81368000e-01  1.09437000e-01  7.50000000e-01  1.05819000e+05
  1.58720000e+04  3.61965000e+03  1.03080000e+03  3.39908000e+02  1.24538000e+02
  1.24538000e+02  4.95135000e+01  2.08056000e+01  6.58346000e+00  2.56468000e+00
  5.59763000e-01  1.83273000e-01  5.89776000e+02  1.39849000e+02  4.51413000e+01
  1.68733000e+01  6.74110000e+00  6.74110000e+00  2.77152000e+00  1.02387000e+00
  3.81368000e-01  1.09437000e-01  7.50000000e-01  1.05819000e+05  1.58720000e+04
  3.61965000e+03  1.03080000e+03  3.39908000e+02  1.24538000e+02  1.24538000e+02
  4.95135000e+01  2.08056000e+01  6.58346000e+00  2.56468000e+00  5.59763000e-01
  1.83273000e-01  5.89776000e+02  1.39849000e+02  4.51413000e+01  1.68733000e+01
  6.74110000e+00  6.74110000e+00  2.77152000e+00  1.02387000e+00  3.81368000e-01
  1.09437000e-01  7.50000000e-01  1.05819000e+05  1.58720000e+04  3.61965000e+03
  1.03080000e+03  3.39908000e+02  1.24538000e+02  1.24538000e+02  4.95135000e+01
  2.08056000e+01  6.58346000e+00  2.56468000e+00  5.59763000e-01  1.83273000e-01
  5.89776000e+02  1.39849000e+02  4.51413000e+01  1.68733000e+01  6.74110000e+00
  6.74110000e+00  2.77152000e+00  1.02387000e+00  3.81368000e-01  1.09437000e-01
  7.50000000e-01  4.56324000e+03  6.82024000e+02  1.54973000e+02  4.44553000e+01
  1.30290000e+01  1.82773000e+00  2.09642000e+01  4.80331000e+00  1.45933000e+00
  2.09642000e+01  4.80331000e+00  1.45933000e+00  4.83456000e-01  4.83456000e-01
  1.45585000e-01  1.45585000e-01  6.26000000e-01
Contraction coefficients                   R   N=         113
  7.38000247e-04  5.71800191e-03  2.94950099e-02  1.17286039e-01  3.62949121e-01
  5.84149195e-01  1.34176973e-01  6.24249876e-01  2.91755942e-01  1.00000000e+00
  1.00000000e+00  1.00000000e+00  1.00000000e+00  2.39099969e-03  1.85039976e-02
  8.13769893e-02  2.21551971e-01  7.72568898e-01 -1.57224381e+00  9.92388882e-01
  1.00000000e+00  1.00000000e+00  1.00000000e+00  1.00000000e+00  7.38000247e-04
  5.71800191e-03  2.94950099e-02  1.17286039e-01  3.62949121e-01  5.84149195e-01
  1.34176973e-01  6.24249876e-01  2.91755942e-01  1.00000000e+00  1.00000000e+00
  1.00000000e+00  1.00000000e+00  2.39099969e-03  1.85039976e-02  8.13769893e-02
  2.21551971e-01  7.72568898e-01 -1.57224381e+00  9.92388882e-01  1.00000000e+00
  1.00000000e+00  1.00000000e+00  1.00000000e+00  7.38000247e-04  5.71800191e-03
  2.94950099e-02  1.17286039e-01  3.62949121e-01  5.84149195e-01  1.34176973e-01
  6.24249876e-01  2.91755942e-01  1.00000000e+00  1.00000000e+00  1.00000000e+00
  1.00000000e+00  2.39099969e-03  1.85039976e-02  8.13769893e-02  2.21551971e-01
  7.72568898e-01 -1.57224381e+00  9.92388882e-01  1.00000000e+00  1.00000000e+00
  1.00000000e+00  1.00000000e+00  7.38000247e-04  5.71800191e-03  2.94950099e-02
  1.17286039e-01  3.62949121e-01  5.84149195e-01  1.34176973e-01  6.24249876e-01
  2.91755942e-01  1.00000000e+00  1.00000000e+00  1.00000000e+00  1.00000000e+00
  2.39099969e-03  1.85039976e-02  8.13769893e-02  2.21551971e-01  7.72568898e-01
 -1.57224381e+00  9.92388882e-01  1.00000000e+00  1.00000000e+00  1.00000000e+00
  1.00000000e+00  1.96665025e-03  1.52306019e-02  7.61269097e-02  2.60801033e-01
  6.16462078e-01  2.21006028e-01  1.14660081e-01  9.19999648e-01 -3.03068213e-03
  4.02486927e-02  2.37593957e-01  8.15853851e-01  1.00000000e+00  1.00000000e+00
  1.00000000e+00  1.00000000e+00  1.00000000e+00
Coordinates of each shell                  R   N=         168
 -1.70109523e+00 -9.58959213e-01  2.71362160e+00 -1.70109523e+00 -9.58959213e-01
  2.71362160e+00 -1.70109523e+00 -9.58959213e-01  2.71362160e+00 -1.70109523e+00
 -9.58959213e-01  2.71362160e+00 -1.70109523e+00 -9.58959213e-01  2.71362160e+00
 -1.70109523e+00 -9.58959213e-01  2.71362160e+00 -1.70109523e+00 -9.58959213e-01
  2.71362160e+00 -1.70109523e+00 -9.58959213e-01  2.71362160e+00 -1.70109523e+00
 -9.58959213e-01  2.71362160e+00 -1.70109523e+00 -9.58959213e-01  2.71362160e+00
 -1.70109523e+00 -9.58959213e-01  2.71362160e+00 -1.70109523e+00 -9.58959213e-01
  2.71362160e+00 -1.34846848e+00  2.80184650e+00 -1.22796837e+00 -1.34846848e+00
  2.80184650e+00 -1.22796837e+00 -1.34846848e+00  2.80184650e+00 -1.22796837e+00
 -1.34846848e+00  2.80184650e+00 -1.22796837e+00 -1.34846848e+00  2.80184650e+00
 -1.22796837e+00 -1.34846848e+00  2.80184650e+00 -1.22796837e+00 -1.34846848e+00
  2.80184650e+00 -1.22796837e+00 -1.34846848e+00  2.80184650e+00 -1.22796837e+00
 -1.34846848e+00  2.80184650e+00 -1.22796837e+00 -1.34846848e+00  2.80184650e+00
 -1.22796837e+00 -1.34846848e+00  2.80184650e+00 -1.22796837e+00 -1.34846848e+00
  2.80184650e+00 -1.22796837e+00 -1.40020317e-01 -2.41070721e+00 -2.31261279e+00
 -1.40020317e-01 -2.41070721e+00 -2.31261279e+00 -1.40020317e-01 -2.41070721e+00
 -2.31261279e+00 -1.40020317e-01 -2.41070721e+00 -2.31261279e+00 -1.40020317e-01
 -2.41070721e+00 -2.31261279e+00 -1.40020317e-01 -2.41070721e+00 -2.31261279e+00
 -1.40020317e-01 -2.41070721e+00 -2.31261279e+00 -1.40020317e-01 -2.41070721e+00
 -2.31261279e+00 -1.40020317e-01 -2.41070721e+00 -2.31261279e+00 -1.40020317e-01
 -2.41070721e+00 -2.31261279e+00 -1.40020317e-01 -2.41070721e+00 -2.31261279e+00
 -1.40020317e-01 -2.41070721e+00 -2.31261279e+00  3.18964046e+00  5.67768236e-01
  8.26782851e-01  3.18964046e+00  5.67768236e-01  8.26782851e-01  3.18964046e+00
  5.67768236e-01  8.26782851e-01  3.18964046e+00  5.67768236e-01  8.26782851e-01
  3.18964046e+00  5.67768236e-01  8.26782851e-01  3.18964046e+00  5.67768236e-01
  8.26782851e-01  3.18964046e+00  5.67768236e-01  8.26782851e-01  3.18964046e+00
  5.67768236e-01  8.26782851e-01  3.18964046e+00  5.67768236e-01  8.26782851e-01
  3.18964046e+00  5.67768236e-01  8.26782851e-01  3.18964046e+00  5.67768236e-01
  8.26782851e-01  3.18964046e+00  5.67768236e-01  8.26782851e-01 -1.64471966e-04
  1.50599878e-04  5.14943934e-04 -1.64471966e-04  1.50599878e-04  5.14943934e-04
 -1.64471966e-04  1.50599878e-04  5.14943934e-04 -1.64471966e-04  1.50599878e-04
  5.14943934e-04 -1.64471966e-04  1.50599878e-04  5.14943934e-04 -1.64471966e-04
  1.50599878e-04  5.14943934e-04 -1.64471966e-04  1.50599878e-04  5.14943934e-04
 -1.64471966e-04  1.50599878e-04  5.14943934e-04
Total Energy                               R     -1.876555526215844e+03
Alpha Orbital Energies                     R   N=         122
  9.18182857e-09  9.18185709e-09  9.18188409e-09  9.24518086e-09  2.85203759e-07
  2.85247998e-07  2.85315314e-07  4.09819581e-07  7.45707405e-07  7.45714649e-07
  7.45743081e-07  7.61096331e-07  7.61099198e-07  7.98996008e-07  7.99009282e-07
  7.99026843e-07  2.57382738e-06  2.30135099e-05  2.30197217e-05  2.30264017e-05
  3.75690611e-05  7.22378541e-05  7.22465871e-05  7.22574467e-05  8.07464742e-05
  1.43626215e-04  1.43628925e-04  1.43634410e-04  1.66080479e-04  1.70022437e-04
  1.70040182e-04  1.70059737e-04  1.82425673e-04  1.82428239e-04  1.86685894e-04
  1.86688007e-04  1.86689869e-04  2.07183685e-04  2.07192866e-04  2.07203202e-04
  9.69099299e-04  9.69463117e-04  9.69829040e-04  1.00885987e-03  1.00897868e-03
  1.00911670e-03  1.18547041e-03  1.18548003e-03  1.67221089e-03  2.55778838e-03
  2.55783784e-03  2.55790717e-03  2.93401683e-03  2.96902982e-03  2.96925167e-03
  2.96950299e-03  3.40811621e-03  3.40846776e-03  3.40879487e-03  3.96765198e-03
  4.17482242e-03  4.17486680e-03  4.92946317e-03  4.92960848e-03  4.92977434e-03
  5.19616038e-03  5.19624540e-03  5.19633906e-03  5.38192619e-03  5.38206561e-03
  5.38218356e-03  5.54736927e-03  5.54751743e-03  5.54762736e-03  5.64460660e-03
  5.64465321e-03  7.21319493e-03  7.21332988e-03  8.54631554e-03  8.54719356e-03
  8.54803136e-03  1.92998929e-02  1.93061304e-02  1.93121075e-02  2.09471705e-02
  9.73602490e-01  9.73607854e-01  9.73613437e-01  9.80814080e-01  9.83419894e-01
  9.83420166e-01  9.83420430e-01  9.85209510e-01  9.85209831e-01  9.85210223e-01
  9.85430165e-01  9.85430379e-01  9.92921514e-01  9.92921921e-01  9.92922394e-01
  9.94237023e-01  1.00000000e+00  1.00000000e+00  1.00000000e+00  1.00000000e+00
  1.00000003e+00  1.00000017e+00  1.00000017e+00  1.00000017e+00  1.00000033e+00
  1.00000367e+00  1.00000367e+00  1.00000367e+00  1.00000387e+00  1.00001198e+00
  1.00001198e+00  1.00001198e+00  1.00001267e+00  1.00001267e+00  1.00001267e+00
  1.00001290e+00  1.00001290e+00
Alpha MO coefficients                      R   N=       14884
  1.16148451e+00 -1.44343214e+00  1.08884074e+00 -7.34189289e-01  3.06727197e-01
 -1.89207768e-01  7.66473152e-03  4.59002774e-03 -1.35440577e-02  7.44841037e-03
  4.52615796e-03 -1.34820429e-02 -7.82798363e-03 -4.21304062e-03  1.15158121e-02
  1.04242603e-02  4.54150929e-03 -1.01171464e-02 -3.10739705e-02 -1.67541591e-02
  4.58275938e-02 -1.13053417e-03 -1.15484056e-04  5.86209737e-04 -7.73913927e-04
 -3.75916431e-04 -8.06349077e-02  1.00208172e-01 -7.55872509e-02  5.09619645e-02
 -2.12801613e-02  1.31273295e-02 -1.70330215e-03  5.93095331e-04  1.79407932e-04
 -1.96645940e-03  5.09407568e-04  3.10082600e-04 -5.12754700e-04 -1.09104346e-03
  7.99676530e-04  5.75956651e-03  2.54580612e-03 -3.28006947e-03 -1.93770397e-03
 -4.33147720e-03  3.14356099e-03  7.38435077e-04 -1.47230720e-03  1.90075182e-04
  5.97653850e-04 -1.78130006e-03 -7.44600745e-02  9.25343236e-02 -6.97981984e-02
  4.70583178e-02 -1.96508905e-02  1.21235172e-02 -1.26177553e-03 -1.21366187e-03
 -1.42901529e-04 -1.52264638e-03 -1.30698850e-03 -1.41768295e-05 -8.56818388e-04
  3.16877239e-04  1.04958507e-03  5.97494068e-03  1.65732075e-03 -3.43484512e-03
 -3.31090233e-03  1.32158320e-03  4.16495717e-03  2.76506546e-04 -3.82308559e-04
 -8.37786626e-04 -1.44819753e-03  1.80413655e-03 -1.00815224e+00  1.25287548e+00
 -9.45078053e-01  6.37230168e-01 -2.66186332e-01  1.64175565e-01  1.31838554e-02
  2.14700476e-03  4.35118875e-03  1.29963059e-02  2.07096211e-03  4.50322918e-03
 -1.21296708e-02 -2.30458084e-03 -2.45510711e-03  1.31427556e-02  3.32046391e-03
 -1.21154793e-03 -4.83674111e-02 -9.17181782e-03 -9.87695278e-03  1.06523297e-03
  7.48695260e-04 -4.80471361e-04  1.13138690e-03  4.09119669e-04  1.00242624e-06
 -9.60068538e-07 -1.02487376e-02 -3.50339351e-03  5.24022739e-03  2.35576587e-05
  2.04387777e-02  6.98838736e-03 -1.04560609e-02 -7.81284024e-05 -6.64672849e-02
 -2.27071734e-02  3.39519507e-02 -5.55346334e-03  7.13329570e-03  3.17124325e-03
  2.92123527e-03 -3.12541065e-04 -6.56592087e-01  8.15977716e-01 -6.15522836e-01
  4.15034355e-01 -1.73387316e-01  1.06955468e-01 -5.70617670e-03 -2.63472987e-03
  6.76581462e-03 -5.88056546e-03 -2.60821572e-03  6.54213241e-03  3.40151899e-03
  2.34542386e-03 -7.14799544e-03  9.35183682e-04 -2.34656621e-03  1.00577922e-02
  1.36409596e-02  9.34297846e-03 -2.84015754e-02 -9.53130649e-04 -1.76388295e-03
  1.41180932e-04 -9.66976863e-04 -2.74524639e-04  8.35184072e-01 -1.03792220e+00
  7.82943276e-01 -5.27921640e-01  2.20545534e-01 -1.36037523e-01  4.36179770e-03
 -1.03191199e-02  3.36941236e-03  4.23841305e-03 -1.03309617e-02  3.12880078e-03
 -4.45694124e-03  8.34539653e-03 -4.49551638e-03  5.94093248e-03 -6.17087987e-03
  8.36483353e-03 -1.77139764e-02  3.32473378e-02 -1.78382556e-02  1.70947722e-03
  8.73061890e-04  7.68789610e-04 -9.20681289e-06 -4.24253074e-05  6.95586761e-01
 -8.64436525e-01  6.52068492e-01 -4.39666231e-01  1.83663438e-01 -1.13267532e-01
 -2.59506362e-04  7.70357072e-03  5.96920155e-03 -4.06094474e-04  7.78212016e-03
  5.74175222e-03 -8.48840488e-04 -5.72401996e-03 -6.52312557e-03  3.64000434e-03
  2.79019119e-03  9.64919695e-03 -3.33239037e-03 -2.28773507e-02 -2.59707283e-02
  1.10688460e-03  1.38685412e-03 -1.14480429e-03 -3.21830272e-04 -5.84132499e-04
 -8.74629590e-01  1.08694117e+00 -8.19910806e-01  5.52837325e-01 -2.30941295e-01
  1.42433032e-01  1.17939607e-02  2.41420366e-03  2.00705810e-03  1.17086044e-02
  2.46629430e-03  1.75925607e-03 -1.02545934e-02 -1.59527218e-03 -3.43262477e-03
  9.62330963e-03  1.62586563e-04  7.68647103e-03 -4.09405990e-02 -6.39239204e-03
 -1.35958223e-02 -1.93165907e-03 -1.44262480e-04  5.72067818e-04 -1.08273366e-04
  6.96864038e-05  4.01606555e-06 -6.25282278e-06 -5.84587065e-03  1.61761964e-03
 -1.03817631e-02  8.50799666e-06  1.16532608e-02 -3.23199800e-03  2.07019088e-02
 -4.30318194e-05 -3.79382167e-02  1.04538973e-02 -6.73344937e-02  3.48097497e-04
 -2.04549584e-03 -1.99709754e-03  8.26102961e-03  4.86180400e-03 -4.49639537e-02
  5.58794043e-02 -4.21554711e-02  2.84294728e-02 -1.18867053e-02  7.33123149e-03
 -7.03131064e-05 -1.55240286e-03  1.87060458e-04 -1.29346042e-05 -1.84284263e-03
  1.11434158e-04  4.72582956e-04 -8.34721453e-04 -6.99736515e-04 -1.53377141e-03
  6.56695378e-03  2.07960001e-03  1.85425611e-03 -3.23443928e-03 -2.74896656e-03
  5.03009980e-05  3.03700108e-04  4.07822864e-04 -1.08006727e-03  2.20590765e-03
 -1.03827690e+00  1.29031528e+00 -9.73333957e-01  6.56300171e-01 -2.74183482e-01
  1.69114046e-01 -6.01212040e-03  1.17073052e-02 -6.09316054e-03 -5.98454132e-03
  1.14832388e-02 -6.20000682e-03  5.11133626e-03 -1.11872595e-02  4.20468004e-03
 -4.48936390e-03  1.31684087e-02 -1.05166944e-03  2.03496996e-02 -4.45021339e-02
  1.67868586e-02  9.09907369e-04  1.16663487e-03 -1.26602447e-04 -6.93722147e-04
 -6.98107365e-04  1.13782042e+00 -1.41401888e+00  1.06662806e+00 -7.19181673e-01
  3.00415975e-01 -1.85266819e-01  9.88603543e-04  1.09152869e-02  1.14081084e-02
  1.05110043e-03  1.06881661e-02  1.13896382e-02 -3.54982926e-04 -1.05623515e-02
 -9.45398567e-03 -1.00344556e-03  1.27483151e-02  7.63839909e-03 -1.43866320e-03
 -4.21427435e-02 -3.77807870e-02 -9.36615764e-04 -9.36523965e-04 -4.56783107e-04
  6.75943724e-04  4.08276341e-04 -5.27953083e-02  6.56115969e-02 -4.94957208e-02
  3.33773352e-02 -1.39499728e-02  8.59907743e-03  1.03858543e-03 -1.21973714e-03
 -1.66650518e-04  1.10095758e-03 -1.50863444e-03 -2.44038069e-04 -3.95725481e-04
 -1.09468495e-03 -4.23306884e-04 -9.71882401e-04  6.73256218e-03  1.90030202e-03
 -1.57597757e-03 -4.26135375e-03 -1.64792367e-03  5.09674892e-04 -7.26233439e-04
  1.65640135e-03  1.03531114e-03 -1.29741202e-03 -1.18544624e-06  1.24878099e-06
  2.32276817e-03 -1.13854003e-02 -3.06615737e-03 -2.39551937e-05 -4.63296720e-03
  2.26978968e-02  6.10784299e-03  8.00620992e-05  1.50581062e-02 -7.38596478e-02
 -1.99214196e-02 -3.12440982e-03  1.12099957e-03 -8.70780311e-03  3.95611242e-04
 -3.60575494e-03 -7.71218375e-01  9.56882741e-01 -7.13251572e-01  4.69907760e-01
 -1.76848432e-01  1.03287218e-01  3.59096692e-03  2.02085820e-03 -5.72097191e-03
  3.33909212e-03  1.87874657e-03 -5.31935593e-03 -4.45193237e-03 -2.50823516e-03
  7.09597544e-03  8.31663122e-03  4.69212679e-03 -1.32659333e-02  8.53550325e-03
  4.81084780e-03 -1.36086094e-02  2.48520431e-03 -3.64161000e-03 -2.05334961e-03
  7.79081876e-04  1.28948709e-03 -7.71301109e-01  9.56984980e-01 -7.13325697e-01
  4.69954194e-01 -1.76861228e-01  1.03278506e-01  2.85017812e-03 -5.91810518e-03
  2.59342352e-03  2.65063651e-03 -5.50331295e-03  2.41142271e-03 -3.53125538e-03
  7.33583309e-03 -3.21620817e-03  6.59219000e-03 -1.37023340e-02  6.00995289e-03
  6.76122354e-03 -1.40460995e-02  6.16085309e-03 -1.51486788e-03  1.30946700e-03
 -2.71709080e-03 -2.38116613e-03 -2.98110446e-03 -7.70024512e-01  9.55397523e-01
 -7.12123434e-01  4.69138500e-01 -1.76515444e-01  1.03041813e-01  3.02310450e-04
  5.13119876e-03  4.92419565e-03  2.81551225e-04  4.77348464e-03  4.58094750e-03
 -3.71263532e-04 -6.34718559e-03 -6.09063212e-03  6.84415645e-04  1.18189713e-02
  1.13394551e-02  6.99781144e-04  1.20216948e-02  1.15375113e-02  1.10991187e-03
  2.55860054e-04  4.40655866e-03 -2.28642379e-03  2.66030540e-04 -7.69950212e-01
  9.55305763e-01 -7.12057199e-01  4.69097368e-01 -1.76504832e-01  1.03051819e-01
 -6.77856688e-03 -1.21001072e-03 -1.75699816e-03 -6.30522820e-03 -1.12575503e-03
 -1.63454046e-03  8.39005425e-03  1.49560968e-03  2.17325174e-03 -1.56349194e-02
 -2.78164768e-03 -4.04775724e-03 -1.59170396e-02 -2.83391853e-03 -4.12116798e-03
 -2.08253265e-03  2.08034148e-03  3.72271064e-04  3.89115065e-03  1.42965709e-03
  1.13720947e-02 -1.70451094e-02  1.13850133e-05 -7.06810802e-06 -6.84192100e-06
  4.25797096e-02 -2.38546622e-05  1.50727842e-05  1.66894952e-05 -1.69745878e-01
  5.69852335e-05 -3.50126468e-05 -3.07606567e-05  3.31422004e-06 -8.64776823e-06
 -1.68504008e-05 -2.82728982e-06 -3.91687351e-06 -3.64965272e-03 -3.19577873e-03
  3.27519688e-02 -4.32343861e-02  2.53693802e-02  9.59464108e-03  4.12196090e-01
  2.93266511e-01 -6.07040236e-01  4.11016306e-01  2.90182755e-01 -6.07153031e-01
 -3.12162016e-01 -2.35891055e-01  4.48350352e-01  1.88738326e-01  1.70660035e-01
 -2.47982415e-01 -5.36847405e-02 -1.10847178e-02  1.01433836e-01 -7.29139589e-03
 -7.84219807e-03 -2.23258672e-02 -3.36453617e-04  1.40602860e-02 -5.93376124e-03
 -5.20121900e-03  5.32755624e-02 -7.03265743e-02  4.12775549e-02  1.55506375e-02
  5.31140041e-01 -1.03906515e+00  5.30639014e-01  5.29635437e-01 -1.03850095e+00
  5.27410828e-01 -4.02144421e-01  7.72087633e-01 -4.12368824e-01  2.42947474e-01
 -4.36717325e-01  2.70677830e-01 -6.93675410e-02  1.64449961e-01 -4.84734923e-02
  3.72241105e-03  1.43729441e-02 -2.63580200e-02  1.24053737e-03 -1.30064212e-02
  1.37394561e-02  1.20799661e-02 -1.23528365e-01  1.63047956e-01 -9.56766560e-02
 -3.60544640e-02 -1.26051259e-01 -2.13659138e+00 -2.06110002e+00 -1.25757401e-01
 -2.13302641e+00 -2.05723715e+00  9.50498792e-02  1.60238526e+00  1.54837524e+00
 -5.66349534e-02 -9.36909356e-01 -9.10679028e-01  1.72238728e-02  3.09031016e-01
  2.92992039e-01 -1.41163188e-02 -3.01962611e-03 -4.75533216e-02  2.31816507e-02
 -3.43144819e-03 -4.18393490e-03 -3.67380570e-03  3.75960600e-02 -4.96285620e-02
  2.91206650e-02  1.10260213e-02 -8.83327482e-01 -9.58671067e-02 -1.81149447e-01
 -8.80959981e-01 -9.78852605e-02 -1.82429404e-01  6.67971227e-01  5.85118733e-02
  1.26136049e-01 -4.01862486e-01 -6.75496497e-03 -5.38182110e-02  1.16981937e-01
  4.01721591e-02  4.53179712e-02 -1.26289926e-02 -3.93135039e-03 -8.56653743e-03
  2.21666121e-02 -1.11541569e-02  1.91490629e-04 -2.03205324e-04  1.85397902e-05
 -2.67501096e-04 -2.06468531e-04 -4.89338330e-05 -2.55142344e-03 -1.14662082e-01
 -8.92687413e-02 -1.34224651e-04 -3.12209516e-03 -1.39787971e-01 -1.08865834e-01
  2.93879940e-02  4.00032850e-04  1.01548954e-01 -4.48344197e-02  1.31160747e-02
  1.08100495e-03  9.46274453e-04 -9.69813589e-03  1.27998466e-02 -7.52088224e-03
 -2.75275138e-03 -1.84260446e-01 -3.90983970e-02  1.57726740e-01 -1.81440788e-01
 -4.00879205e-02  1.58637924e-01  1.53628310e-01  2.28375766e-02 -1.11071440e-01
 -1.21495160e-01 -3.96666727e-05  5.01233847e-02 -3.69835456e-03  1.83929549e-02
 -3.70127152e-02  1.11773602e-02  1.36308592e-02 -8.79986432e-03 -1.58230524e-02
 -4.47442975e-03 -1.12313962e-02 -9.84714372e-03  1.00848523e-01 -1.33120660e-01
  7.81200771e-02  2.95189849e-02  9.40248698e-01 -2.05425493e+00  8.77532477e-01
  9.39990259e-01 -2.04972725e+00  8.76471964e-01 -6.97112507e-01  1.54740833e+00
 -6.55649121e-01  3.91107685e-01 -9.18709008e-01  3.78294311e-01 -1.51838719e-01
  2.83872456e-01 -1.31812767e-01 -1.46021031e-02  4.97646356e-03 -2.26976041e-02
 -3.26801999e-02 -2.01535269e-02 -1.12029533e-03 -9.85444714e-04  1.00757378e-02
 -1.33011101e-02  7.79558593e-03  3.03066241e-03 -5.20380665e-02  2.08675485e-01
  1.35927262e-01 -4.95800515e-02  2.07007466e-01  1.36896223e-01  5.36001080e-02
 -1.64618281e-01 -9.45944813e-02 -6.12325790e-02  1.12920911e-01  4.02463898e-02
 -2.11004097e-02 -1.42524820e-02 -3.40845293e-02 -1.00868543e-02 -1.30187333e-02
  2.66584087e-03 -1.29235952e-02 -1.46360600e-02  1.12593363e-02  9.88853074e-03
 -1.01177949e-01  1.33548564e-01 -7.83653766e-02 -2.95710521e-02  2.31890072e+00
  4.53178887e-01  5.80646951e-01  2.31487102e+00  4.50842777e-01  5.80399883e-01
 -1.74010670e+00 -3.49585555e-01 -4.31035191e-01  1.01949844e+00  2.24337278e-01
  2.42934355e-01 -3.33458806e-01 -4.64710240e-02 -9.26996777e-02  1.98500652e-02
 -1.13637345e-02 -6.07910725e-03 -3.24076164e-02 -2.50336165e-02  8.86264128e-05
 -9.73329279e-05  3.08992245e-04 -1.81544597e-04  1.91076094e-04  3.96485631e-05
  1.16353629e-01 -5.50870948e-02  6.74258893e-02 -2.07161969e-04  1.42009036e-01
 -6.71884675e-02  8.22771734e-02 -6.14741600e-03  5.61037303e-03  3.37957919e-02
  9.08712973e-02  6.22673773e-02  1.33279567e-02  1.16725013e-02 -1.19613147e-01
  1.57893470e-01 -9.26619427e-02 -3.50706844e-02 -1.45311170e+00 -8.08075239e-01
  2.34272195e+00 -1.45086660e+00 -8.07262169e-01  2.33815481e+00  1.08870790e+00
  6.02752705e-01 -1.76104631e+00 -6.34392288e-01 -3.45722475e-01  1.03811000e+00
  2.12359851e-01  1.23353326e-01 -3.30918992e-01 -3.09533821e-02  3.78495778e-02
  1.77772263e-02 -7.59549149e-03 -1.03149016e-02 -5.51583213e-03 -4.83637596e-03
  4.95282011e-02 -6.53757848e-02  3.83723204e-02  1.44619389e-02  5.39217210e-01
 -9.85658784e-01  3.99056556e-01  5.36008856e-01 -9.84361198e-01  3.99811918e-01
 -4.18590825e-01  7.37089299e-01 -2.90547662e-01  2.73881966e-01 -4.26627592e-01
  1.51967704e-01 -5.01099821e-02  1.46754061e-01 -7.48737485e-02 -1.55207160e-02
  9.99744981e-03  6.06114200e-04  4.01367007e-04 -2.61536471e-02 -9.35849552e-04
 -8.23581621e-04  8.41610941e-03 -1.11055077e-02  6.51339379e-03  2.45123729e-03
  5.53745928e-02  1.87423781e-01  9.42114494e-02  5.34900781e-02  1.85511866e-01
  9.58010253e-02 -5.25430430e-02 -1.50390864e-01 -5.99165051e-02  5.33134162e-02
  1.08094250e-01  1.29936881e-02  1.36290741e-02 -7.80370527e-03 -3.46990022e-02
 -1.77580592e-02  1.20538972e-02  2.44901239e-03 -9.74156469e-03  9.67679198e-03
 -6.85350919e-03 -6.02004659e-03  6.15912334e-02 -8.12967662e-02  4.77014559e-02
  1.80651630e-02 -1.40290514e+00 -2.20322064e-01 -4.25159360e-01 -1.40079969e+00
 -2.21118814e-01 -4.22148469e-01  1.05070403e+00  1.58080538e-01  3.33004228e-01
 -6.11428817e-01 -7.77553488e-02 -2.23732831e-01  2.05723944e-01  4.59170880e-02
  3.36953529e-02 -5.17258415e-03  2.92210866e-02  3.33287652e-03  1.82484447e-02
 -3.07293326e-03 -1.56813056e-04  1.66435079e-04 -2.63188534e-04 -2.27436583e-04
  3.21642530e-04  4.04990249e-05 -8.70192713e-02 -7.02824060e-02  9.27533288e-02
  1.07446530e-04 -1.06330627e-01 -8.58345176e-02  1.13305168e-01  6.71700629e-02
 -8.62537095e-02 -2.33746968e-02 -1.28609609e-03  2.88897953e-02 -1.03939753e-03
  3.13234715e-03 -6.60117374e-03 -2.34117288e-03  1.05560322e-01 -3.89871720e-01
 -8.92301538e-01 -5.02869761e-01  1.42289602e+00 -8.88123722e-01 -5.00513266e-01
  1.41622932e+00  6.89751962e-01  3.88734336e-01 -1.09993481e+00 -4.58169479e-01
 -2.58253494e-01  7.30711889e-01  7.44288710e-02  4.19264586e-02 -1.18684020e-01
 -2.72967827e-02  3.99896767e-02  2.25527007e-02 -8.54979552e-03 -1.41396236e-02
 -1.04270590e-03  3.13143490e-03 -6.58250067e-03 -2.36262152e-03  1.05559507e-01
 -3.89858884e-01 -7.07060539e-01  1.46891786e+00 -6.43943384e-01 -7.03749129e-01
  1.46203554e+00 -6.40926961e-01  5.46566842e-01 -1.13551153e+00  4.97782384e-01
 -3.63079150e-01  7.54354604e-01 -3.30689517e-01  5.89799073e-02 -1.22501641e-01
  5.36874417e-02  1.66310222e-02 -1.43479605e-02  2.98127583e-02  2.61295977e-02
  3.27229325e-02 -1.05830260e-03  3.12829837e-03 -6.49150527e-03 -2.48655759e-03
  1.05630558e-01 -3.89686105e-01 -7.35744999e-02 -1.26319970e+00 -1.21203135e+00
 -7.32320799e-02 -1.25728236e+00 -1.20635559e+00  5.68582043e-02  9.76477850e-01
  9.36912382e-01 -3.77287783e-02 -6.48669970e-01 -6.22362710e-01  6.14452392e-03
  1.05320553e-01  1.01055249e-01 -1.21582778e-02 -2.79807504e-03 -4.82658213e-02
  2.50669162e-02 -2.91571347e-03 -1.05500536e-03  3.12918191e-03 -6.51000279e-03
 -2.46530787e-03  1.05631413e-01 -3.89699088e-01  1.67187485e+00  2.97743924e-01
  4.33196467e-01  1.66404485e+00  2.96351035e-01  4.31166988e-01 -1.29237992e+00
 -2.30147866e-01 -3.34869261e-01  8.58487906e-01  1.52848453e-01  2.22447904e-01
 -1.39409656e-01 -2.48329879e-02 -3.61395761e-02  2.28203998e-02 -2.28233135e-02
 -4.06461990e-03 -4.26535503e-02 -1.56748457e-02  2.56502187e-01 -2.93231091e-01
 -3.30012069e-05  2.31715412e-05  4.36325930e-05 -1.57962847e-01 -5.59053640e-05
  3.95432093e-05  7.65407798e-05  9.93481815e-01 -1.10785695e-04  4.97884211e-05
 -9.16600048e-05  2.08838147e-08 -1.69761181e-05 -2.83273318e-05  7.03788210e-06
  1.28137406e-05  1.83010531e-03 -3.04201259e-03  8.65301636e-03 -1.88914747e-02
  7.70491847e-02 -2.41946118e-01  2.34590223e-02 -2.79445586e-01 -1.70911151e-01
  2.65568317e-02 -2.79384657e-01 -1.76622026e-01  1.94409027e-03  2.10626815e-01
  9.24651330e-02 -4.65081265e-02 -1.33078114e-01  2.54578531e-02 -1.83803085e-02
  1.31745312e-02  4.01979841e-02 -4.66284811e-03  8.85147571e-03  7.14726831e-03
 -6.70968539e-04 -5.64552087e-03 -4.27078194e-04  7.08447319e-04 -2.01141996e-03
  4.39618787e-03 -1.79639215e-02  5.64446588e-02  1.22319877e+00 -9.77248213e-02
 -1.61011301e+00  1.22969424e+00 -9.71490835e-02 -1.61988470e+00 -8.79193679e-01
  7.71657817e-02  1.14956642e+00  4.56806945e-01 -5.68485427e-02 -5.78586268e-01
 -9.53954919e-02  1.49639324e-03  1.32340797e-01 -1.19896054e-02 -6.15892272e-03
  1.11520142e-02  4.49271238e-03 -1.55492682e-02 -8.70858833e-04  1.45116079e-03
 -4.13672797e-03  9.01959804e-03 -3.67174719e-02  1.15203082e-01  1.07862433e+00
  9.72102403e-01 -1.12742651e+00  1.08472082e+00  9.75701374e-01 -1.13583892e+00
 -7.72947014e-01 -7.08597311e-01  7.95017615e-01  3.95965482e-01  3.92074999e-01
 -3.75972025e-01 -8.62564699e-02 -6.70829916e-02  1.01487334e-01 -1.25333959e-02
  5.01019755e-03  3.10042154e-03 -1.18696970e-02  1.28366186e-02 -5.30576155e-04
  8.83784397e-04 -2.51919993e-03  5.49530056e-03 -2.23859156e-02  7.02785978e-02