Generated by Psi4
        SP                        DF-MP2                   AUG-CC-PVTZ
Number of atoms                            I                5
Charge                                     I                0
Multiplicity                               I                1
Number of electrons                        I               74
Number of alpha electrons                  I               37
Number of beta electrons                   I               37
Number of basis functions                  I              246
Number of independent functions            I              246
Atomic numbers                             I   N=           5
          17          17          17          17           6
Nuclear charges                            R   N=           5
  1.70000000e+01  1.70000000e+01  1.70000000e+01  1.70000000e+01  6.00000000e+00
Current cartesian coordinates              R   N=          15
 -1.70109523e+00 -9.58959213e-01  2.71362160e+00 -1.34846848e+00  2.80184650e+00
 -1.22796837e+00 -1.40020317e-01 -2.41070721e+00 -2.31261279e+00  3.18964046e+00
  5.67768236e-01  8.26782851e-01 -1.64471966e-04  1.50599878e-04  5.14943934e-04
Integer atomic weights                     I   N=           5
          34          34          34          34          12
Real atomic weights                        R   N=           5
  3.49688527e+01  3.49688527e+01  3.49688527e+01  3.49688527e+01  1.20000000e+01
Number of primitive shells                 I              286
Number of contracted shells                I               78
Pure/Cartesian d shells                    I                0
Pure/Cartesian f shells                    I                0
Highest angular momentum                   I                3
Largest degree of contraction              I               13
Shell types                                I   N=          78
           0           0           0           0           0           1
           1           1           1          -2          -2          -3
           0           1          -2          -3           0           0
           0           0           0           1           1           1
           1          -2          -2          -3           0           1
          -2          -3           0           0           0           0
           0           1           1           1           1          -2
          -2          -3           0           1          -2          -3
           0           0           0           0           0           1
           1           1           1          -2          -2          -3
           0           1          -2          -3           0           0
           0           0           1           1           1          -2
          -2          -3           0           1          -2          -3
Number of primitives per shell             I   N=          78
          13          13          13           1           1           7
           7           1           1           1           1           1
           1           1           1           1          13          13
          13           1           1           7           7           1
           1           1           1           1           1           1
           1           1          13          13          13           1
           1           7           7           1           1           1
           1           1           1           1           1           1
          13          13          13           1           1           7
           7           1           1           1           1           1
           1           1           1           1           8           8
           1           1           3           1           1           1
           1           1           1           1           1           1
Shell to atom map                          I   N=          78
           1           1           1           1           1           1
           1           1           1           1           1           1
           1           1           1           1           2           2
           2           2           2           2           2           2
           2           2           2           2           2           2
           2           2           3           3           3           3
           3           3           3           3           3           3
           3           3           3           3           3           3
           4           4           4           4           4           4
           4           4           4           4           4           4
           4           4           4           4           5           5
           5           5           5           5           5           5
           5           5           5           5           5           5
Primitive exponents                        R   N=         286
  4.56100000e+05  6.83300000e+04  1.55500000e+04  4.40500000e+03  1.43900000e+03
  5.20400000e+02  2.03100000e+02  8.39600000e+01  3.62000000e+01  1.58300000e+01
  6.33400000e+00  2.69400000e+00  4.31300000e-01  4.56100000e+05  6.83300000e+04
  1.55500000e+04  4.40500000e+03  1.43900000e+03  5.20400000e+02  2.03100000e+02
  8.39600000e+01  3.62000000e+01  1.58300000e+01  6.33400000e+00  2.69400000e+00
  4.31300000e-01  4.56100000e+05  6.83300000e+04  1.55500000e+04  4.40500000e+03
  1.43900000e+03  5.20400000e+02  2.03100000e+02  8.39600000e+01  3.62000000e+01
  1.58300000e+01  6.33400000e+00  2.69400000e+00  4.31300000e-01  9.76800000e-01
  1.62500000e-01  6.63300000e+02  1.56800000e+02  4.99800000e+01  1.84200000e+01
  7.24000000e+00  2.92200000e+00  3.81800000e-01  6.63300000e+02  1.56800000e+02
  4.99800000e+01  1.84200000e+01  7.24000000e+00  2.92200000e+00  3.81800000e-01
  1.02200000e+00  1.30100000e-01  1.04600000e+00  3.44000000e-01  7.06000000e-01
  5.91000000e-02  4.19000000e-02  1.35000000e-01  3.12000000e-01  4.56100000e+05
  6.83300000e+04  1.55500000e+04  4.40500000e+03  1.43900000e+03  5.20400000e+02
  2.03100000e+02  8.39600000e+01  3.62000000e+01  1.58300000e+01  6.33400000e+00
  2.69400000e+00  4.31300000e-01  4.56100000e+05  6.83300000e+04  1.55500000e+04
  4.40500000e+03  1.43900000e+03  5.20400000e+02  2.03100000e+02  8.39600000e+01
  3.62000000e+01  1.58300000e+01  6.33400000e+00  2.69400000e+00  4.31300000e-01
  4.56100000e+05  6.83300000e+04  1.55500000e+04  4.40500000e+03  1.43900000e+03
  5.20400000e+02  2.03100000e+02  8.39600000e+01  3.62000000e+01  1.58300000e+01
  6.33400000e+00  2.69400000e+00  4.31300000e-01  9.76800000e-01  1.62500000e-01
  6.63300000e+02  1.56800000e+02  4.99800000e+01  1.84200000e+01  7.24000000e+00
  2.92200000e+00  3.81800000e-01  6.63300000e+02  1.56800000e+02  4.99800000e+01
  1.84200000e+01  7.24000000e+00  2.92200000e+00  3.81800000e-01  1.02200000e+00
  1.30100000e-01  1.04600000e+00  3.44000000e-01  7.06000000e-01  5.91000000e-02
  4.19000000e-02  1.35000000e-01  3.12000000e-01  4.56100000e+05  6.83300000e+04
  1.55500000e+04  4.40500000e+03  1.43900000e+03  5.20400000e+02  2.03100000e+02
  8.39600000e+01  3.62000000e+01  1.58300000e+01  6.33400000e+00  2.69400000e+00
  4.31300000e-01  4.56100000e+05  6.83300000e+04  1.55500000e+04  4.40500000e+03
  1.43900000e+03  5.20400000e+02  2.03100000e+02  8.39600000e+01  3.62000000e+01
  1.58300000e+01  6.33400000e+00  2.69400000e+00  4.31300000e-01  4.56100000e+05
  6.83300000e+04  1.55500000e+04  4.40500000e+03  1.43900000e+03  5.20400000e+02
  2.03100000e+02  8.39600000e+01  3.62000000e+01  1.58300000e+01  6.33400000e+00
  2.69400000e+00  4.31300000e-01  9.76800000e-01  1.62500000e-01  6.63300000e+02
  1.56800000e+02  4.99800000e+01  1.84200000e+01  7.24000000e+00  2.92200000e+00
  3.81800000e-01  6.63300000e+02  1.56800000e+02  4.99800000e+01  1.84200000e+01
  7.24000000e+00  2.92200000e+00  3.81800000e-01  1.02200000e+00  1.30100000e-01
  1.04600000e+00  3.44000000e-01  7.06000000e-01  5.91000000e-02  4.19000000e-02
  1.35000000e-01  3.12000000e-01  4.56100000e+05  6.83300000e+04  1.55500000e+04
  4.40500000e+03  1.43900000e+03  5.20400000e+02  2.03100000e+02  8.39600000e+01
  3.62000000e+01  1.58300000e+01  6.33400000e+00  2.69400000e+00  4.31300000e-01
  4.56100000e+05  6.83300000e+04  1.55500000e+04  4.40500000e+03  1.43900000e+03
  5.20400000e+02  2.03100000e+02  8.39600000e+01  3.62000000e+01  1.58300000e+01
  6.33400000e+00  2.69400000e+00  4.31300000e-01  4.56100000e+05  6.83300000e+04
  1.55500000e+04  4.40500000e+03  1.43900000e+03  5.20400000e+02  2.03100000e+02
  8.39600000e+01  3.62000000e+01  1.58300000e+01  6.33400000e+00  2.69400000e+00
  4.31300000e-01  9.76800000e-01  1.62500000e-01  6.63300000e+02  1.56800000e+02
  4.99800000e+01  1.84200000e+01  7.24000000e+00  2.92200000e+00  3.81800000e-01
  6.63300000e+02  1.56800000e+02  4.99800000e+01  1.84200000e+01  7.24000000e+00
  2.92200000e+00  3.81800000e-01  1.02200000e+00  1.30100000e-01  1.04600000e+00
  3.44000000e-01  7.06000000e-01  5.91000000e-02  4.19000000e-02  1.35000000e-01
  3.12000000e-01  8.23600000e+03  1.23500000e+03  2.80800000e+02  7.92700000e+01
  2.55900000e+01  8.99700000e+00  3.31900000e+00  3.64300000e-01  8.23600000e+03
  1.23500000e+03  2.80800000e+02  7.92700000e+01  2.55900000e+01  8.99700000e+00
  3.31900000e+00  3.64300000e-01  9.05900000e-01  1.28500000e-01  1.87100000e+01
  4.13300000e+00  1.20000000e+00  3.82700000e-01  1.20900000e-01  1.09700000e+00
  3.18000000e-01  7.61000000e-01  4.40200000e-02  3.56900000e-02  1.00000000e-01
  2.68000000e-01
Contraction coefficients                   R   N=         286
  4.92941786e-05  3.83007078e-04  2.00842505e-03  8.38510007e-03  2.94686133e-02
  8.78274731e-02  2.11460897e-01  3.65343089e-01  3.40864490e-01  1.02127155e-01
  3.11657162e-03  1.05744948e-03  1.56127064e-04 -1.47034206e-05 -1.14050805e-04
 -6.00752909e-04 -2.51040623e-03 -8.99281123e-03 -2.76027210e-02 -7.29687441e-02
 -1.50829556e-01 -2.11900675e-01 -2.08012833e-02  5.31286306e-01  5.99320882e-01
 -8.87804707e-03  6.49541842e-06  5.03428836e-05  2.65537974e-04  1.10833025e-03
  3.98380676e-03  1.22375442e-02  3.27244651e-02  6.86349823e-02  1.01132715e-01
  9.35814761e-03 -3.20459741e-01 -6.29871500e-01  1.12615383e+00  1.00000000e+00
  1.00000000e+00  2.47384091e-03  1.97690804e-02  9.10628980e-02  2.63405289e-01
  4.49530829e-01  3.60439921e-01 -4.71646914e-03 -1.11774970e-03 -8.90307363e-03
 -4.23241575e-02 -1.24804829e-01 -2.29721907e-01 -1.62439080e-01  9.67816011e-01
  1.00000000e+00  1.00000000e+00  1.00000000e+00  1.00000000e+00  1.00000000e+00
  1.00000000e+00  1.00000000e+00  1.00000000e+00  1.00000000e+00  4.92941786e-05
  3.83007078e-04  2.00842505e-03  8.38510007e-03  2.94686133e-02  8.78274731e-02
  2.11460897e-01  3.65343089e-01  3.40864490e-01  1.02127155e-01  3.11657162e-03
  1.05744948e-03  1.56127064e-04 -1.47034206e-05 -1.14050805e-04 -6.00752909e-04
 -2.51040623e-03 -8.99281123e-03 -2.76027210e-02 -7.29687441e-02 -1.50829556e-01
 -2.11900675e-01 -2.08012833e-02  5.31286306e-01  5.99320882e-01 -8.87804707e-03
  6.49541842e-06  5.03428836e-05  2.65537974e-04  1.10833025e-03  3.98380676e-03
  1.22375442e-02  3.27244651e-02  6.86349823e-02  1.01132715e-01  9.35814761e-03
 -3.20459741e-01 -6.29871500e-01  1.12615383e+00  1.00000000e+00  1.00000000e+00
  2.47384091e-03  1.97690804e-02  9.10628980e-02  2.63405289e-01  4.49530829e-01
  3.60439921e-01 -4.71646914e-03 -1.11774970e-03 -8.90307363e-03 -4.23241575e-02
 -1.24804829e-01 -2.29721907e-01 -1.62439080e-01  9.67816011e-01  1.00000000e+00
  1.00000000e+00  1.00000000e+00  1.00000000e+00  1.00000000e+00  1.00000000e+00
  1.00000000e+00  1.00000000e+00  1.00000000e+00  4.92941786e-05  3.83007078e-04
  2.00842505e-03  8.38510007e-03  2.94686133e-02  8.78274731e-02  2.11460897e-01
  3.65343089e-01  3.40864490e-01  1.02127155e-01  3.11657162e-03  1.05744948e-03
  1.56127064e-04 -1.47034206e-05 -1.14050805e-04 -6.00752909e-04 -2.51040623e-03
 -8.99281123e-03 -2.76027210e-02 -7.29687441e-02 -1.50829556e-01 -2.11900675e-01
 -2.08012833e-02  5.31286306e-01  5.99320882e-01 -8.87804707e-03  6.49541842e-06
  5.03428836e-05  2.65537974e-04  1.10833025e-03  3.98380676e-03  1.22375442e-02
  3.27244651e-02  6.86349823e-02  1.01132715e-01  9.35814761e-03 -3.20459741e-01
 -6.29871500e-01  1.12615383e+00  1.00000000e+00  1.00000000e+00  2.47384091e-03
  1.97690804e-02  9.10628980e-02  2.63405289e-01  4.49530829e-01  3.60439921e-01
 -4.71646914e-03 -1.11774970e-03 -8.90307363e-03 -4.23241575e-02 -1.24804829e-01
 -2.29721907e-01 -1.62439080e-01  9.67816011e-01  1.00000000e+00  1.00000000e+00
  1.00000000e+00  1.00000000e+00  1.00000000e+00  1.00000000e+00  1.00000000e+00
  1.00000000e+00  1.00000000e+00  4.92941786e-05  3.83007078e-04  2.00842505e-03
  8.38510007e-03  2.94686133e-02  8.78274731e-02  2.11460897e-01  3.65343089e-01
  3.40864490e-01  1.02127155e-01  3.11657162e-03  1.05744948e-03  1.56127064e-04
 -1.47034206e-05 -1.14050805e-04 -6.00752909e-04 -2.51040623e-03 -8.99281123e-03
 -2.76027210e-02 -7.29687441e-02 -1.50829556e-01 -2.11900675e-01 -2.08012833e-02
  5.31286306e-01  5.99320882e-01 -8.87804707e-03  6.49541842e-06  5.03428836e-05
  2.65537974e-04  1.10833025e-03  3.98380676e-03  1.22375442e-02  3.27244651e-02
  6.86349823e-02  1.01132715e-01  9.35814761e-03 -3.20459741e-01 -6.29871500e-01
  1.12615383e+00  1.00000000e+00  1.00000000e+00  2.47384091e-03  1.97690804e-02
  9.10628980e-02  2.63405289e-01  4.49530829e-01  3.60439921e-01 -4.71646914e-03
 -1.11774970e-03 -8.90307363e-03 -4.23241575e-02 -1.24804829e-01 -2.29721907e-01
 -1.62439080e-01  9.67816011e-01  1.00000000e+00  1.00000000e+00  1.00000000e+00
  1.00000000e+00  1.00000000e+00  1.00000000e+00  1.00000000e+00  1.00000000e+00
  1.00000000e+00  5.42430189e-04  4.19642790e-03  2.15409141e-02  8.36149496e-02
  2.39871619e-01  4.43751820e-01  3.53579696e-01 -9.17636608e-03 -1.96392234e-04
 -1.52595027e-03 -7.89044903e-03 -3.15148705e-02 -9.69100083e-02 -2.20541526e-01
 -2.96069113e-01  1.04050343e+00  1.00000000e+00  1.00000000e+00  3.94263872e-02
  2.44088985e-01  8.15492009e-01  1.00000000e+00  1.00000000e+00  1.00000000e+00
  1.00000000e+00  1.00000000e+00  1.00000000e+00  1.00000000e+00  1.00000000e+00
  1.00000000e+00
Coordinates of each shell                  R   N=         234
 -1.70109523e+00 -9.58959213e-01  2.71362160e+00 -1.70109523e+00 -9.58959213e-01
  2.71362160e+00 -1.70109523e+00 -9.58959213e-01  2.71362160e+00 -1.70109523e+00
 -9.58959213e-01  2.71362160e+00 -1.70109523e+00 -9.58959213e-01  2.71362160e+00
 -1.70109523e+00 -9.58959213e-01  2.71362160e+00 -1.70109523e+00 -9.58959213e-01
  2.71362160e+00 -1.70109523e+00 -9.58959213e-01  2.71362160e+00 -1.70109523e+00
 -9.58959213e-01  2.71362160e+00 -1.70109523e+00 -9.58959213e-01  2.71362160e+00
 -1.70109523e+00 -9.58959213e-01  2.71362160e+00 -1.70109523e+00 -9.58959213e-01
  2.71362160e+00 -1.70109523e+00 -9.58959213e-01  2.71362160e+00 -1.70109523e+00
 -9.58959213e-01  2.71362160e+00 -1.70109523e+00 -9.58959213e-01  2.71362160e+00
 -1.70109523e+00 -9.58959213e-01  2.71362160e+00 -1.34846848e+00  2.80184650e+00
 -1.22796837e+00 -1.34846848e+00  2.80184650e+00 -1.22796837e+00 -1.34846848e+00
  2.80184650e+00 -1.22796837e+00 -1.34846848e+00  2.80184650e+00 -1.22796837e+00
 -1.34846848e+00  2.80184650e+00 -1.22796837e+00 -1.34846848e+00  2.80184650e+00
 -1.22796837e+00 -1.34846848e+00  2.80184650e+00 -1.22796837e+00 -1.34846848e+00
  2.80184650e+00 -1.22796837e+00 -1.34846848e+00  2.80184650e+00 -1.22796837e+00
 -1.34846848e+00  2.80184650e+00 -1.22796837e+00 -1.34846848e+00  2.80184650e+00
 -1.22796837e+00 -1.34846848e+00  2.80184650e+00 -1.22796837e+00 -1.34846848e+00
  2.80184650e+00 -1.22796837e+00 -1.34846848e+00  2.80184650e+00 -1.22796837e+00
 -1.34846848e+00  2.80184650e+00 -1.22796837e+00 -1.34846848e+00  2.80184650e+00
 -1.22796837e+00 -1.40020317e-01 -2.41070721e+00 -2.31261279e+00 -1.40020317e-01
 -2.41070721e+00 -2.31261279e+00 -1.40020317e-01 -2.41070721e+00 -2.31261279e+00
 -1.40020317e-01 -2.41070721e+00 -2.31261279e+00 -1.40020317e-01 -2.41070721e+00
 -2.31261279e+00 -1.40020317e-01 -2.41070721e+00 -2.31261279e+00 -1.40020317e-01
 -2.41070721e+00 -2.31261279e+00 -1.40020317e-01 -2.41070721e+00 -2.31261279e+00
 -1.40020317e-01 -2.41070721e+00 -2.31261279e+00 -1.40020317e-01 -2.41070721e+00
 -2.31261279e+00 -1.40020317e-01 -2.41070721e+00 -2.31261279e+00 -1.40020317e-01
 -2.41070721e+00 -2.31261279e+00 -1.40020317e-01 -2.41070721e+00 -2.31261279e+00
 -1.40020317e-01 -2.41070721e+00 -2.31261279e+00 -1.40020317e-01 -2.41070721e+00
 -2.31261279e+00 -1.40020317e-01 -2.41070721e+00 -2.31261279e+00  3.18964046e+00
  5.67768236e-01  8.26782851e-01  3.18964046e+00  5.67768236e-01  8.26782851e-01
  3.18964046e+00  5.67768236e-01  8.26782851e-01  3.18964046e+00  5.67768236e-01
  8.26782851e-01  3.18964046e+00  5.67768236e-01  8.26782851e-01  3.18964046e+00
  5.67768236e-01  8.26782851e-01  3.18964046e+00  5.67768236e-01  8.26782851e-01
  3.18964046e+00  5.67768236e-01  8.26782851e-01  3.18964046e+00  5.67768236e-01
  8.26782851e-01  3.18964046e+00  5.67768236e-01  8.26782851e-01  3.18964046e+00
  5.67768236e-01  8.26782851e-01  3.18964046e+00  5.67768236e-01  8.26782851e-01
  3.18964046e+00  5.67768236e-01  8.26782851e-01  3.18964046e+00  5.67768236e-01
  8.26782851e-01  3.18964046e+00  5.67768236e-01  8.26782851e-01  3.18964046e+00
  5.67768236e-01  8.26782851e-01 -1.64471966e-04  1.50599878e-04  5.14943934e-04
 -1.64471966e-04  1.50599878e-04  5.14943934e-04 -1.64471966e-04  1.50599878e-04
  5.14943934e-04 -1.64471966e-04  1.50599878e-04  5.14943934e-04 -1.64471966e-04
  1.50599878e-04  5.14943934e-04 -1.64471966e-04  1.50599878e-04  5.14943934e-04
 -1.64471966e-04  1.50599878e-04  5.14943934e-04 -1.64471966e-04  1.50599878e-04
  5.14943934e-04 -1.64471966e-04  1.50599878e-04  5.14943934e-04 -1.64471966e-04
  1.50599878e-04  5.14943934e-04 -1.64471966e-04  1.50599878e-04  5.14943934e-04
 -1.64471966e-04  1.50599878e-04  5.14943934e-04 -1.64471966e-04  1.50599878e-04
  5.14943934e-04 -1.64471966e-04  1.50599878e-04  5.14943934e-04
Total Energy                               R     -1.876866984040149e+03
Alpha Orbital Energies                     R   N=         246
 -6.62289973e-06 -6.62168532e-06 -6.61975584e-06 -7.14644434e-07 -7.14506852e-07
 -2.17836864e-07 -2.17534502e-07 -2.17154915e-07  5.14902636e-08  4.66729066e-07
  4.66987689e-07  4.67432598e-07  7.67789125e-07  7.67890666e-07  7.67947998e-07
  1.34623263e-06  2.79959124e-06  2.80069490e-06  2.80173965e-06  3.47171806e-06
  7.46794042e-06  7.49584371e-06  7.49723277e-06  7.49801104e-06  9.22405392e-06
  9.22622464e-06  9.22857365e-06  9.40010268e-06  9.40104390e-06  1.08972599e-05
  1.08987816e-05  1.09003587e-05  1.33513469e-05  1.33524530e-05  1.33540318e-05
  1.65776704e-05  1.87613756e-05  1.87630862e-05  1.87652961e-05  2.33830477e-05
  2.33844932e-05  2.33852457e-05  2.54848614e-05  2.54850716e-05  2.71746982e-05
  2.71747060e-05  2.74124331e-05  2.95251014e-05  2.95329283e-05  2.95411430e-05
  3.38661112e-05  3.38692276e-05  3.38734276e-05  3.55909650e-05  3.69616380e-05
  3.69625411e-05  3.69636509e-05  3.82104948e-05  3.82114565e-05  3.82123594e-05
  3.99906428e-05  3.99923602e-05  3.99936110e-05  4.00739025e-05  4.00759487e-05
  4.00785998e-05  4.27332619e-05  4.27361273e-05  4.27404317e-05  4.39266078e-05
  4.39277010e-05  5.01887173e-05  5.03363478e-05  5.03376478e-05  5.16475267e-05
  5.34537305e-05  5.34590480e-05  5.34631095e-05  5.55347931e-05  5.55371657e-05
  5.55407100e-05  7.01731174e-05  7.01744924e-05  7.20553844e-05  7.20589180e-05
  7.20616990e-05  7.86766821e-05  7.86864302e-05  7.86977169e-05  8.01835535e-05
  8.12478772e-05  8.12541437e-05  8.12578274e-05  8.43840229e-05  8.44045790e-05
  8.44258893e-05  9.67126711e-05  1.08706271e-04  1.08710400e-04  1.08714652e-04
  1.46318606e-04  1.46328513e-04  1.46339365e-04  1.47547765e-04  1.52259548e-04
  1.52274275e-04  1.52291077e-04  1.85010514e-04  1.85015330e-04  1.85023543e-04
  1.93554590e-04  1.93555564e-04  1.95810223e-04  1.95835047e-04  1.95858725e-04
  2.25357000e-04  2.33708052e-04  2.33714961e-04  2.33720060e-04  2.62027718e-04
  2.62033536e-04  2.79434574e-04  2.79456196e-04  2.79481894e-04  2.84414785e-04
  2.84427239e-04  2.84440783e-04  3.23999468e-04  3.43258310e-04  3.43278156e-04
  3.43291195e-04  3.69552086e-04  3.69552168e-04  4.11631107e-04  4.11632440e-04
  4.12907180e-04  4.12909348e-04  4.12914362e-04  4.40449895e-04  4.40455227e-04
  4.40462743e-04  5.03950789e-04  5.51428613e-04  5.51474705e-04  5.51521804e-04
  5.90329006e-04  5.90341157e-04  5.90351640e-04  6.09066927e-04  6.21842210e-04
  6.21853473e-04  6.21870200e-04  6.53389712e-04  6.53395398e-04  6.58454046e-04
  6.58475561e-04  6.58491605e-04  6.81299664e-04  7.23995058e-04  7.24027411e-04
  7.24051976e-04  8.11830369e-04  8.11912596e-04  8.12014141e-04  1.22031003e-03
  1.22034100e-03  1.22037542e-03  1.38878859e-03  1.38884035e-03  1.38891798e-03
  1.65090602e-03  1.65092876e-03  1.85744191e-03  2.86458209e-03  2.86465212e-03
  2.86474050e-03  3.11173626e-03  3.11197217e-03  3.11223680e-03  3.20640849e-03
  4.07778965e-03  4.07829202e-03  4.07876329e-03  4.36935920e-03  4.36938583e-03
  5.18124444e-03  5.30764096e-03  5.30783852e-03  5.30803425e-03  7.62683843e-03
  7.62692132e-03  7.62704419e-03  8.47860837e-03  8.47874695e-03  8.47880588e-03
  8.64156805e-03  8.64159594e-03  9.27664338e-03  9.27668571e-03  9.27680968e-03
  1.04186073e-02  1.04192789e-02  1.04199318e-02  1.12900508e-02  1.12902227e-02
  2.09304838e-02  2.09368336e-02  2.09429366e-02  2.25511484e-02  9.68305004e-01
  9.68311566e-01  9.68318370e-01  9.75715646e-01  9.75715749e-01  9.75715836e-01
  9.77366047e-01  9.77379793e-01  9.77380022e-01  9.78048188e-01  9.78048273e-01
  9.78048400e-01  9.90299071e-01  9.90299614e-01  9.90300233e-01  9.92075387e-01
  1.00000000e+00  1.00000000e+00  1.00000000e+00  1.00000000e+00  1.00000020e+00
  1.00000170e+00  1.00000292e+00  1.00000292e+00  1.00000292e+00  1.00001108e+00
  1.00001109e+00  1.00001109e+00  1.00001118e+00  1.00002070e+00  1.00002070e+00
  1.00002121e+00  1.00002121e+00  1.00002121e+00  1.00002161e+00  1.00002161e+00
  1.00002161e+00
Alpha MO coefficients                      R   N=       60516
  1.77019958e-03  1.08698221e-02  1.44990658e-02 -1.87666312e-03 -2.88068893e-02
 -3.20486216e-02  9.83720015e-02 -1.31561259e-02 -5.75374042e-02  1.82437740e-01
 -2.68349320e-02  2.46206455e-02 -6.69310168e-02  5.34179070e-03  6.64720642e-02
 -2.00816670e-01  2.53340321e-02 -1.11853381e-02  5.04344181e-02 -8.80096703e-02
 -6.06626304e-02  4.15185676e-02  4.18592954e-02 -1.42563060e-01  2.56864966e-01
  1.69995378e-01 -9.19923259e-02 -8.01503821e-03  5.57444687e-03 -1.95698449e-02
 -1.44160007e-02  4.33932820e-03  3.22114873e-03  6.56851269e-03  2.54787283e-01
 -8.61410459e-02  3.39383042e-01 -7.68657265e-02 -7.52544877e-02  2.06113410e-01
 -4.13130187e-01 -2.53951385e-01  9.68909286e-02  1.92775115e-02 -1.74315513e-02
  4.69389109e-02  3.90133269e-02 -1.16452867e-02 -9.63536921e-03 -1.50322540e-02
 -2.32748782e-02 -1.42846035e-01 -1.90423465e-01  2.52384418e-02  3.68071938e-01
 -1.21796831e-01  2.64234089e-01 -7.53656828e-02 -2.41542050e-01  5.22481601e-01
 -1.54370433e-01  5.95967747e-02 -1.31574372e-01  2.95817167e-02  2.32533943e-01
 -5.05954451e-01  1.38794707e-01  8.11426362e-03  3.27543485e-02 -6.26368034e-02
 -1.56986508e-02 -2.84294470e-02  1.30643923e-02 -1.13107382e-01  2.37920721e-01
  8.98486949e-02  1.42089454e-01  5.22974765e-03  3.00573283e-03  8.16377598e-03
  2.90041046e-03  2.29412648e-03 -2.52870984e-03  1.86922235e-03 -3.37104566e+00
 -6.21271618e-01  1.32796201e+00 -4.46935530e-01 -2.26921032e-02  1.54910290e-01
 -3.60517799e-01 -1.20322015e-01 -2.04821033e-01 -2.98436166e-02 -5.17854129e-03
 -1.02229032e-02 -2.76440095e-02 -2.77543965e-02 -2.09935423e-02 -6.89552514e-04
  1.61026132e-02  9.88049727e-02  1.31649704e-01 -1.75193256e-02 -2.55942574e-01
 -3.41134989e-02  1.94928753e-01  9.60363680e-02 -6.17515469e-02  3.80383157e-01
  1.97057613e-01  2.54612191e-02 -1.04603231e-01 -3.71969542e-02  7.10482192e-02
 -3.79387549e-01 -1.77325395e-01 -7.77825159e-02 -4.11974548e-02 -3.87694608e-02
 -2.39223442e-02 -3.76211229e-02  2.28275887e-01  1.08000449e-01  1.79810854e-01
  4.51341105e-02  1.19359960e-01  3.74120104e-03 -4.18047615e-03  1.24450925e-02
  5.25949386e-03  9.33471285e-03 -6.75685400e-03  1.06575269e-02  2.32370653e+00
 -9.84502886e-02  9.15943992e-01  5.75071245e-01 -3.31057365e-01 -1.41426323e-01
 -2.76344426e-01 -9.36445237e-02 -1.98481535e-01 -5.17016964e-03  4.63526436e-03
 -5.03391868e-02  8.54899688e-03 -2.35959986e-02  2.11837459e-02 -1.78634921e-02
  5.46212602e-03  3.35212772e-02  4.46761534e-02 -5.90668174e-03 -8.71710460e-02
 -8.51922410e-02  8.60311521e-02 -1.23963564e-02 -1.66491190e-01  1.57107629e-01
 -2.52772103e-02  4.53515247e-02 -6.21637172e-02  5.04049782e-03  1.66426748e-01
 -1.77724221e-01  2.32435556e-02  3.75950942e-03 -6.16172344e-03 -3.14991066e-02
  3.12857729e-02 -1.15415170e-01 -9.04620334e-03  2.02321186e-02  1.11009539e-01
 -5.96062624e-02  3.28190580e-01 -2.21551369e-03 -5.27768392e-03 -2.15047873e-03
  7.01898431e-03 -1.76786984e-02  4.44673081e-03 -1.75771225e-02  7.87293949e-01
 -4.03274452e-01  2.65516935e-01 -7.23660270e-02 -9.61555124e-03 -1.57266772e-02
 -2.06684637e-01  7.53080429e-02 -4.89880256e-01  2.26454869e-03  8.06538264e-03
  1.96758742e-03 -1.16148308e-02  4.52648337e-02 -7.29760151e-03  4.95618951e-02
 -2.14215549e-04 -4.10208765e-04 -1.14081812e-04  4.79594008e-03  3.08812495e-02
 -7.27676198e-02  5.33325533e-04 -2.19910907e-02  5.18266554e-02 -3.99486143e-04
  7.42868172e-04 -1.42650250e-03  2.87976277e-04  3.09215032e-03 -1.43661087e-03
  8.94599094e-03  2.75027600e-03  5.60442975e-03 -6.36267933e-02  2.95292900e-02
 -1.82399415e-01 -5.68860385e-02 -1.15484218e-01  9.51505131e-03  6.87384692e-03
  8.27265248e-03 -5.75943520e-03  1.25756326e-02  1.18591019e-02 -1.12751924e-02
  3.63564253e-03 -5.27301653e-01  1.24303292e+00 -9.39817889e-03 -1.04676321e-01
  4.87942291e-02 -3.00057923e-01 -9.40658198e-02 -1.90414977e-01  3.55072855e-02
  2.56110303e-02  3.07042537e-02 -2.17041440e-02  4.72608614e-02  4.46469789e-02
 -4.22676539e-02  1.82369961e-02  1.11936223e-01  1.49241960e-01 -1.97382122e-02
 -2.88127881e-01  6.93561836e-02  3.99738143e-02 -2.30558564e-01  1.44595069e-01
  8.31295616e-02 -4.51951350e-01 -2.34538289e-02 -1.38286274e-02  1.20655805e-01
 -1.25801714e-01 -7.24979696e-02  4.45408845e-01  4.64809201e-02  5.99105637e-02
  3.26755297e-02 -2.88854131e-02 -4.71973440e-02 -8.64986995e-02 -2.19641600e-01
 -1.31468892e-01  1.09134417e-01  1.53735900e-01  1.05368112e-02 -6.43010788e-03
  2.36148914e-03 -5.32865194e-03 -6.97870536e-03  7.76186273e-03  8.71396056e-03
  2.64243321e+00  4.43639337e-01  2.53025778e-01 -1.10792512e+00  1.31277504e-01
  3.07140370e-01  2.04902733e-01 -1.91866548e-01 -2.29318987e-01 -2.38676089e-02
 -8.09678490e-03 -1.99218827e-02  2.63312393e-02  3.41367064e-02 -1.44326260e-02
 -2.49634067e-02 -9.09016986e-03 -5.57904066e-02 -7.43678019e-02  9.82477904e-03
  1.44728045e-01 -4.36667526e-02  6.05316262e-02 -1.30361754e-01 -8.71213611e-02
  1.25289485e-01 -2.46521032e-01  2.05944814e-02 -2.18384554e-02  8.16343511e-02
  8.36256029e-02 -1.11647791e-01  2.61529782e-01 -7.63665613e-02 -3.61162202e-02
  6.04640669e-02 -4.78328389e-02 -3.61425107e-02  2.16373670e-01  7.46237327e-02
 -1.60315335e-01  1.64632474e-01  1.26916099e-01 -7.76832379e-03  1.77221360e-03
 -1.52130817e-02 -1.23540145e-02 -3.46823539e-03  9.90319890e-03 -1.03749473e-02
 -1.31285845e+00 -2.29538993e-01  3.76253842e-01 -5.11346328e-01 -3.05916976e-01
 -8.41011168e-02  2.69313083e-01 -2.66879072e-01 -1.90769998e-01  1.22261673e-02
 -6.36081789e-03  4.42706859e-02  2.16864387e-02  2.38752877e-03 -3.53794890e-02
  2.65920303e-02 -1.83402894e-02 -1.12528075e-01 -1.49916289e-01  1.99813859e-02
  2.91366495e-01 -1.84149264e-02 -1.20519889e-01 -2.11493557e-01 -3.53484612e-02
 -2.45929750e-01 -4.12851474e-01  1.07515862e-02  4.87096268e-02  1.13278215e-01
  3.66077929e-02  2.23969646e-01  4.11397082e-01 -6.25521180e-02 -7.66082348e-03
  3.99472430e-02 -6.54569567e-02 -2.33326289e-03  1.55256961e-01  4.32612477e-03
 -1.81607088e-01  2.25984936e-01  1.42343803e-02  8.39350249e-03 -4.22475450e-03
  1.04634881e-02  4.78806621e-03 -1.25463869e-03 -8.09016430e-03  9.10626213e-03
 -2.64482629e+00 -7.89134363e-02 -7.04350998e-01 -9.95764761e-01 -2.33328562e-01
  1.71887697e-02  2.58425144e-01 -3.44777471e-01 -4.46606903e-02 -2.97062689e-02
  1.29810310e-02 -5.92364291e-03 -3.74362662e-02  1.96912363e-03  1.35667080e-02
 -3.22166312e-02  9.12473249e-03  5.59892346e-02  7.46082838e-02 -9.95487911e-03
 -1.43853938e-01 -8.76031637e-02 -1.92784398e-02 -1.20959672e-01 -1.77199394e-01
 -3.83432895e-02 -2.27236234e-01  3.77045676e-02  9.26545945e-03  7.79809877e-02
  1.62935650e-01  3.66744314e-02  2.43157107e-01  5.91029323e-02  9.09846791e-02
  1.70011673e-02 -4.66013959e-02 -1.24660536e-02 -1.66586178e-01 -2.40205103e-01
 -6.03122040e-02  1.71516653e-01  5.40983272e-02 -1.24975740e-02  6.31199601e-03
  3.15144868e-03  1.17467141e-02  1.27663923e-02 -9.67892176e-03 -8.00593561e-03
  1.32011872e+00 -4.91291602e-01 -9.96429202e-02 -4.55274632e-01  2.18235461e-01
  3.69460922e-01  1.21124009e-01 -2.70428873e-01 -9.36569569e-02  2.72215639e-02
 -2.62858376e-02 -1.06646507e-02 -2.25561494e-02 -2.71729432e-02  3.43533716e-02
  2.45589957e-02  2.76886957e-04  5.26750709e-04  1.32059294e-04 -4.41550316e-03
  9.09722307e-03  4.46951470e-03  7.83950525e-02 -6.46540273e-03 -3.15677737e-03
 -5.58463433e-02  4.65999798e-05 -2.79701445e-04  2.38467344e-03  1.28060675e-03
 -4.25833763e-03 -6.08664529e-03  7.62437683e-03  3.93536028e-03 -2.74253047e-02
  8.83034010e-02  1.23936461e-01 -1.55844103e-01 -8.09500814e-02  9.94664371e-03
  1.95618429e-02 -5.44709891e-03  8.43135594e-03 -8.00257648e-03  1.15291622e-03