
    -----------------------------------------------------------------------
          Psi4: An Open-Source Ab Initio Electronic Structure Package
                               Psi4 1.3.2 release

                         Git: Rev {HEAD} ecbda83 


    R. M. Parrish, L. A. Burns, D. G. A. Smith, A. C. Simmonett,
    A. E. DePrince III, E. G. Hohenstein, U. Bozkaya, A. Yu. Sokolov,
    R. Di Remigio, R. M. Richard, J. F. Gonthier, A. M. James,
    H. R. McAlexander, A. Kumar, M. Saitow, X. Wang, B. P. Pritchard,
    P. Verma, H. F. Schaefer III, K. Patkowski, R. A. King, E. F. Valeev,
    F. A. Evangelista, J. M. Turney, T. D. Crawford, and C. D. Sherrill,
    J. Chem. Theory Comput. 13(7) pp 3185--3197 (2017).
    (doi: 10.1021/acs.jctc.7b00174)


                         Additional Contributions by
    P. Kraus, H. Kruse, M. H. Lechner, M. C. Schieber, R. A. Shaw,
    A. Alenaizan, R. Galvelis, Z. L. Glick, S. Lehtola, and J. P. Misiewicz

    -----------------------------------------------------------------------


    Psi4 started on: Wednesday, 28 July 2021 01:46PM

    Process ID: 37664
    Host:       node37.bme.utexas.edu
    PSIDATADIR: /home/bdw2292/miniconda3/envs/poltype2/share/psi4
    Memory:     500.0 MiB
    Threads:    1
    
  ==> Input File <==

--------------------------------------------------------------------------
molecule { 
0 1
Cl   -0.897400   -0.534800    1.431100
Cl   -0.695600    1.519900   -0.649200
Cl   -0.072300   -1.303700   -1.204700
Cl    1.677700    0.311800    0.427600
 C   -0.012400    0.006800   -0.004800
}
set {
  geom_maxiter 400
  g_convergence GAU
  dynamic_level 1
}
memory 15GB
set_num_threads(4)
psi4_io.set_default_path("/scratch/bdw2292/Psi4-CCl4")
for _ in range(1):
  try:
    set opt_coordinates both
    optimize('mp2/6-31G*')
    break
  except OptimizationConvergenceError:
    break
  else:
    try:
      set opt_coordinates cartesian
      optimize('mp2/6-31G*')
      break
    except OptimizationConvergenceError:
      pass
clean()
--------------------------------------------------------------------------

  Memory set to  13.970 GiB by Python driver.
  Threads set to 4 by Python driver.
gradient() will perform analytic gradient computation.
    SCF Algorithm Type (re)set to DF.

*** tstart() called on node37.bme.utexas.edu
*** at Wed Jul 28 13:46:41 2021

   => Loading Basis Set <=

    Name: 6-31G*
    Role: ORBITAL
    Keyword: BASIS
    atoms 1-4 entry CL         line   340 file /home/bdw2292/miniconda3/envs/poltype2/share/psi4/basis/6-31gs.gbs 
    atoms 5   entry C          line   111 file /home/bdw2292/miniconda3/envs/poltype2/share/psi4/basis/6-31gs.gbs 


         ---------------------------------------------------------
                                   SCF
               by Justin Turney, Rob Parrish, Andy Simmonett
                          and Daniel G. A. Smith
                              RHF Reference
                        4 Threads,  14305 MiB Core
         ---------------------------------------------------------

  ==> Geometry <==

    Molecular point group: c1
    Full point group: C1

    Geometry (in Angstrom), charge = 0, multiplicity = 1:

       Center              X                  Y                   Z               Mass       
    ------------   -----------------  -----------------  -----------------  -----------------
         CL          -0.899275311954    -0.533771603122     1.430374072792    34.968852682000
         CL          -0.697475311954     1.520928396878    -0.649925927208    34.968852682000
         CL          -0.074175311954    -1.302671603122    -1.205425927208    34.968852682000
         CL           1.675824688046     0.312828396878     0.426874072792    34.968852682000
         C           -0.014275311954     0.007828396878    -0.005525927208    12.000000000000

  Running in c1 symmetry.

  Rotational constants: A =      0.05880  B =      0.05681  C =      0.05653 [cm^-1]
  Rotational constants: A =   1762.80666  B =   1703.25559  C =   1694.68474 [MHz]
  Nuclear repulsion =  438.191273995143604

  Charge       = 0
  Multiplicity = 1
  Electrons    = 74
  Nalpha       = 37
  Nbeta        = 37

  ==> Algorithm <==

  SCF Algorithm Type is DF.
  DIIS enabled.
  MOM disabled.
  Fractional occupation disabled.
  Guess Type is SAD.
  Energy threshold   = 1.00e-10
  Density threshold  = 1.00e-10
  Integral threshold = 0.00e+00

  ==> Primary Basis <==

  Basis Set: 6-31G*
    Blend: 6-31G*
    Number of shells: 38
    Number of basis function: 91
    Number of Cartesian functions: 91
    Spherical Harmonics?: false
    Max angular momentum: 2

   => Loading Basis Set <=

    Name: (6-31G* AUX)
    Role: JKFIT
    Keyword: DF_BASIS_SCF
    atoms 1-4 entry CL         line   667 file /home/bdw2292/miniconda3/envs/poltype2/share/psi4/basis/cc-pvdz-jkfit.gbs 
    atoms 5   entry C          line   121 file /home/bdw2292/miniconda3/envs/poltype2/share/psi4/basis/cc-pvdz-jkfit.gbs 

  ==> Pre-Iterations <==

   -------------------------------------------------------
    Irrep   Nso     Nmo     Nalpha   Nbeta   Ndocc  Nsocc
   -------------------------------------------------------
     A         91      91       0       0       0       0
   -------------------------------------------------------
    Total      91      91      37      37      37       0
   -------------------------------------------------------

  ==> Integral Setup <==

  DFHelper Memory: AOs need 0.040 GiB; user supplied 10.477 GiB. Using in-core AOs.

  ==> MemDFJK: Density-Fitted J/K Matrices <==

    J tasked:                   Yes
    K tasked:                   Yes
    wK tasked:                   No
    OpenMP threads:               4
    Memory [MiB]:             10728
    Algorithm:                 Core
    Schwarz Cutoff:           1E-12
    Mask sparsity (%):       3.7194
    Fitting Condition:        1E-10

   => Auxiliary Basis Set <=

  Basis Set: (6-31G* AUX)
    Blend: CC-PVDZ-JKFIT
    Number of shells: 168
    Number of basis function: 601
    Number of Cartesian functions: 601
    Spherical Harmonics?: false
    Max angular momentum: 3

  Minimum eigenvalue in the overlap matrix is 1.3643523201E-02.
  Using Symmetric Orthogonalization.

  SCF Guess: Superposition of Atomic Densities via on-the-fly atomic UHF.

  ==> Iterations <==

                           Total Energy        Delta E     RMS |[F,P]|

   @DF-RHF iter SAD: -1875.71765065705949   -1.87572e+03   0.00000e+00 
   @DF-RHF iter   1: -1875.57753437223914    1.40116e-01   5.86929e-03 DIIS
   @DF-RHF iter   2: -1875.63014698348138   -5.26126e-02   5.53020e-03 DIIS
   @DF-RHF iter   3: -1875.74136635652644   -1.11219e-01   4.12810e-04 DIIS
   @DF-RHF iter   4: -1875.74325368864356   -1.88733e-03   8.80426e-05 DIIS
   @DF-RHF iter   5: -1875.74335955807464   -1.05869e-04   2.01517e-05 DIIS
   @DF-RHF iter   6: -1875.74336414962863   -4.59155e-06   4.48725e-06 DIIS
   @DF-RHF iter   7: -1875.74336427047274   -1.20844e-07   5.42480e-07 DIIS
   @DF-RHF iter   8: -1875.74336427283470   -2.36196e-09   1.23842e-07 DIIS
   @DF-RHF iter   9: -1875.74336427297180   -1.37106e-10   3.78504e-08 DIIS
   @DF-RHF iter  10: -1875.74336427299022   -1.84173e-11   1.38456e-08 DIIS
   @DF-RHF iter  11: -1875.74336427299636   -6.13909e-12   3.54546e-09 DIIS
   @DF-RHF iter  12: -1875.74336427299522    1.13687e-12   3.90396e-10 DIIS
   @DF-RHF iter  13: -1875.74336427299636   -1.13687e-12   8.49527e-11 DIIS
  Energy and wave function converged.


  ==> Post-Iterations <==

    Orbital Energies [Eh]
    ---------------------

    Doubly Occupied:                                                      

       1A   -104.870656     2A   -104.869130     3A   -104.868742  
       4A   -104.867389     5A    -11.500534     6A    -10.604646  
       7A    -10.603447     8A    -10.602945     9A    -10.601848  
      10A     -8.074047    11A     -8.072857    12A     -8.072345  
      13A     -8.071254    14A     -8.070010    15A     -8.070001  
      16A     -8.068807    17A     -8.068799    18A     -8.068307  
      19A     -8.068298    20A     -8.067206    21A     -8.067200  
      22A     -1.289350    23A     -1.136107    24A     -1.131815  
      25A     -1.130734    26A     -0.839507    27A     -0.664936  
      28A     -0.661778    29A     -0.661072    30A     -0.535133  
      31A     -0.530352    32A     -0.494696    33A     -0.491557  
      34A     -0.490647    35A     -0.465847    36A     -0.464011  
      37A     -0.463187  

    Virtual:                                                              

      38A      0.089295    39A      0.151387    40A      0.152402  
      41A      0.156826    42A      0.413180    43A      0.507940  
      44A      0.508795    45A      0.509677    46A      0.571854  
      47A      0.573315    48A      0.581919    49A      0.617439  
      50A      0.619615    51A      0.625107    52A      0.665066  
      53A      0.665660    54A      0.666736    55A      0.684492  
      56A      0.685016    57A      0.687128    58A      0.798209  
      59A      0.800818    60A      0.801526    61A      0.967863  
      62A      0.972685    63A      1.104670    64A      1.104861  
      65A      1.106070    66A      1.119392    67A      1.120124  
      68A      1.120979    69A      1.121702    70A      1.122564  
      71A      1.151585    72A      1.157952    73A      1.159973  
      74A      1.272742    75A      1.325801    76A      1.327133  
      77A      1.332306    78A      1.481646    79A      1.489461  
      80A      1.501652    81A      1.609166    82A      2.018763  
      83A      2.024078    84A      2.380244    85A      2.396529  
      86A      2.399195    87A      4.315753    88A      4.685038  
      89A      4.685688    90A      4.689782    91A      4.725831  

    Final Occupation by Irrep:
              A 
    DOCC [    37 ]

  @DF-RHF Final Energy: -1875.74336427299636

   => Energetics <=

    Nuclear Repulsion Energy =            438.1912739951436038
    One-Electron Energy =               -3464.5108837866941940
    Two-Electron Energy =                1150.5762455185542876
    Total Energy =                      -1875.7433642729963594

Computation Completed


Properties will be evaluated at   0.000000,   0.000000,   0.000000 [a0]

Properties computed using the SCF density matrix

  Nuclear Dipole Moment: [e a0]
     X:    -0.0045      Y:     0.0025      Z:    -0.0017

  Electronic Dipole Moment: [e a0]
     X:    -0.0091      Y:     0.0045      Z:     0.0026

  Dipole Moment: [e a0]
     X:    -0.0136      Y:     0.0070      Z:     0.0009     Total:     0.0153

  Dipole Moment: [D]
     X:    -0.0345      Y:     0.0178      Z:     0.0023     Total:     0.0389


*** tstop() called on node37.bme.utexas.edu at Wed Jul 28 13:46:43 2021
Module time:
	user time   =       5.02 seconds =       0.08 minutes
	system time =       0.29 seconds =       0.00 minutes
	total time  =          2 seconds =       0.03 minutes
Total time:
	user time   =       5.02 seconds =       0.08 minutes
	system time =       0.29 seconds =       0.00 minutes
	total time  =          2 seconds =       0.03 minutes

*** tstart() called on node37.bme.utexas.edu
*** at Wed Jul 28 13:46:43 2021


  //>>>>>>>>>>>>>>>>>>>>>>>>>>>>>>>>>>>//
  //               DFMP2               //
  //<<<<<<<<<<<<<<<<<<<<<<<<<<<<<<<<<<<//

   => Loading Basis Set <=

    Name: (6-31G* AUX)
    Role: RIFIT
    Keyword: DF_BASIS_MP2
    atoms 1-4 entry CL         line   649 file /home/bdw2292/miniconda3/envs/poltype2/share/psi4/basis/cc-pvdz-ri.gbs 
    atoms 5   entry C          line   159 file /home/bdw2292/miniconda3/envs/poltype2/share/psi4/basis/cc-pvdz-ri.gbs 

	 --------------------------------------------------------
	                          DF-MP2                         
	      2nd-Order Density-Fitted Moller-Plesset Theory     
	              RMP2 Wavefunction,   4 Threads             
	                                                         
	        Rob Parrish, Justin Turney, Andy Simmonett,      
	           Ed Hohenstein, and C. David Sherrill          
	 --------------------------------------------------------

   => Auxiliary Basis Set <=

  Basis Set: (6-31G* AUX)
    Blend: CC-PVDZ-RI
    Number of shells: 114
    Number of basis function: 360
    Number of Cartesian functions: 426
    Spherical Harmonics?: true
    Max angular momentum: 3

	 --------------------------------------------------------
	                 NBF =    91, NAUX =   360
	 --------------------------------------------------------
	   CLASS    FOCC     OCC    AOCC    AVIR     VIR    FVIR
	   PAIRS       0      37      37      54      54       0
	 --------------------------------------------------------

  DFHelper Memory: AOs need 0.040 GiB; user supplied 10.477 GiB. Using in-core AOs.


         ------------------------------------------------------------
                                     CPHF                           
                                  Rob Parrish                       
         ------------------------------------------------------------

  ==> Geometry <==

    Molecular point group: c1
    Full point group: C1

    Geometry (in Angstrom), charge = 0, multiplicity = 1:

       Center              X                  Y                   Z               Mass       
    ------------   -----------------  -----------------  -----------------  -----------------
         CL          -0.899275311954    -0.533771603122     1.430374072792    34.968852682000
         CL          -0.697475311954     1.520928396878    -0.649925927208    34.968852682000
         CL          -0.074175311954    -1.302671603122    -1.205425927208    34.968852682000
         CL           1.675824688046     0.312828396878     0.426874072792    34.968852682000
         C           -0.014275311954     0.007828396878    -0.005525927208    12.000000000000

  Nuclear repulsion =  438.191273995143604
  Reference energy  = -1875.743364272996359

  ==> Basis Set <==

  Basis Set: 6-31G*
    Blend: 6-31G*
    Number of shells: 38
    Number of basis function: 91
    Number of Cartesian functions: 91
    Spherical Harmonics?: false
    Max angular momentum: 2

  ==> CGRSolver (by Rob Parrish) <==

   Number of roots    =         1
   Preconditioning    =    JACOBI
   Convergence cutoff =     1E-06
   Maximum iterations =       100

  ==> CPHFRHamiltonian (by Rob Parrish) <== 

  ==> MemDFJK: Density-Fitted J/K Matrices <==

    J tasked:                   Yes
    K tasked:                   Yes
    wK tasked:                   No
    OpenMP threads:               4
    Memory [MiB]:             10728
    Algorithm:                 Core
    Schwarz Cutoff:           1E-12
    Mask sparsity (%):       3.7194
    Fitting Condition:        1E-10

   => Auxiliary Basis Set <=

  Basis Set: (6-31G* AUX)
    Blend: CC-PVDZ-JKFIT
    Number of shells: 168
    Number of basis function: 601
    Number of Cartesian functions: 601
    Spherical Harmonics?: false
    Max angular momentum: 3

  ==> CPHF Iterations <==

  => Iterations <=

             Iter  Converged  Remaining    Residual
  CGR           1          0          1   1.424E-01
  CGR           2          0          1   2.159E-02
  CGR           3          0          1   5.044E-03
  CGR           4          0          1   7.439E-04
  CGR           5          0          1   1.771E-04
  CGR           6          0          1   3.135E-05
  CGR           7          0          1   1.246E-05
  CGR           8          0          1   3.951E-06
  CGR           9          1          0   6.483E-07

    CGRSolver converged.

  ==> DFCorrGrad: Density-Fitted Correlated Gradients <==

    OpenMP threads:              4
    Integrals threads:           4
    Memory [GiB]:           10.477
    Schwarz Cutoff:          0E+00
    Fitting Condition:       1E-10

   => Auxiliary Basis Set <=

  Basis Set: (6-31G* AUX)
    Blend: CC-PVDZ-JKFIT
    Number of shells: 168
    Number of basis function: 601
    Number of Cartesian functions: 601
    Spherical Harmonics?: false
    Max angular momentum: 3

	-----------------------------------------------------------
	 ==================> DF-MP2 Energies <==================== 
	-----------------------------------------------------------
	 Reference Energy          =   -1875.7433642729963594 [Eh]
	 Singles Energy            =      -0.0000000000000000 [Eh]
	 Same-Spin Energy          =      -0.1937702939434898 [Eh]
	 Opposite-Spin Energy      =      -0.5143565639080507 [Eh]
	 Correlation Energy        =      -0.7081268578515405 [Eh]
	 Total Energy              =   -1876.4514911308478986 [Eh]
	-----------------------------------------------------------
	 ================> DF-SCS-MP2 Energies <================== 
	-----------------------------------------------------------
	 SCS Same-Spin Scale       =       0.3333333333333333 [-]
	 SCS Opposite-Spin Scale   =       1.2000000000000000 [-]
	 SCS Same-Spin Energy      =      -0.0645900979811632 [Eh]
	 SCS Opposite-Spin Energy  =      -0.6172278766896608 [Eh]
	 SCS Correlation Energy    =      -0.6818179746708241 [Eh]
	 SCS Total Energy          =   -1876.4251822476671805 [Eh]
	-----------------------------------------------------------


  -Total Gradient:
     Atom            X                  Y                   Z
    ------   -----------------  -----------------  -----------------
       1        0.001150792159    -0.004939692983     0.001034553483
       2        0.001497488726     0.009218514966    -0.001426348340
       3        0.001432442352    -0.006655989192     0.001385464953
       4       -0.000664356032     0.000645229323    -0.000765958472
       5       -0.003416367244     0.001731937816    -0.000227711623


*** tstop() called on node37.bme.utexas.edu at Wed Jul 28 13:46:47 2021
Module time:
	user time   =      15.25 seconds =       0.25 minutes
	system time =       1.00 seconds =       0.02 minutes
	total time  =          4 seconds =       0.07 minutes
Total time:
	user time   =      20.27 seconds =       0.34 minutes
	system time =       1.29 seconds =       0.02 minutes
	total time  =          6 seconds =       0.10 minutes

			-----------------------------------------
			 OPTKING 2.0: for geometry optimizations 
			  - R.A. King,  Bethel University        
			-----------------------------------------
	At level 1: Red. Int., RFO, no backsteps, dynamic trust

	Internal coordinates to be generated automatically.
	Detected frag 1 with atoms:  1 2 3 4 5
	---Fragment 1 Bond Connectivity---
	 1 : 5
	 2 : 5
	 3 : 5
	 4 : 5
	 5 : 1 2 3 4

	---Fragment 1 Geometry and Gradient---
	 CL         -1.6993840510       -1.0086821434        2.7030152545
	 CL         -1.3180373189        2.8741381265       -1.2281820043
	 CL         -0.1401710249       -2.4616925613       -2.2779248669
	 CL          3.1668496947        0.5911599944        0.8066750876
	 C          -0.0269764299        0.0147935261       -0.0104424890
	             0.0011507922       -0.0049396930        0.0010345535
	             0.0014974887        0.0092185150       -0.0014263483
	             0.0014324424       -0.0066559892        0.0013854650
	            -0.0006643560        0.0006452293       -0.0007659585
	            -0.0034163672        0.0017319378       -0.0002277116

	Previous optimization step data not found.  Starting new optimization.

	---Fragment 1 Intrafragment Coordinates---
	 - Coordinate -           - BOHR/RAD -       - ANG/DEG -
	 R(1,5)           =         3.347731	       1.771543
	 R(2,5)           =         3.365350	       1.780866
	 R(3,5)           =         3.359654	       1.777852
	 R(4,5)           =         3.346701	       1.770998
	 B(1,5,2)         =         1.940559	     111.185865
	 B(1,5,3)         =         1.880584	     107.749530
	 B(1,5,4)         =         1.908688	     109.359763
	 B(2,5,3)         =         1.948893	     111.663325
	 B(2,5,4)         =         1.884025	     107.946667
	 B(3,5,4)         =         1.900630	     108.898056

	Current energy   :     -1876.4514911308

	Generating empirical Hessian (Schlegel '84) for each fragment.
	Taking RFO optimization step.
	Going to follow RFO solution 1.
	Using RFO vector 1.
	Norm of target step-size    0.08505
	Projected energy change by RFO approximation:        -0.0032908339

	Back-transformation to cartesian coordinates...
	Successfully converged to displaced geometry.

	--- Internal Coordinate Step in ANG or DEG, aJ/ANG or AJ/DEG ---
	 ---------------------------------------------------------------------------
	   Coordinate                Previous        Force       Change         New 
	   ----------                --------       ------       ------       ------
	    1 R(1,5)          =      1.771543    -0.014614    -0.003273     1.768270
	    2 R(2,5)          =      1.780866    -0.064048    -0.014762     1.766105
	    3 R(3,5)          =      1.777852    -0.032320    -0.007381     1.770472
	    4 R(4,5)          =      1.770998     0.005849     0.001308     1.772305
	    5 B(1,5,2)        =    111.185865    -0.000742    -2.225562   108.960303
	    6 B(1,5,3)        =    107.749530     0.000630     1.819937   109.569467
	    7 B(1,5,4)        =    109.359763     0.000231     0.681474   110.041236
	    8 B(2,5,3)        =    111.663325    -0.000946    -2.832194   108.831130
	    9 B(2,5,4)        =    107.946667     0.000524     1.579929   109.526597
	   10 B(3,5,4)        =    108.898056     0.000335     0.989812   109.887868
	 ---------------------------------------------------------------------------
	Successfully symmetrized geometry.

  ==> Convergence Check <==

  Measures of convergence in internal coordinates in au.
  Criteria marked as inactive (o), active & met (*), and active & unmet ( ).
  --------------------------------------------------------------------------------------------- ~
   Step     Total Energy     Delta E     MAX Force     RMS Force      MAX Disp      RMS Disp    ~
  --------------------------------------------------------------------------------------------- ~
    Convergence Criteria             o    4.50e-04 *    3.00e-04 *    1.80e-03 *    1.20e-03 *  ~
  --------------------------------------------------------------------------------------------- ~
      1   -1876.45149113   -1.88e+03 o    1.24e-02      6.88e-03      4.94e-02      2.68e-02    ~
  ---------------------------------------------------------------------------------------------

	Writing optimization data to binary file.
	Structure for next step:
	Cartesian Geometry (in Angstrom)
	   CL    -0.9083632085  -0.5023643754   1.4331156915
	   CL    -0.7166093591   1.4738181227  -0.6485210911
	   CL    -0.0812378921  -1.2706661823  -1.2284923294
	   CL     1.6937099480   0.3058581651   0.4372250910
	    C     0.0031239521  -0.0015037456   0.0030430019
			--------------------------
			 OPTKING Finished Execution 
			--------------------------

    Structure for next step:
    Molecular point group: c1
    Full point group: C1

    Geometry (in Angstrom), charge = 0, multiplicity = 1:

    CL          -0.905731837293    -0.503775722408     1.434411617761
    CL          -0.713977987118     1.472406783414    -0.647225173037
    CL          -0.078606517622    -1.272077532368    -1.227196413676
    CL           1.696341329483     0.304446821248     0.438521013334
    C            0.005755326911    -0.002915090649     0.004338922470

gradient() will perform analytic gradient computation.
    SCF Algorithm Type (re)set to DF.

*** tstart() called on node37.bme.utexas.edu
*** at Wed Jul 28 13:46:47 2021

   => Loading Basis Set <=

    Name: 6-31G*
    Role: ORBITAL
    Keyword: BASIS
    atoms 1-4 entry CL         line   340 file /home/bdw2292/miniconda3/envs/poltype2/share/psi4/basis/6-31gs.gbs 
    atoms 5   entry C          line   111 file /home/bdw2292/miniconda3/envs/poltype2/share/psi4/basis/6-31gs.gbs 


         ---------------------------------------------------------
                                   SCF
               by Justin Turney, Rob Parrish, Andy Simmonett
                          and Daniel G. A. Smith
                              RHF Reference
                        4 Threads,  14305 MiB Core
         ---------------------------------------------------------

  ==> Geometry <==

    Molecular point group: c1
    Full point group: C1

    Geometry (in Angstrom), charge = 0, multiplicity = 1:

       Center              X                  Y                   Z               Mass       
    ------------   -----------------  -----------------  -----------------  -----------------
         CL          -0.905731837293    -0.503775722408     1.434411617761    34.968852682000
         CL          -0.713977987118     1.472406783414    -0.647225173037    34.968852682000
         CL          -0.078606517622    -1.272077532368    -1.227196413676    34.968852682000
         CL           1.696341329483     0.304446821248     0.438521013334    34.968852682000
         C            0.005755326911    -0.002915090649     0.004338922470    12.000000000000

  Running in c1 symmetry.

  Rotational constants: A =      0.05808  B =      0.05779  C =      0.05739 [cm^-1]
  Rotational constants: A =   1741.09534  B =   1732.46428  C =   1720.53640 [MHz]
  Nuclear repulsion =  439.628470886214131

  Charge       = 0
  Multiplicity = 1
  Electrons    = 74
  Nalpha       = 37
  Nbeta        = 37

  ==> Algorithm <==

  SCF Algorithm Type is DF.
  DIIS enabled.
  MOM disabled.
  Fractional occupation disabled.
  Guess Type is READ.
  Energy threshold   = 1.00e-10
  Density threshold  = 1.00e-10
  Integral threshold = 0.00e+00

  ==> Primary Basis <==

  Basis Set: 6-31G*
    Blend: 6-31G*
    Number of shells: 38
    Number of basis function: 91
    Number of Cartesian functions: 91
    Spherical Harmonics?: false
    Max angular momentum: 2

   => Loading Basis Set <=

    Name: (6-31G* AUX)
    Role: JKFIT
    Keyword: DF_BASIS_SCF
    atoms 1-4 entry CL         line   667 file /home/bdw2292/miniconda3/envs/poltype2/share/psi4/basis/cc-pvdz-jkfit.gbs 
    atoms 5   entry C          line   121 file /home/bdw2292/miniconda3/envs/poltype2/share/psi4/basis/cc-pvdz-jkfit.gbs 

   => Loading Basis Set <=

    Name: 6-31G*
    Role: ORBITAL
    Keyword: BASIS
    atoms 1-4 entry CL         line   340 file /home/bdw2292/miniconda3/envs/poltype2/share/psi4/basis/6-31gs.gbs 
    atoms 5   entry C          line   111 file /home/bdw2292/miniconda3/envs/poltype2/share/psi4/basis/6-31gs.gbs 

  Reading orbitals from file 180, no projection.

  ==> Pre-Iterations <==

   -------------------------------------------------------
    Irrep   Nso     Nmo     Nalpha   Nbeta   Ndocc  Nsocc
   -------------------------------------------------------
     A         91      91       0       0       0       0
   -------------------------------------------------------
    Total      91      91      37      37      37       0
   -------------------------------------------------------

  ==> Integral Setup <==

  DFHelper Memory: AOs need 0.040 GiB; user supplied 10.477 GiB. Using in-core AOs.

  ==> MemDFJK: Density-Fitted J/K Matrices <==

    J tasked:                   Yes
    K tasked:                   Yes
    wK tasked:                   No
    OpenMP threads:               4
    Memory [MiB]:             10728
    Algorithm:                 Core
    Schwarz Cutoff:           1E-12
    Mask sparsity (%):       3.7194
    Fitting Condition:        1E-10

   => Auxiliary Basis Set <=

  Basis Set: (6-31G* AUX)
    Blend: CC-PVDZ-JKFIT
    Number of shells: 168
    Number of basis function: 601
    Number of Cartesian functions: 601
    Spherical Harmonics?: false
    Max angular momentum: 3

  Minimum eigenvalue in the overlap matrix is 1.3461496331E-02.
  Using Symmetric Orthogonalization.

  SCF Guess: Orbitals guess was supplied from a previous computation.

  ==> Iterations <==

                           Total Energy        Delta E     RMS |[F,P]|

   @DF-RHF iter   0: -1875.75222653134324   -1.87575e+03   1.05222e-03 
   @DF-RHF iter   1: -1875.74388427347731    8.34226e-03   1.40575e-04 DIIS
   @DF-RHF iter   2: -1875.74408926535716   -2.04992e-04   6.70559e-05 DIIS
   @DF-RHF iter   3: -1875.74413583136993   -4.65660e-05   3.51906e-05 DIIS
   @DF-RHF iter   4: -1875.74415529211501   -1.94607e-05   1.37852e-05 DIIS
   @DF-RHF iter   5: -1875.74415686970269   -1.57759e-06   2.66233e-06 DIIS
   @DF-RHF iter   6: -1875.74415696389178   -9.41891e-08   4.60258e-07 DIIS
   @DF-RHF iter   7: -1875.74415696689198   -3.00020e-09   1.09491e-07 DIIS
   @DF-RHF iter   8: -1875.74415696705205   -1.60071e-10   3.20995e-08 DIIS
   @DF-RHF iter   9: -1875.74415696706387   -1.18234e-11   8.18274e-09 DIIS
   @DF-RHF iter  10: -1875.74415696706387    0.00000e+00   2.03801e-09 DIIS
   @DF-RHF iter  11: -1875.74415696706546   -1.59162e-12   4.81419e-10 DIIS
   @DF-RHF iter  12: -1875.74415696706569   -2.27374e-13   1.40053e-10 DIIS
   @DF-RHF iter  13: -1875.74415696706478    9.09495e-13   4.49502e-11 DIIS
  Energy and wave function converged.


  ==> Post-Iterations <==

    Orbital Energies [Eh]
    ---------------------

    Doubly Occupied:                                                      

       1A   -104.869183     2A   -104.868677     3A   -104.868302  
       4A   -104.867738     5A    -11.498908     6A    -10.603475  
       7A    -10.603104     8A    -10.602704     9A    -10.602289  
      10A     -8.072885    11A     -8.072518    12A     -8.072114  
      13A     -8.071703    14A     -8.068836    15A     -8.068835  
      16A     -8.068462    17A     -8.068461    18A     -8.068064  
      19A     -8.068063    20A     -8.067645    21A     -8.067644  
      22A     -1.292502    23A     -1.134371    24A     -1.133900  
      25A     -1.133209    26A     -0.839360    27A     -0.664808  
      28A     -0.664367    29A     -0.663753    30A     -0.533387  
      31A     -0.533139    32A     -0.493008    33A     -0.492435  
      34A     -0.491700    35A     -0.464642    36A     -0.463989  
      37A     -0.463358  

    Virtual:                                                              

      38A      0.092541    39A      0.154955    40A      0.155502  
      41A      0.155734    42A      0.413644    43A      0.508530  
      44A      0.508923    45A      0.509349    46A      0.574893  
      47A      0.576077    48A      0.576752    49A      0.621041  
      50A      0.621291    51A      0.622540    52A      0.663768  
      53A      0.664071    54A      0.664364    55A      0.684350  
      56A      0.684847    57A      0.685308    58A      0.800915  
      59A      0.801332    60A      0.801846    61A      0.967467  
      62A      0.967723    63A      1.105090    64A      1.105193  
      65A      1.105266    66A      1.120241    67A      1.120361  
      68A      1.122350    69A      1.122796    70A      1.123267  
      71A      1.155981    72A      1.157633    73A      1.159344  
      74A      1.279650    75A      1.330657    76A      1.332188  
      77A      1.333569    78A      1.489569    79A      1.494563  
      80A      1.499191    81A      1.607686    82A      2.025631  
      83A      2.025877    84A      2.394379    85A      2.398367  
      86A      2.403225    87A      4.318608    88A      4.687765  
      89A      4.688388    90A      4.688759    91A      4.729323  

    Final Occupation by Irrep:
              A 
    DOCC [    37 ]

  @DF-RHF Final Energy: -1875.74415696706478

   => Energetics <=

    Nuclear Repulsion Energy =            439.6284708862141315
    One-Electron Energy =               -3467.3821776479480832
    Two-Electron Energy =                1152.0095497946692831
    Total Energy =                      -1875.7441569670647823

Computation Completed


Properties will be evaluated at   0.000000,   0.000000,   0.000000 [a0]

Properties computed using the SCF density matrix

  Nuclear Dipole Moment: [e a0]
     X:     0.0018      Y:    -0.0009      Z:     0.0014

  Electronic Dipole Moment: [e a0]
     X:     0.0009      Y:    -0.0000      Z:     0.0039

  Dipole Moment: [e a0]
     X:     0.0027      Y:    -0.0009      Z:     0.0053     Total:     0.0060

  Dipole Moment: [D]
     X:     0.0069      Y:    -0.0024      Z:     0.0134     Total:     0.0152


*** tstop() called on node37.bme.utexas.edu at Wed Jul 28 13:46:48 2021
Module time:
	user time   =       3.97 seconds =       0.07 minutes
	system time =       0.19 seconds =       0.00 minutes
	total time  =          1 seconds =       0.02 minutes
Total time:
	user time   =      24.42 seconds =       0.41 minutes
	system time =       1.50 seconds =       0.03 minutes
	total time  =          7 seconds =       0.12 minutes

*** tstart() called on node37.bme.utexas.edu
*** at Wed Jul 28 13:46:48 2021


  //>>>>>>>>>>>>>>>>>>>>>>>>>>>>>>>>>>>//
  //               DFMP2               //
  //<<<<<<<<<<<<<<<<<<<<<<<<<<<<<<<<<<<//

   => Loading Basis Set <=

    Name: (6-31G* AUX)
    Role: RIFIT
    Keyword: DF_BASIS_MP2
    atoms 1-4 entry CL         line   649 file /home/bdw2292/miniconda3/envs/poltype2/share/psi4/basis/cc-pvdz-ri.gbs 
    atoms 5   entry C          line   159 file /home/bdw2292/miniconda3/envs/poltype2/share/psi4/basis/cc-pvdz-ri.gbs 

	 --------------------------------------------------------
	                          DF-MP2                         
	      2nd-Order Density-Fitted Moller-Plesset Theory     
	              RMP2 Wavefunction,   4 Threads             
	                                                         
	        Rob Parrish, Justin Turney, Andy Simmonett,      
	           Ed Hohenstein, and C. David Sherrill          
	 --------------------------------------------------------

   => Auxiliary Basis Set <=

  Basis Set: (6-31G* AUX)
    Blend: CC-PVDZ-RI
    Number of shells: 114
    Number of basis function: 360
    Number of Cartesian functions: 426
    Spherical Harmonics?: true
    Max angular momentum: 3

	 --------------------------------------------------------
	                 NBF =    91, NAUX =   360
	 --------------------------------------------------------
	   CLASS    FOCC     OCC    AOCC    AVIR     VIR    FVIR
	   PAIRS       0      37      37      54      54       0
	 --------------------------------------------------------

  DFHelper Memory: AOs need 0.040 GiB; user supplied 10.477 GiB. Using in-core AOs.


         ------------------------------------------------------------
                                     CPHF                           
                                  Rob Parrish                       
         ------------------------------------------------------------

  ==> Geometry <==

    Molecular point group: c1
    Full point group: C1

    Geometry (in Angstrom), charge = 0, multiplicity = 1:

       Center              X                  Y                   Z               Mass       
    ------------   -----------------  -----------------  -----------------  -----------------
         CL          -0.905731837293    -0.503775722408     1.434411617761    34.968852682000
         CL          -0.713977987118     1.472406783414    -0.647225173037    34.968852682000
         CL          -0.078606517622    -1.272077532368    -1.227196413676    34.968852682000
         CL           1.696341329483     0.304446821248     0.438521013334    34.968852682000
         C            0.005755326911    -0.002915090649     0.004338922470    12.000000000000

  Nuclear repulsion =  439.628470886214131
  Reference energy  = -1875.744156967064782

  ==> Basis Set <==

  Basis Set: 6-31G*
    Blend: 6-31G*
    Number of shells: 38
    Number of basis function: 91
    Number of Cartesian functions: 91
    Spherical Harmonics?: false
    Max angular momentum: 2

  ==> CGRSolver (by Rob Parrish) <==

   Number of roots    =         1
   Preconditioning    =    JACOBI
   Convergence cutoff =     1E-06
   Maximum iterations =       100

  ==> CPHFRHamiltonian (by Rob Parrish) <== 

  ==> MemDFJK: Density-Fitted J/K Matrices <==

    J tasked:                   Yes
    K tasked:                   Yes
    wK tasked:                   No
    OpenMP threads:               4
    Memory [MiB]:             10728
    Algorithm:                 Core
    Schwarz Cutoff:           1E-12
    Mask sparsity (%):       3.7194
    Fitting Condition:        1E-10

   => Auxiliary Basis Set <=

  Basis Set: (6-31G* AUX)
    Blend: CC-PVDZ-JKFIT
    Number of shells: 168
    Number of basis function: 601
    Number of Cartesian functions: 601
    Spherical Harmonics?: false
    Max angular momentum: 3

  ==> CPHF Iterations <==

  => Iterations <=

             Iter  Converged  Remaining    Residual
  CGR           1          0          1   1.423E-01
  CGR           2          0          1   2.152E-02
  CGR           3          0          1   4.998E-03
  CGR           4          0          1   7.377E-04
  CGR           5          0          1   1.655E-04
  CGR           6          0          1   2.249E-05
  CGR           7          0          1   6.056E-06
  CGR           8          0          1   2.372E-06
  CGR           9          1          0   5.751E-07

    CGRSolver converged.

  ==> DFCorrGrad: Density-Fitted Correlated Gradients <==

    OpenMP threads:              4
    Integrals threads:           4
    Memory [GiB]:           10.477
    Schwarz Cutoff:          0E+00
    Fitting Condition:       1E-10

   => Auxiliary Basis Set <=

  Basis Set: (6-31G* AUX)
    Blend: CC-PVDZ-JKFIT
    Number of shells: 168
    Number of basis function: 601
    Number of Cartesian functions: 601
    Spherical Harmonics?: false
    Max angular momentum: 3

	-----------------------------------------------------------
	 ==================> DF-MP2 Energies <==================== 
	-----------------------------------------------------------
	 Reference Energy          =   -1875.7441569670647823 [Eh]
	 Singles Energy            =      -0.0000000000000000 [Eh]
	 Same-Spin Energy          =      -0.1939280978323723 [Eh]
	 Opposite-Spin Energy      =      -0.5140747757270863 [Eh]
	 Correlation Energy        =      -0.7080028735594586 [Eh]
	 Total Energy              =   -1876.4521598406242902 [Eh]
	-----------------------------------------------------------
	 ================> DF-SCS-MP2 Energies <================== 
	-----------------------------------------------------------
	 SCS Same-Spin Scale       =       0.3333333333333333 [-]
	 SCS Opposite-Spin Scale   =       1.2000000000000000 [-]
	 SCS Same-Spin Energy      =      -0.0646426992774574 [Eh]
	 SCS Opposite-Spin Energy  =      -0.6168897308725035 [Eh]
	 SCS Correlation Energy    =      -0.6815324301499610 [Eh]
	 SCS Total Energy          =   -1876.4256893972146827 [Eh]
	-----------------------------------------------------------


  -Total Gradient:
     Atom            X                  Y                   Z
    ------   -----------------  -----------------  -----------------
       1       -0.001485637127     0.000969495434    -0.000834941777
       2       -0.000045330284    -0.002697642815     0.000610806320
       3       -0.001436466736     0.000765301242    -0.001106254384
       4        0.002178415705     0.001287457189     0.000121322692
       5        0.000789018488    -0.000324611159     0.001209067243


*** tstop() called on node37.bme.utexas.edu at Wed Jul 28 13:46:52 2021
Module time:
	user time   =      14.87 seconds =       0.25 minutes
	system time =       0.72 seconds =       0.01 minutes
	total time  =          4 seconds =       0.07 minutes
Total time:
	user time   =      39.29 seconds =       0.65 minutes
	system time =       2.22 seconds =       0.04 minutes
	total time  =         11 seconds =       0.18 minutes

			-----------------------------------------
			 OPTKING 2.0: for geometry optimizations 
			  - R.A. King,  Bethel University        
			-----------------------------------------
	At level 1: Red. Int., RFO, no backsteps, dynamic trust

	Previous internal coordinate definitions found.
	---Fragment 1 Geometry and Gradient---
	 CL         -1.7115851156       -0.9519981440        2.7106451087
	 CL         -1.3492228553        2.7824455659       -1.2230783185
	 CL         -0.1485447900       -2.4038781465       -2.3190651240
	 CL          3.2056205280        0.5753211119        0.8286846155
	 C           0.0108759916       -0.0055087230        0.0081993751
	            -0.0014856371        0.0009694954       -0.0008349418
	            -0.0000453303       -0.0026976428        0.0006108063
	            -0.0014364667        0.0007653012       -0.0011062544
	             0.0021784157        0.0012874572        0.0001213227
	             0.0007890185       -0.0003246112        0.0012090672

	---Fragment 1 Intrafragment Coordinates---
	 - Coordinate -           - BOHR/RAD -       - ANG/DEG -
	 R(1,5)           =         3.341546	       1.768270
	 R(2,5)           =         3.337455	       1.766105
	 R(3,5)           =         3.345706	       1.770472
	 R(4,5)           =         3.349172	       1.772305
	 B(1,5,2)         =         1.901716	     108.960303
	 B(1,5,3)         =         1.912348	     109.569467
	 B(1,5,4)         =         1.920582	     110.041236
	 B(2,5,3)         =         1.899462	     108.831130
	 B(2,5,4)         =         1.911600	     109.526597
	 B(3,5,4)         =         1.917905	     109.887868

	Current energy   :     -1876.4521598406

	Energy change for the previous step:
		Projected    :        -0.0032908339
		Actual       :        -0.0006687098
	Energy ratio indicates iffy step: Trust radius decreased to 2.500e-01.


	Performing BFGS update.
	Previous computed or guess Hessian on step 1.
	Steps to be used in Hessian update: 1
	Taking RFO optimization step.
	Going to follow RFO solution 1.
	Using RFO vector 1.
	Norm of target step-size    0.02276
	Projected energy change by RFO approximation:        -0.0000785597

	Back-transformation to cartesian coordinates...
	Successfully converged to displaced geometry.

	--- Internal Coordinate Step in ANG or DEG, aJ/ANG or AJ/DEG ---
	 ---------------------------------------------------------------------------
	   Coordinate                Previous        Force       Change         New 
	   ----------                --------       ------       ------       ------
	    1 R(1,5)          =      1.768270     0.001516     0.000150     1.768420
	    2 R(2,5)          =      1.766105     0.020270     0.003110     1.769215
	    3 R(3,5)          =      1.770472    -0.002384    -0.000678     1.769793
	    4 R(4,5)          =      1.772305    -0.019204    -0.003284     1.769021
	    5 B(1,5,2)        =    108.960303     0.000280     0.569647   109.529950
	    6 B(1,5,3)        =    109.569467    -0.000042    -0.032787   109.536680
	    7 B(1,5,4)        =    110.041236    -0.000292    -0.656198   109.385038
	    8 B(2,5,3)        =    108.831130     0.000323     0.646548   109.477679
	    9 B(2,5,4)        =    109.526597    -0.000015     0.015152   109.541749
	   10 B(3,5,4)        =    109.887868    -0.000243    -0.531776   109.356092
	 ---------------------------------------------------------------------------
	Successfully symmetrized geometry.

  ==> Convergence Check <==

  Measures of convergence in internal coordinates in au.
  Criteria marked as inactive (o), active & met (*), and active & unmet ( ).
  ---------------------------------------------------------------------------------------------
   Step     Total Energy     Delta E     MAX Force     RMS Force      MAX Disp      RMS Disp   
  ---------------------------------------------------------------------------------------------
    Convergence Criteria             o    4.50e-04 *    3.00e-04 *    1.80e-03 *    1.20e-03 *
  ---------------------------------------------------------------------------------------------
      2   -1876.45215984   -6.69e-04 o    4.24e-03      2.61e-03      1.15e-02      7.20e-03    ~
  ---------------------------------------------------------------------------------------------

	Writing optimization data to binary file.
	Structure for next step:
	Cartesian Geometry (in Angstrom)
	   CL    -0.8981589443  -0.5072714264   1.4371495676
	   CL    -0.7136218105   1.4827027003  -0.6497707047
	   CL    -0.0720394715  -1.2758269150  -1.2235943568
	   CL     1.6877440620   0.2983319601   0.4383702107
	    C    -0.0001435214   0.0001489403   0.0006952500
			--------------------------
			 OPTKING Finished Execution 
			--------------------------

    Structure for next step:
    Molecular point group: c1
    Full point group: C1

    Geometry (in Angstrom), charge = 0, multiplicity = 1:

    CL          -0.899051059160    -0.506808040194     1.436598523077
    CL          -0.714513924622     1.483166094333    -0.650321757484
    CL          -0.072931583180    -1.275363531826    -1.224145411811
    CL           1.686851957312     0.298795349471     0.437819162232
    C           -0.001035632734     0.000612328553     0.000144199851

gradient() will perform analytic gradient computation.
    SCF Algorithm Type (re)set to DF.

*** tstart() called on node37.bme.utexas.edu
*** at Wed Jul 28 13:46:52 2021

   => Loading Basis Set <=

    Name: 6-31G*
    Role: ORBITAL
    Keyword: BASIS
    atoms 1-4 entry CL         line   340 file /home/bdw2292/miniconda3/envs/poltype2/share/psi4/basis/6-31gs.gbs 
    atoms 5   entry C          line   111 file /home/bdw2292/miniconda3/envs/poltype2/share/psi4/basis/6-31gs.gbs 


         ---------------------------------------------------------
                                   SCF
               by Justin Turney, Rob Parrish, Andy Simmonett
                          and Daniel G. A. Smith
                              RHF Reference
                        4 Threads,  14305 MiB Core
         ---------------------------------------------------------

  ==> Geometry <==

    Molecular point group: c1
    Full point group: C1

    Geometry (in Angstrom), charge = 0, multiplicity = 1:

       Center              X                  Y                   Z               Mass       
    ------------   -----------------  -----------------  -----------------  -----------------
         CL          -0.899051059160    -0.506808040194     1.436598523077    34.968852682000
         CL          -0.714513924622     1.483166094333    -0.650321757484    34.968852682000
         CL          -0.072931583180    -1.275363531826    -1.224145411811    34.968852682000
         CL           1.686851957312     0.298795349471     0.437819162232    34.968852682000
         C           -0.001035632734     0.000612328553     0.000144199851    12.000000000000

  Running in c1 symmetry.

  Rotational constants: A =      0.05780  B =      0.05778  C =      0.05770 [cm^-1]
  Rotational constants: A =   1732.83657  B =   1732.33978  C =   1729.73227 [MHz]
  Nuclear repulsion =  439.663102162617065

  Charge       = 0
  Multiplicity = 1
  Electrons    = 74
  Nalpha       = 37
  Nbeta        = 37

  ==> Algorithm <==

  SCF Algorithm Type is DF.
  DIIS enabled.
  MOM disabled.
  Fractional occupation disabled.
  Guess Type is READ.
  Energy threshold   = 1.00e-10
  Density threshold  = 1.00e-10
  Integral threshold = 0.00e+00

  ==> Primary Basis <==

  Basis Set: 6-31G*
    Blend: 6-31G*
    Number of shells: 38
    Number of basis function: 91
    Number of Cartesian functions: 91
    Spherical Harmonics?: false
    Max angular momentum: 2

   => Loading Basis Set <=

    Name: (6-31G* AUX)
    Role: JKFIT
    Keyword: DF_BASIS_SCF
    atoms 1-4 entry CL         line   667 file /home/bdw2292/miniconda3/envs/poltype2/share/psi4/basis/cc-pvdz-jkfit.gbs 
    atoms 5   entry C          line   121 file /home/bdw2292/miniconda3/envs/poltype2/share/psi4/basis/cc-pvdz-jkfit.gbs 

   => Loading Basis Set <=

    Name: 6-31G*
    Role: ORBITAL
    Keyword: BASIS
    atoms 1-4 entry CL         line   340 file /home/bdw2292/miniconda3/envs/poltype2/share/psi4/basis/6-31gs.gbs 
    atoms 5   entry C          line   111 file /home/bdw2292/miniconda3/envs/poltype2/share/psi4/basis/6-31gs.gbs 

  Reading orbitals from file 180, no projection.

  ==> Pre-Iterations <==

   -------------------------------------------------------
    Irrep   Nso     Nmo     Nalpha   Nbeta   Ndocc  Nsocc
   -------------------------------------------------------
     A         91      91       0       0       0       0
   -------------------------------------------------------
    Total      91      91      37      37      37       0
   -------------------------------------------------------

  ==> Integral Setup <==

  DFHelper Memory: AOs need 0.040 GiB; user supplied 10.477 GiB. Using in-core AOs.

  ==> MemDFJK: Density-Fitted J/K Matrices <==

    J tasked:                   Yes
    K tasked:                   Yes
    wK tasked:                   No
    OpenMP threads:               4
    Memory [MiB]:             10728
    Algorithm:                 Core
    Schwarz Cutoff:           1E-12
    Mask sparsity (%):       3.7194
    Fitting Condition:        1E-10

   => Auxiliary Basis Set <=

  Basis Set: (6-31G* AUX)
    Blend: CC-PVDZ-JKFIT
    Number of shells: 168
    Number of basis function: 601
    Number of Cartesian functions: 601
    Spherical Harmonics?: false
    Max angular momentum: 3

  Minimum eigenvalue in the overlap matrix is 1.3458167250E-02.
  Using Symmetric Orthogonalization.

  SCF Guess: Orbitals guess was supplied from a previous computation.

  ==> Iterations <==

                           Total Energy        Delta E     RMS |[F,P]|

   @DF-RHF iter   0: -1875.74461170652353   -1.87574e+03   3.10337e-04 
   @DF-RHF iter   1: -1875.74422428442085    3.87422e-04   4.34132e-05 DIIS
   @DF-RHF iter   2: -1875.74424274170178   -1.84573e-05   1.91145e-05 DIIS
   @DF-RHF iter   3: -1875.74424680142442   -4.05972e-06   9.28053e-06 DIIS
   @DF-RHF iter   4: -1875.74424852463972   -1.72322e-06   1.77468e-06 DIIS
   @DF-RHF iter   5: -1875.74424855975099   -3.51113e-08   1.00344e-06 DIIS
   @DF-RHF iter   6: -1875.74424856543760   -5.68662e-09   1.41753e-07 DIIS
   @DF-RHF iter   7: -1875.74424856567271   -2.35104e-10   3.24650e-08 DIIS
   @DF-RHF iter   8: -1875.74424856568612   -1.34150e-11   1.07330e-08 DIIS
   @DF-RHF iter   9: -1875.74424856568703   -9.09495e-13   2.25734e-09 DIIS
   @DF-RHF iter  10: -1875.74424856568703    0.00000e+00   3.45103e-10 DIIS
   @DF-RHF iter  11: -1875.74424856568703    0.00000e+00   6.31505e-11 DIIS
  Energy and wave function converged.


  ==> Post-Iterations <==

    Orbital Energies [Eh]
    ---------------------

    Doubly Occupied:                                                      

       1A   -104.868573     2A   -104.868538     3A   -104.868385  
       4A   -104.868357     5A    -11.498867     6A    -10.602987  
       7A    -10.602969     8A    -10.602801     9A    -10.602784  
      10A     -8.072398    11A     -8.072383    12A     -8.072210  
      13A     -8.072199    14A     -8.068343    15A     -8.068343  
      16A     -8.068329    17A     -8.068329    18A     -8.068156  
      19A     -8.068155    20A     -8.068148    21A     -8.068148  
      22A     -1.292569    23A     -1.134032    24A     -1.133910  
      25A     -1.133635    26A     -0.839355    27A     -0.664459  
      28A     -0.664392    29A     -0.664225    30A     -0.533372  
      31A     -0.533168    32A     -0.492501    33A     -0.492406  
      34A     -0.492219    35A     -0.464085    36A     -0.464023  
      37A     -0.463912  

    Virtual:                                                              

      38A      0.092682    39A      0.155180    40A      0.155505  
      41A      0.155650    42A      0.413638    43A      0.508881  
      44A      0.508932    45A      0.508973    46A      0.575699  
      47A      0.576087    48A      0.576119    49A      0.621068  
      50A      0.621207    51A      0.622464    52A      0.663847  
      53A      0.664008    54A      0.664149    55A      0.684739  
      56A      0.684850    57A      0.684870    58A      0.801328  
      59A      0.801397    60A      0.801558    61A      0.967422  
      62A      0.967625    63A      1.105136    64A      1.105200  
      65A      1.105223    66A      1.120311    67A      1.120357  
      68A      1.122761    69A      1.122851    70A      1.122925  
      71A      1.157448    72A      1.157559    73A      1.157896  
      74A      1.279981    75A      1.331907    76A      1.332266  
      77A      1.332413    78A      1.494007    79A      1.494558  
      80A      1.495080    81A      1.607469    82A      2.025789  
      83A      2.025977    84A      2.398319    85A      2.398694  
      86A      2.399567    87A      4.318655    88A      4.688236  
      89A      4.688425    90A      4.688432    91A      4.729365  

    Final Occupation by Irrep:
              A 
    DOCC [    37 ]

  @DF-RHF Final Energy: -1875.74424856568703

   => Energetics <=

    Nuclear Repulsion Energy =            439.6631021626170650
    One-Electron Energy =               -3467.4513698038999792
    Two-Electron Energy =                1152.0440190755957701
    Total Energy =                      -1875.7442485656870304

Computation Completed


Properties will be evaluated at   0.000000,   0.000000,   0.000000 [a0]

Properties computed using the SCF density matrix

  Nuclear Dipole Moment: [e a0]
     X:    -0.0003      Y:     0.0002      Z:     0.0000

  Electronic Dipole Moment: [e a0]
     X:    -0.0012      Y:     0.0008      Z:     0.0012

  Dipole Moment: [e a0]
     X:    -0.0015      Y:     0.0010      Z:     0.0013     Total:     0.0022

  Dipole Moment: [D]
     X:    -0.0039      Y:     0.0026      Z:     0.0033     Total:     0.0057


*** tstop() called on node37.bme.utexas.edu at Wed Jul 28 13:46:53 2021
Module time:
	user time   =       3.85 seconds =       0.06 minutes
	system time =       0.22 seconds =       0.00 minutes
	total time  =          1 seconds =       0.02 minutes
Total time:
	user time   =      43.23 seconds =       0.72 minutes
	system time =       2.45 seconds =       0.04 minutes
	total time  =         12 seconds =       0.20 minutes

*** tstart() called on node37.bme.utexas.edu
*** at Wed Jul 28 13:46:53 2021


  //>>>>>>>>>>>>>>>>>>>>>>>>>>>>>>>>>>>//
  //               DFMP2               //
  //<<<<<<<<<<<<<<<<<<<<<<<<<<<<<<<<<<<//

   => Loading Basis Set <=

    Name: (6-31G* AUX)
    Role: RIFIT
    Keyword: DF_BASIS_MP2
    atoms 1-4 entry CL         line   649 file /home/bdw2292/miniconda3/envs/poltype2/share/psi4/basis/cc-pvdz-ri.gbs 
    atoms 5   entry C          line   159 file /home/bdw2292/miniconda3/envs/poltype2/share/psi4/basis/cc-pvdz-ri.gbs 

	 --------------------------------------------------------
	                          DF-MP2                         
	      2nd-Order Density-Fitted Moller-Plesset Theory     
	              RMP2 Wavefunction,   4 Threads             
	                                                         
	        Rob Parrish, Justin Turney, Andy Simmonett,      
	           Ed Hohenstein, and C. David Sherrill          
	 --------------------------------------------------------

   => Auxiliary Basis Set <=

  Basis Set: (6-31G* AUX)
    Blend: CC-PVDZ-RI
    Number of shells: 114
    Number of basis function: 360
    Number of Cartesian functions: 426
    Spherical Harmonics?: true
    Max angular momentum: 3

	 --------------------------------------------------------
	                 NBF =    91, NAUX =   360
	 --------------------------------------------------------
	   CLASS    FOCC     OCC    AOCC    AVIR     VIR    FVIR
	   PAIRS       0      37      37      54      54       0
	 --------------------------------------------------------

  DFHelper Memory: AOs need 0.040 GiB; user supplied 10.477 GiB. Using in-core AOs.


         ------------------------------------------------------------
                                     CPHF                           
                                  Rob Parrish                       
         ------------------------------------------------------------

  ==> Geometry <==

    Molecular point group: c1
    Full point group: C1

    Geometry (in Angstrom), charge = 0, multiplicity = 1:

       Center              X                  Y                   Z               Mass       
    ------------   -----------------  -----------------  -----------------  -----------------
         CL          -0.899051059160    -0.506808040194     1.436598523077    34.968852682000
         CL          -0.714513924622     1.483166094333    -0.650321757484    34.968852682000
         CL          -0.072931583180    -1.275363531826    -1.224145411811    34.968852682000
         CL           1.686851957312     0.298795349471     0.437819162232    34.968852682000
         C           -0.001035632734     0.000612328553     0.000144199851    12.000000000000

  Nuclear repulsion =  439.663102162617065
  Reference energy  = -1875.744248565687030

  ==> Basis Set <==

  Basis Set: 6-31G*
    Blend: 6-31G*
    Number of shells: 38
    Number of basis function: 91
    Number of Cartesian functions: 91
    Spherical Harmonics?: false
    Max angular momentum: 2

  ==> CGRSolver (by Rob Parrish) <==

   Number of roots    =         1
   Preconditioning    =    JACOBI
   Convergence cutoff =     1E-06
   Maximum iterations =       100

  ==> CPHFRHamiltonian (by Rob Parrish) <== 

  ==> MemDFJK: Density-Fitted J/K Matrices <==

    J tasked:                   Yes
    K tasked:                   Yes
    wK tasked:                   No
    OpenMP threads:               4
    Memory [MiB]:             10728
    Algorithm:                 Core
    Schwarz Cutoff:           1E-12
    Mask sparsity (%):       3.7194
    Fitting Condition:        1E-10

   => Auxiliary Basis Set <=

  Basis Set: (6-31G* AUX)
    Blend: CC-PVDZ-JKFIT
    Number of shells: 168
    Number of basis function: 601
    Number of Cartesian functions: 601
    Spherical Harmonics?: false
    Max angular momentum: 3

  ==> CPHF Iterations <==

  => Iterations <=

             Iter  Converged  Remaining    Residual
  CGR           1          0          1   1.423E-01
  CGR           2          0          1   2.151E-02
  CGR           3          0          1   4.994E-03
  CGR           4          0          1   7.357E-04
  CGR           5          0          1   1.629E-04
  CGR           6          0          1   2.003E-05
  CGR           7          0          1   2.241E-06
  CGR           8          1          0   3.825E-07

    CGRSolver converged.

  ==> DFCorrGrad: Density-Fitted Correlated Gradients <==

    OpenMP threads:              4
    Integrals threads:           4
    Memory [GiB]:           10.477
    Schwarz Cutoff:          0E+00
    Fitting Condition:       1E-10

   => Auxiliary Basis Set <=

  Basis Set: (6-31G* AUX)
    Blend: CC-PVDZ-JKFIT
    Number of shells: 168
    Number of basis function: 601
    Number of Cartesian functions: 601
    Spherical Harmonics?: false
    Max angular momentum: 3

	-----------------------------------------------------------
	 ==================> DF-MP2 Energies <==================== 
	-----------------------------------------------------------
	 Reference Energy          =   -1875.7442485656870304 [Eh]
	 Singles Energy            =      -0.0000000000000000 [Eh]
	 Same-Spin Energy          =      -0.1939317330270021 [Eh]
	 Opposite-Spin Energy      =      -0.5140634197817044 [Eh]
	 Correlation Energy        =      -0.7079951528087065 [Eh]
	 Total Energy              =   -1876.4522437184957653 [Eh]
	-----------------------------------------------------------
	 ================> DF-SCS-MP2 Energies <================== 
	-----------------------------------------------------------
	 SCS Same-Spin Scale       =       0.3333333333333333 [-]
	 SCS Opposite-Spin Scale   =       1.2000000000000000 [-]
	 SCS Same-Spin Energy      =      -0.0646439110090007 [Eh]
	 SCS Opposite-Spin Energy  =      -0.6168761037380454 [Eh]
	 SCS Correlation Energy    =      -0.6815200147470460 [Eh]
	 SCS Total Energy          =   -1876.4257685804341236 [Eh]
	-----------------------------------------------------------


  -Total Gradient:
     Atom            X                  Y                   Z
    ------   -----------------  -----------------  -----------------
       1        0.000368250675     0.000093839966    -0.000083866542
       2       -0.000058308526     0.000086045242    -0.000080391787
       3        0.000250662861    -0.000091581114    -0.000100803504
       4       -0.000221691959    -0.000308179926     0.000013670284
       5       -0.000338913044     0.000219875854     0.000251391432


*** tstop() called on node37.bme.utexas.edu at Wed Jul 28 13:46:57 2021
Module time:
	user time   =      14.68 seconds =       0.24 minutes
	system time =       0.64 seconds =       0.01 minutes
	total time  =          4 seconds =       0.07 minutes
Total time:
	user time   =      57.92 seconds =       0.97 minutes
	system time =       3.09 seconds =       0.05 minutes
	total time  =         16 seconds =       0.27 minutes

			-----------------------------------------
			 OPTKING 2.0: for geometry optimizations 
			  - R.A. King,  Bethel University        
			-----------------------------------------
	At level 1: Red. Int., RFO, no backsteps, dynamic trust

	Previous internal coordinate definitions found.
	---Fragment 1 Geometry and Gradient---
	 CL         -1.6989602746       -0.9577283941        2.7147777609
	 CL         -1.3502356304        2.8027777169       -1.2289300151
	 CL         -0.1378207181       -2.4100877855       -2.3132995661
	 CL          3.1876882135        0.5646413781        0.8273583091
	 C          -0.0019570622        0.0011571333        0.0002724982
	             0.0003682507        0.0000938400       -0.0000838665
	            -0.0000583085        0.0000860452       -0.0000803918
	             0.0002506629       -0.0000915811       -0.0001008035
	            -0.0002216920       -0.0003081799        0.0000136703
	            -0.0003389130        0.0002198759        0.0002513914

	---Fragment 1 Intrafragment Coordinates---
	 - Coordinate -           - BOHR/RAD -       - ANG/DEG -
	 R(1,5)           =         3.341829	       1.768420
	 R(2,5)           =         3.343332	       1.769215
	 R(3,5)           =         3.344425	       1.769793
	 R(4,5)           =         3.342966	       1.769021
	 B(1,5,2)         =         1.911658	     109.529950
	 B(1,5,3)         =         1.911776	     109.536680
	 B(1,5,4)         =         1.909129	     109.385038
	 B(2,5,3)         =         1.910746	     109.477679
	 B(2,5,4)         =         1.911864	     109.541749
	 B(3,5,4)         =         1.908624	     109.356092

	Current energy   :     -1876.4522437185

	Energy change for the previous step:
		Projected    :        -0.0000785597
		Actual       :        -0.0000838779
	Energy ratio indicates good step: Trust radius increased to 7.500e-01.


	Performing BFGS update.
	Previous computed or guess Hessian on step 1.
	Steps to be used in Hessian update: 2 1
	Taking RFO optimization step.
	Going to follow RFO solution 1.
	Using RFO vector 1.
	Norm of target step-size    0.00347
	Projected energy change by RFO approximation:        -0.0000044007

	Back-transformation to cartesian coordinates...
	Successfully converged to displaced geometry.

	--- Internal Coordinate Step in ANG or DEG, aJ/ANG or AJ/DEG ---
	 ---------------------------------------------------------------------------
	   Coordinate                Previous        Force       Change         New 
	   ----------                --------       ------       ------       ------
	    1 R(1,5)          =      1.768420     0.002324     0.000490     1.768909
	    2 R(2,5)          =      1.769215    -0.001031    -0.000101     1.769114
	    3 R(3,5)          =      1.769793    -0.001035    -0.000223     1.769570
	    4 R(4,5)          =      1.769021     0.002143     0.000344     1.769365
	    5 B(1,5,2)        =    109.529950    -0.000026    -0.049655   109.480295
	    6 B(1,5,3)        =    109.536680    -0.000023    -0.067960   109.468720
	    7 B(1,5,4)        =    109.385038     0.000044     0.100668   109.485706
	    8 B(2,5,3)        =    109.477679    -0.000015    -0.018461   109.459218
	    9 B(2,5,4)        =    109.541749    -0.000026    -0.073076   109.468673
	   10 B(3,5,4)        =    109.356092     0.000046     0.108616   109.464708
	 ---------------------------------------------------------------------------
	Successfully symmetrized geometry.

  ==> Convergence Check <==

  Measures of convergence in internal coordinates in au.
  Criteria marked as inactive (o), active & met (*), and active & unmet ( ).
  ---------------------------------------------------------------------------------------------
   Step     Total Energy     Delta E     MAX Force     RMS Force      MAX Disp      RMS Disp   
  ---------------------------------------------------------------------------------------------
    Convergence Criteria             o    4.50e-04 *    3.00e-04 *    1.80e-03 *    1.20e-03 *
  ---------------------------------------------------------------------------------------------
      3   -1876.45224372   -8.39e-05 o    6.00e-04      3.51e-04      1.90e-03      1.10e-03 *  ~
  ---------------------------------------------------------------------------------------------

	Writing optimization data to binary file.
	Structure for next step:
	Cartesian Geometry (in Angstrom)
	   CL    -0.9003054385  -0.5073893885   1.4359698505
	   CL    -0.7137033996   1.4827432828  -0.6498297304
	   CL    -0.0742201757  -1.2756213401  -1.2237988340
	   CL     1.6877604211   0.3005199812   0.4374977871
	    C    -0.0002116497   0.0001496649   0.0002556426
			--------------------------
			 OPTKING Finished Execution 
			--------------------------

    Structure for next step:
    Molecular point group: c1
    Full point group: C1

    Geometry (in Angstrom), charge = 0, multiplicity = 1:

    CL          -0.900180827116    -0.507459361340     1.435986710165
    CL          -0.713578787470     1.482673317759    -0.649812878936
    CL          -0.074095561035    -1.275691315945    -1.223781984740
    CL           1.687885042709     0.300450011522     0.437514642891
    C           -0.000087034816     0.000079694023     0.000272496595

gradient() will perform analytic gradient computation.
    SCF Algorithm Type (re)set to DF.

*** tstart() called on node37.bme.utexas.edu
*** at Wed Jul 28 13:46:57 2021

   => Loading Basis Set <=

    Name: 6-31G*
    Role: ORBITAL
    Keyword: BASIS
    atoms 1-4 entry CL         line   340 file /home/bdw2292/miniconda3/envs/poltype2/share/psi4/basis/6-31gs.gbs 
    atoms 5   entry C          line   111 file /home/bdw2292/miniconda3/envs/poltype2/share/psi4/basis/6-31gs.gbs 


         ---------------------------------------------------------
                                   SCF
               by Justin Turney, Rob Parrish, Andy Simmonett
                          and Daniel G. A. Smith
                              RHF Reference
                        4 Threads,  14305 MiB Core
         ---------------------------------------------------------

  ==> Geometry <==

    Molecular point group: c1
    Full point group: C1

    Geometry (in Angstrom), charge = 0, multiplicity = 1:

       Center              X                  Y                   Z               Mass       
    ------------   -----------------  -----------------  -----------------  -----------------
         CL          -0.900180827116    -0.507459361340     1.435986710165    34.968852682000
         CL          -0.713578787470     1.482673317759    -0.649812878936    34.968852682000
         CL          -0.074095561035    -1.275691315945    -1.223781984740    34.968852682000
         CL           1.687885042709     0.300450011522     0.437514642891    34.968852682000
         C           -0.000087034816     0.000079694023     0.000272496595    12.000000000000

  Running in c1 symmetry.

  Rotational constants: A =      0.05776  B =      0.05775  C =      0.05775 [cm^-1]
  Rotational constants: A =   1731.55016  B =   1731.35822  C =   1731.24779 [MHz]
  Nuclear repulsion =  439.631303218449375

  Charge       = 0
  Multiplicity = 1
  Electrons    = 74
  Nalpha       = 37
  Nbeta        = 37

  ==> Algorithm <==

  SCF Algorithm Type is DF.
  DIIS enabled.
  MOM disabled.
  Fractional occupation disabled.
  Guess Type is READ.
  Energy threshold   = 1.00e-10
  Density threshold  = 1.00e-10
  Integral threshold = 0.00e+00

  ==> Primary Basis <==

  Basis Set: 6-31G*
    Blend: 6-31G*
    Number of shells: 38
    Number of basis function: 91
    Number of Cartesian functions: 91
    Spherical Harmonics?: false
    Max angular momentum: 2

   => Loading Basis Set <=

    Name: (6-31G* AUX)
    Role: JKFIT
    Keyword: DF_BASIS_SCF
    atoms 1-4 entry CL         line   667 file /home/bdw2292/miniconda3/envs/poltype2/share/psi4/basis/cc-pvdz-jkfit.gbs 
    atoms 5   entry C          line   121 file /home/bdw2292/miniconda3/envs/poltype2/share/psi4/basis/cc-pvdz-jkfit.gbs 

   => Loading Basis Set <=

    Name: 6-31G*
    Role: ORBITAL
    Keyword: BASIS
    atoms 1-4 entry CL         line   340 file /home/bdw2292/miniconda3/envs/poltype2/share/psi4/basis/6-31gs.gbs 
    atoms 5   entry C          line   111 file /home/bdw2292/miniconda3/envs/poltype2/share/psi4/basis/6-31gs.gbs 

  Reading orbitals from file 180, no projection.

  ==> Pre-Iterations <==

   -------------------------------------------------------
    Irrep   Nso     Nmo     Nalpha   Nbeta   Ndocc  Nsocc
   -------------------------------------------------------
     A         91      91       0       0       0       0
   -------------------------------------------------------
    Total      91      91      37      37      37       0
   -------------------------------------------------------

  ==> Integral Setup <==

  DFHelper Memory: AOs need 0.040 GiB; user supplied 10.477 GiB. Using in-core AOs.

  ==> MemDFJK: Density-Fitted J/K Matrices <==

    J tasked:                   Yes
    K tasked:                   Yes
    wK tasked:                   No
    OpenMP threads:               4
    Memory [MiB]:             10728
    Algorithm:                 Core
    Schwarz Cutoff:           1E-12
    Mask sparsity (%):       3.7194
    Fitting Condition:        1E-10

   => Auxiliary Basis Set <=

  Basis Set: (6-31G* AUX)
    Blend: CC-PVDZ-JKFIT
    Number of shells: 168
    Number of basis function: 601
    Number of Cartesian functions: 601
    Spherical Harmonics?: false
    Max angular momentum: 3

  Minimum eigenvalue in the overlap matrix is 1.3462004255E-02.
  Using Symmetric Orthogonalization.

  SCF Guess: Orbitals guess was supplied from a previous computation.

  ==> Iterations <==

                           Total Energy        Delta E     RMS |[F,P]|

   @DF-RHF iter   0: -1875.74412099741153   -1.87574e+03   4.29123e-05 
   @DF-RHF iter   1: -1875.74424853378196   -1.27536e-04   6.11020e-06 DIIS
   @DF-RHF iter   2: -1875.74424889855732   -3.64775e-07   2.66496e-06 DIIS
   @DF-RHF iter   3: -1875.74424897770518   -7.91479e-08   1.29685e-06 DIIS
   @DF-RHF iter   4: -1875.74424900962572   -3.19205e-08   3.36674e-07 DIIS
   @DF-RHF iter   5: -1875.74424901062457   -9.98853e-10   1.47188e-07 DIIS
   @DF-RHF iter   6: -1875.74424901078805   -1.63482e-10   2.21276e-08 DIIS
   @DF-RHF iter   7: -1875.74424901079419   -6.13909e-12   5.39229e-09 DIIS
   @DF-RHF iter   8: -1875.74424901079419    0.00000e+00   1.41425e-09 DIIS
   @DF-RHF iter   9: -1875.74424901079328    9.09495e-13   3.48016e-10 DIIS
   @DF-RHF iter  10: -1875.74424901079510   -1.81899e-12   9.40976e-11 DIIS
  Energy and wave function converged.


  ==> Post-Iterations <==

    Orbital Energies [Eh]
    ---------------------

    Doubly Occupied:                                                      

       1A   -104.868513     2A   -104.868478     3A   -104.868472  
       4A   -104.868436     5A    -11.498902     6A    -10.602938  
       7A    -10.602902     8A    -10.602885     9A    -10.602846  
      10A     -8.072350    11A     -8.072312    12A     -8.072297  
      13A     -8.072260    14A     -8.068294    15A     -8.068294  
      16A     -8.068257    17A     -8.068257    18A     -8.068245  
      19A     -8.068245    20A     -8.068208    21A     -8.068208  
      22A     -1.292499    23A     -1.133910    24A     -1.133837  
      25A     -1.133771    26A     -0.839358    27A     -0.664353  
      28A     -0.664321    29A     -0.664294    30A     -0.533261  
      31A     -0.533254    32A     -0.492412    33A     -0.492370  
      34A     -0.492331    35A     -0.464032    36A     -0.464018  
      37A     -0.464006  

    Virtual:                                                              

      38A      0.092619    39A      0.155307    40A      0.155404  
      41A      0.155508    42A      0.413624    43A      0.508920  
      44A      0.508924    45A      0.508928    46A      0.575944  
      47A      0.575962    48A      0.575993    49A      0.621130  
      50A      0.621134    51A      0.622396    52A      0.663961  
      53A      0.664035    54A      0.664109    55A      0.684816  
      56A      0.684835    57A      0.684856    58A      0.801374  
      59A      0.801409    60A      0.801440    61A      0.967580  
      62A      0.967587    63A      1.105173    64A      1.105188  
      65A      1.105204    66A      1.120330    67A      1.120331  
      68A      1.122780    69A      1.122820    70A      1.122861  
      71A      1.157582    72A      1.157605    73A      1.157621  
      74A      1.279845    75A      1.331992    76A      1.332103  
      77A      1.332221    78A      1.494430    79A      1.494478  
      80A      1.494529    81A      1.607498    82A      2.025775  
      83A      2.025782    84A      2.398452    85A      2.398729  
      86A      2.398990    87A      4.318589    88A      4.688321  
      89A      4.688334    90A      4.688352    91A      4.729281  

    Final Occupation by Irrep:
              A 
    DOCC [    37 ]

  @DF-RHF Final Energy: -1875.74424901079510

   => Energetics <=

    Nuclear Repulsion Energy =            439.6313032184493750
    One-Electron Energy =               -3467.3878455326121184
    Two-Electron Energy =                1152.0122933033676418
    Total Energy =                      -1875.7442490107951016

Computation Completed


Properties will be evaluated at   0.000000,   0.000000,   0.000000 [a0]

Properties computed using the SCF density matrix

  Nuclear Dipole Moment: [e a0]
     X:    -0.0000      Y:     0.0000      Z:     0.0001

  Electronic Dipole Moment: [e a0]
     X:    -0.0004      Y:     0.0003      Z:     0.0007

  Dipole Moment: [e a0]
     X:    -0.0004      Y:     0.0003      Z:     0.0008     Total:     0.0009

  Dipole Moment: [D]
     X:    -0.0011      Y:     0.0008      Z:     0.0020     Total:     0.0024


*** tstop() called on node37.bme.utexas.edu at Wed Jul 28 13:46:58 2021
Module time:
	user time   =       3.76 seconds =       0.06 minutes
	system time =       0.20 seconds =       0.00 minutes
	total time  =          1 seconds =       0.02 minutes
Total time:
	user time   =      61.76 seconds =       1.03 minutes
	system time =       3.29 seconds =       0.05 minutes
	total time  =         17 seconds =       0.28 minutes

*** tstart() called on node37.bme.utexas.edu
*** at Wed Jul 28 13:46:58 2021


  //>>>>>>>>>>>>>>>>>>>>>>>>>>>>>>>>>>>//
  //               DFMP2               //
  //<<<<<<<<<<<<<<<<<<<<<<<<<<<<<<<<<<<//

   => Loading Basis Set <=

    Name: (6-31G* AUX)
    Role: RIFIT
    Keyword: DF_BASIS_MP2
    atoms 1-4 entry CL         line   649 file /home/bdw2292/miniconda3/envs/poltype2/share/psi4/basis/cc-pvdz-ri.gbs 
    atoms 5   entry C          line   159 file /home/bdw2292/miniconda3/envs/poltype2/share/psi4/basis/cc-pvdz-ri.gbs 

	 --------------------------------------------------------
	                          DF-MP2                         
	      2nd-Order Density-Fitted Moller-Plesset Theory     
	              RMP2 Wavefunction,   4 Threads             
	                                                         
	        Rob Parrish, Justin Turney, Andy Simmonett,      
	           Ed Hohenstein, and C. David Sherrill          
	 --------------------------------------------------------

   => Auxiliary Basis Set <=

  Basis Set: (6-31G* AUX)
    Blend: CC-PVDZ-RI
    Number of shells: 114
    Number of basis function: 360
    Number of Cartesian functions: 426
    Spherical Harmonics?: true
    Max angular momentum: 3

	 --------------------------------------------------------
	                 NBF =    91, NAUX =   360
	 --------------------------------------------------------
	   CLASS    FOCC     OCC    AOCC    AVIR     VIR    FVIR
	   PAIRS       0      37      37      54      54       0
	 --------------------------------------------------------

  DFHelper Memory: AOs need 0.040 GiB; user supplied 10.477 GiB. Using in-core AOs.


         ------------------------------------------------------------
                                     CPHF                           
                                  Rob Parrish                       
         ------------------------------------------------------------

  ==> Geometry <==

    Molecular point group: c1
    Full point group: C1

    Geometry (in Angstrom), charge = 0, multiplicity = 1:

       Center              X                  Y                   Z               Mass       
    ------------   -----------------  -----------------  -----------------  -----------------
         CL          -0.900180827116    -0.507459361340     1.435986710165    34.968852682000
         CL          -0.713578787470     1.482673317759    -0.649812878936    34.968852682000
         CL          -0.074095561035    -1.275691315945    -1.223781984740    34.968852682000
         CL           1.687885042709     0.300450011522     0.437514642891    34.968852682000
         C           -0.000087034816     0.000079694023     0.000272496595    12.000000000000

  Nuclear repulsion =  439.631303218449375
  Reference energy  = -1875.744249010795102

  ==> Basis Set <==

  Basis Set: 6-31G*
    Blend: 6-31G*
    Number of shells: 38
    Number of basis function: 91
    Number of Cartesian functions: 91
    Spherical Harmonics?: false
    Max angular momentum: 2

  ==> CGRSolver (by Rob Parrish) <==

   Number of roots    =         1
   Preconditioning    =    JACOBI
   Convergence cutoff =     1E-06
   Maximum iterations =       100

  ==> CPHFRHamiltonian (by Rob Parrish) <== 

  ==> MemDFJK: Density-Fitted J/K Matrices <==

    J tasked:                   Yes
    K tasked:                   Yes
    wK tasked:                   No
    OpenMP threads:               4
    Memory [MiB]:             10728
    Algorithm:                 Core
    Schwarz Cutoff:           1E-12
    Mask sparsity (%):       3.7194
    Fitting Condition:        1E-10

   => Auxiliary Basis Set <=

  Basis Set: (6-31G* AUX)
    Blend: CC-PVDZ-JKFIT
    Number of shells: 168
    Number of basis function: 601
    Number of Cartesian functions: 601
    Spherical Harmonics?: false
    Max angular momentum: 3

  ==> CPHF Iterations <==

  => Iterations <=

             Iter  Converged  Remaining    Residual
  CGR           1          0          1   1.423E-01
  CGR           2          0          1   2.151E-02
  CGR           3          0          1   4.995E-03
  CGR           4          0          1   7.356E-04
  CGR           5          0          1   1.628E-04
  CGR           6          0          1   1.999E-05
  CGR           7          0          1   2.147E-06
  CGR           8          1          0   2.161E-07

    CGRSolver converged.

  ==> DFCorrGrad: Density-Fitted Correlated Gradients <==

    OpenMP threads:              4
    Integrals threads:           4
    Memory [GiB]:           10.477
    Schwarz Cutoff:          0E+00
    Fitting Condition:       1E-10

   => Auxiliary Basis Set <=

  Basis Set: (6-31G* AUX)
    Blend: CC-PVDZ-JKFIT
    Number of shells: 168
    Number of basis function: 601
    Number of Cartesian functions: 601
    Spherical Harmonics?: false
    Max angular momentum: 3

	-----------------------------------------------------------
	 ==================> DF-MP2 Energies <==================== 
	-----------------------------------------------------------
	 Reference Energy          =   -1875.7442490107951016 [Eh]
	 Singles Energy            =      -0.0000000000000000 [Eh]
	 Same-Spin Energy          =      -0.1939280654480377 [Eh]
	 Opposite-Spin Energy      =      -0.5140684903899020 [Eh]
	 Correlation Energy        =      -0.7079965558379397 [Eh]
	 Total Energy              =   -1876.4522455666331098 [Eh]
	-----------------------------------------------------------
	 ================> DF-SCS-MP2 Energies <================== 
	-----------------------------------------------------------
	 SCS Same-Spin Scale       =       0.3333333333333333 [-]
	 SCS Opposite-Spin Scale   =       1.2000000000000000 [-]
	 SCS Same-Spin Energy      =      -0.0646426884826792 [Eh]
	 SCS Opposite-Spin Energy  =      -0.6168821884678823 [Eh]
	 SCS Correlation Energy    =      -0.6815248769505615 [Eh]
	 SCS Total Energy          =   -1876.4257738877456632 [Eh]
	-----------------------------------------------------------


  -Total Gradient:
     Atom            X                  Y                   Z
    ------   -----------------  -----------------  -----------------
       1        0.000031363597     0.000023538678    -0.000088925445
       2        0.000020169280    -0.000048222319     0.000006930846
       3       -0.000017345711    -0.000062200749    -0.000074860280
       4        0.000053145602     0.000020294942    -0.000002519580
       5       -0.000087332871     0.000066589459     0.000159374396


*** tstop() called on node37.bme.utexas.edu at Wed Jul 28 13:47:02 2021
Module time:
	user time   =      14.69 seconds =       0.24 minutes
	system time =       0.65 seconds =       0.01 minutes
	total time  =          4 seconds =       0.07 minutes
Total time:
	user time   =      76.46 seconds =       1.27 minutes
	system time =       3.94 seconds =       0.07 minutes
	total time  =         21 seconds =       0.35 minutes

			-----------------------------------------
			 OPTKING 2.0: for geometry optimizations 
			  - R.A. King,  Bethel University        
			-----------------------------------------
	At level 1: Red. Int., RFO, no backsteps, dynamic trust

	Previous internal coordinate definitions found.
	---Fragment 1 Geometry and Gradient---
	 CL         -1.7010952266       -0.9589592127        2.7136216020
	 CL         -1.3484684773        2.8018465041       -1.2279683740
	 CL         -0.1400203175       -2.4107072078       -2.3126127884
	 CL          3.1896404620        0.5677682362        0.8267828509
	 C          -0.0001644720        0.0001505999        0.0005149439
	             0.0000313636        0.0000235387       -0.0000889254
	             0.0000201693       -0.0000482223        0.0000069308
	            -0.0000173457       -0.0000622007       -0.0000748603
	             0.0000531456        0.0000202949       -0.0000025196
	            -0.0000873329        0.0000665895        0.0001593744

	---Fragment 1 Intrafragment Coordinates---
	 - Coordinate -           - BOHR/RAD -       - ANG/DEG -
	 R(1,5)           =         3.342754	       1.768909
	 R(2,5)           =         3.343141	       1.769114
	 R(3,5)           =         3.344003	       1.769570
	 R(4,5)           =         3.343615	       1.769365
	 B(1,5,2)         =         1.910792	     109.480295
	 B(1,5,3)         =         1.910590	     109.468720
	 B(1,5,4)         =         1.910886	     109.485706
	 B(2,5,3)         =         1.910424	     109.459218
	 B(2,5,4)         =         1.910589	     109.468673
	 B(3,5,4)         =         1.910520	     109.464708

	Current energy   :     -1876.4522455666

	Energy change for the previous step:
		Projected    :        -0.0000044007
		Actual       :        -0.0000018481

	Performing BFGS update.
	Previous computed or guess Hessian on step 1.
	Steps to be used in Hessian update: 3 2
	Taking RFO optimization step.
	Going to follow RFO solution 1.
	Using RFO vector 1.
	Norm of target step-size    0.00066
	Projected energy change by RFO approximation:        -0.0000001235

	Back-transformation to cartesian coordinates...
	Successfully converged to displaced geometry.

	--- Internal Coordinate Step in ANG or DEG, aJ/ANG or AJ/DEG ---
	 ---------------------------------------------------------------------------
	   Coordinate                Previous        Force       Change         New 
	   ----------                --------       ------       ------       ------
	    1 R(1,5)          =      1.768909     0.000782     0.000202     1.769112
	    2 R(2,5)          =      1.769114     0.000421     0.000088     1.769203
	    3 R(3,5)          =      1.769570    -0.000802    -0.000212     1.769358
	    4 R(4,5)          =      1.769365    -0.000441    -0.000095     1.769270
	    5 B(1,5,2)        =    109.480295     0.000000    -0.002501   109.477794
	    6 B(1,5,3)        =    109.468720     0.000001     0.001767   109.470487
	    7 B(1,5,4)        =    109.485706    -0.000005    -0.011299   109.474407
	    8 B(2,5,3)        =    109.459218     0.000004     0.009672   109.468890
	    9 B(2,5,4)        =    109.468673     0.000001     0.001481   109.470154
	   10 B(3,5,4)        =    109.464708    -0.000001     0.000883   109.465591
	 ---------------------------------------------------------------------------
	Successfully symmetrized geometry.

  ==> Convergence Check <==

  Measures of convergence in internal coordinates in au.
  Criteria marked as inactive (o), active & met (*), and active & unmet ( ).
  ---------------------------------------------------------------------------------------------
   Step     Total Energy     Delta E     MAX Force     RMS Force      MAX Disp      RMS Disp   
  ---------------------------------------------------------------------------------------------
    Convergence Criteria             o    4.50e-04 *    3.00e-04 *    1.80e-03 *    1.20e-03 *
  ---------------------------------------------------------------------------------------------
      4   -1876.45224557   -1.85e-06 o    9.74e-05 *    5.56e-05 *    4.01e-04 *    2.09e-04 *  ~
  ---------------------------------------------------------------------------------------------


  **** Optimization is complete! (in 4 steps) ****

  ==> Optimization Summary <==

  Measures of convergence in internal coordinates in au.
  --------------------------------------------------------------------------------------------------------------- ~
   Step         Total Energy             Delta E       MAX Force       RMS Force        MAX Disp        RMS Disp  ~
  --------------------------------------------------------------------------------------------------------------- ~
      1   -1876.451491130848  -1876.451491130848      0.01243579      0.00688303      0.04943112      0.02679275  ~
      2   -1876.452159840624     -0.000668709776      0.00424018      0.00261486      0.01145282      0.00720191  ~
      3   -1876.452243718496     -0.000083877871      0.00060047      0.00035072      0.00189571      0.00109824  ~
      4   -1876.452245566633     -0.000001848137      0.00009735      0.00005562      0.00040140      0.00020944  ~
  --------------------------------------------------------------------------------------------------------------- ~

	Writing optimization data to binary file.
	Final energy is  -1876.4522455666331
	Final (previous) structure:
	Cartesian Geometry (in Angstrom)
	   CL    -0.9001808236  -0.5074593593   1.4359867045
	   CL    -0.7135787847   1.4826733119  -0.6498128764
	   CL    -0.0740955607  -1.2756913109  -1.2237819799
	   CL     1.6878850361   0.3004500103   0.4375146412
	    C    -0.0000870348   0.0000796940   0.0002724966
	Saving final (previous) structure.
			--------------------------
			 OPTKING Finished Execution 
			--------------------------

    Final optimized geometry and variables:
    Molecular point group: c1
    Full point group: C1

    Geometry (in Angstrom), charge = 0, multiplicity = 1:

    CL          -0.900180827116    -0.507459361340     1.435986710165
    CL          -0.713578787470     1.482673317759    -0.649812878936
    CL          -0.074095561035    -1.275691315945    -1.223781984740
    CL           1.687885042709     0.300450011522     0.437514642891
    C           -0.000087034816     0.000079694023     0.000272496595

	Removing binary optimization data file.
	Cleaning optimization helper files.

    Psi4 stopped on: Wednesday, 28 July 2021 01:47PM
    Psi4 wall time for execution: 0:00:21.40

*** Psi4 exiting successfully. Buy a developer a beer!
