methylamine Gaussian OPT Calculation on node37.bme.utexas.edu           
FOpt      RwB97XD                                                     6-31G(d)            
Number of atoms                            I                7
Info1-9                                    I   N=           9
          18          18           0           0           0         110
           2          18        -802
Charge                                     I                0
Multiplicity                               I                1
Number of electrons                        I               18
Number of alpha electrons                  I                9
Number of beta electrons                   I                9
Number of basis functions                  I               40
Number of independent functions            I               40
Number of point charges in /Mol/           I                0
Number of translation vectors              I                0
Atomic numbers                             I   N=           7
           7           6           1           1           1           1
           1
Nuclear charges                            R   N=           7
  7.00000000E+00  6.00000000E+00  1.00000000E+00  1.00000000E+00  1.00000000E+00
  1.00000000E+00  1.00000000E+00
Current cartesian coordinates              R   N=          21
  1.41653571E+00  1.84934644E-06 -2.36149581E-01 -1.33006885E+00  6.62811349E-06
  3.30288333E-02 -2.03814211E+00 -2.94452641E-04  1.99300994E+00 -2.10323858E+00
 -1.66505554E+00 -9.19324729E-01 -2.10315837E+00  1.66534178E+00 -9.18875825E-01
  2.15460152E+00 -1.53460723E+00  6.49988980E-01  2.15460069E+00  1.53456273E+00
  6.50075701E-01
Force Field                                I                0
Int Atom Types                             I   N=           7
           0           0           0           0           0           0
           0
MM charges                                 R   N=           7
  0.00000000E+00  0.00000000E+00  0.00000000E+00  0.00000000E+00  0.00000000E+00
  0.00000000E+00  0.00000000E+00
Integer atomic weights                     I   N=           7
          14          12           1           1           1           1
           1
Real atomic weights                        R   N=           7
  1.40030740E+01  1.20000000E+01  1.00782504E+00  1.00782504E+00  1.00782504E+00
  1.00782504E+00  1.00782504E+00
Atom fragment info                         I   N=           7
           0           0           0           0           0           0
           0
Atom residue num                           I   N=           7
           0           0           0           0           0           0
           0
Nuclear spins                              I   N=           7
           2           0           1           1           1           1
           1
Nuclear ZEff                               R   N=           7
 -4.55000000E+00 -3.60000000E+00 -1.00000000E+00 -1.00000000E+00 -1.00000000E+00
 -1.00000000E+00 -1.00000000E+00
Nuclear QMom                               R   N=           7
  2.04400000E+00  0.00000000E+00  0.00000000E+00  0.00000000E+00  0.00000000E+00
  0.00000000E+00  0.00000000E+00
Nuclear GFac                               R   N=           7
  4.03761000E-01  0.00000000E+00  2.79284600E+00  2.79284600E+00  2.79284600E+00
  2.79284600E+00  2.79284600E+00
MicOpt                                     I   N=           7
          -1          -1          -1          -1          -1          -1
          -1
Number of contracted shells                I               18
Number of primitive shells                 I               42
Pure/Cartesian d shells                    I                1
Pure/Cartesian f shells                    I                0
Highest angular momentum                   I                2
Largest degree of contraction              I                6
Shell types                                I   N=          18
           0          -1          -1           2           0          -1
          -1           2           0           0           0           0
           0           0           0           0           0           0
Number of primitives per shell             I   N=          18
           6           3           1           1           6           3
           1           1           3           1           3           1
           3           1           3           1           3           1
Shell to atom map                          I   N=          18
           1           1           1           1           2           2
           2           2           3           3           4           4
           5           5           6           6           7           7
Primitive exponents                        R   N=          42
  4.17351146E+03  6.27457911E+02  1.42902093E+02  4.02343293E+01  1.28202129E+01
  4.39043701E+00  1.16263619E+01  2.71627981E+00  7.72218397E-01  2.12031498E-01
  8.00000000E-01  3.04752488E+03  4.57369518E+02  1.03948685E+02  2.92101553E+01
  9.28666296E+00  3.16392696E+00  7.86827235E+00  1.88128854E+00  5.44249258E-01
  1.68714478E-01  8.00000000E-01  1.87311370E+01  2.82539436E+00  6.40121692E-01
  1.61277759E-01  1.87311370E+01  2.82539436E+00  6.40121692E-01  1.61277759E-01
  1.87311370E+01  2.82539436E+00  6.40121692E-01  1.61277759E-01  1.87311370E+01
  2.82539436E+00  6.40121692E-01  1.61277759E-01  1.87311370E+01  2.82539436E+00
  6.40121692E-01  1.61277759E-01
Contraction coefficients                   R   N=          42
  1.83477216E-03  1.39946270E-02  6.85865518E-02  2.32240873E-01  4.69069948E-01
  3.60455199E-01 -1.14961182E-01 -1.69117479E-01  1.14585195E+00  1.00000000E+00
  1.00000000E+00  1.83473713E-03  1.40373228E-02  6.88426223E-02  2.32184443E-01
  4.67941348E-01  3.62311985E-01 -1.19332420E-01 -1.60854152E-01  1.14345644E+00
  1.00000000E+00  1.00000000E+00  3.34946043E-02  2.34726953E-01  8.13757326E-01
  1.00000000E+00  3.34946043E-02  2.34726953E-01  8.13757326E-01  1.00000000E+00
  3.34946043E-02  2.34726953E-01  8.13757326E-01  1.00000000E+00  3.34946043E-02
  2.34726953E-01  8.13757326E-01  1.00000000E+00  3.34946043E-02  2.34726953E-01
  8.13757326E-01  1.00000000E+00
P(S=P) Contraction coefficients            R   N=          42
  0.00000000E+00  0.00000000E+00  0.00000000E+00  0.00000000E+00  0.00000000E+00
  0.00000000E+00  6.75797439E-02  3.23907296E-01  7.40895140E-01  1.00000000E+00
  0.00000000E+00  0.00000000E+00  0.00000000E+00  0.00000000E+00  0.00000000E+00
  0.00000000E+00  0.00000000E+00  6.89990666E-02  3.16423961E-01  7.44308291E-01
  1.00000000E+00  0.00000000E+00  0.00000000E+00  0.00000000E+00  0.00000000E+00
  0.00000000E+00  0.00000000E+00  0.00000000E+00  0.00000000E+00  0.00000000E+00
  0.00000000E+00  0.00000000E+00  0.00000000E+00  0.00000000E+00  0.00000000E+00
  0.00000000E+00  0.00000000E+00  0.00000000E+00  0.00000000E+00  0.00000000E+00
  0.00000000E+00  0.00000000E+00
Coordinates of each shell                  R   N=          54
  1.41653571E+00  1.84934644E-06 -2.36149581E-01  1.41653571E+00  1.84934644E-06
 -2.36149581E-01  1.41653571E+00  1.84934644E-06 -2.36149581E-01  1.41653571E+00
  1.84934644E-06 -2.36149581E-01 -1.33006885E+00  6.62811349E-06  3.30288333E-02
 -1.33006885E+00  6.62811349E-06  3.30288333E-02 -1.33006885E+00  6.62811349E-06
  3.30288333E-02 -1.33006885E+00  6.62811349E-06  3.30288333E-02 -2.03814211E+00
 -2.94452641E-04  1.99300994E+00 -2.03814211E+00 -2.94452641E-04  1.99300994E+00
 -2.10323858E+00 -1.66505554E+00 -9.19324729E-01 -2.10323858E+00 -1.66505554E+00
 -9.19324729E-01 -2.10315837E+00  1.66534178E+00 -9.18875825E-01 -2.10315837E+00
  1.66534178E+00 -9.18875825E-01  2.15460152E+00 -1.53460723E+00  6.49988980E-01
  2.15460152E+00 -1.53460723E+00  6.49988980E-01  2.15460069E+00  1.53456273E+00
  6.50075701E-01  2.15460069E+00  1.53456273E+00  6.50075701E-01
Constraint Structure                       R   N=          21
 -1.40222471E+00  1.74799132E-04 -2.50880103E-01  1.32730420E+00 -1.76403686E-04
  2.94156193E-02  1.85283298E+00 -1.36501433E-04  2.02840431E+00  2.13688318E+00
  1.67570379E+00 -8.67130088E-01  2.13670187E+00 -1.67505133E+00 -8.67537176E-01
 -2.13726377E+00  1.53936443E+00  6.43269196E-01 -2.13740650E+00 -1.54004557E+00
  6.42660759E-01
Num ILSW                                   I              100
ILSW                                       I   N=         100
           0           1           0           0           2           0
           0           0           0           0        4639  2684354560
           0           0           0           0           0           0
           0           0           0           0           1           0
           1           0           0           0           0           0
           0           0      100000           0          -1           0
           0           0           0           0           0           0
           0           0           0           1           0           0
           0           0           1           0           0           0
           0           0           2          40           0           0
           0           0          58           0           0           0
           0           0           0           0           0           0
           0           0           0           0           0           0
           0           0           0           0           0           0
           0           0           0           0           0           0
           0           0           0           0           0           0
           0           0           0           0
Num RLSW                                   I               40
RLSW                                       R   N=          40
  1.00000000E+00  1.00000000E+00  1.00000000E+00  1.00000000E+00  1.00000000E+00
  0.00000000E+00  2.00000000E-01  2.22036000E-01  0.00000000E+00  7.77964000E-01
  0.00000000E+00  2.00000000E-01  0.00000000E+00  0.00000000E+00  1.00000000E+00
  0.00000000E+00  0.00000000E+00  1.00000000E+00  0.00000000E+00  0.00000000E+00
  0.00000000E+00  0.00000000E+00  1.00000000E+00  0.00000000E+00  0.00000000E+00
  0.00000000E+00  0.00000000E+00  1.00000000E+00  0.00000000E+00  0.00000000E+00
  0.00000000E+00  0.00000000E+00  0.00000000E+00  0.00000000E+00  0.00000000E+00
  0.00000000E+00  0.00000000E+00  0.00000000E+00  1.00000000E+00  1.00000000E+00
MxBond                                     I                4
NBond                                      I   N=           7
           3           4           1           1           1           1
           1
IBond                                      I   N=          28
           2           6           7           0           1           3
           4           5           2           0           0           0
           2           0           0           0           2           0
           0           0           1           0           0           0
           1           0           0           0
RBond                                      R   N=          28
  1.00000000E+00  1.00000000E+00  1.00000000E+00  0.00000000E+00  1.00000000E+00
  1.00000000E+00  1.00000000E+00  1.00000000E+00  1.00000000E+00  0.00000000E+00
  0.00000000E+00  0.00000000E+00  1.00000000E+00  0.00000000E+00  0.00000000E+00
  0.00000000E+00  1.00000000E+00  0.00000000E+00  0.00000000E+00  0.00000000E+00
  1.00000000E+00  0.00000000E+00  0.00000000E+00  0.00000000E+00  1.00000000E+00
  0.00000000E+00  0.00000000E+00  0.00000000E+00
Virial Ratio                               R      2.009593819163205E+00
SCF Energy                                 R     -9.582129431817486E+01
Total Energy                               R     -9.582129431817486E+01
RMS Force                                  R      2.339838992775178E-04
RMS Density                                R      7.595956253067959E-09
External E-field                           R   N=          35
  0.00000000E+00  0.00000000E+00  0.00000000E+00  0.00000000E+00  0.00000000E+00
  0.00000000E+00  0.00000000E+00  0.00000000E+00  0.00000000E+00  0.00000000E+00
  0.00000000E+00  0.00000000E+00  0.00000000E+00  0.00000000E+00  0.00000000E+00
  0.00000000E+00  0.00000000E+00  0.00000000E+00  0.00000000E+00  0.00000000E+00
  0.00000000E+00  0.00000000E+00  0.00000000E+00  0.00000000E+00  0.00000000E+00
  0.00000000E+00  0.00000000E+00  0.00000000E+00  0.00000000E+00  0.00000000E+00
  0.00000000E+00  0.00000000E+00  0.00000000E+00  0.00000000E+00  0.00000000E+00
IOpCl                                      I                0
IROHF                                      I                0
Alpha Orbital Energies                     R   N=          40
 -1.44238603E+01 -1.03069252E+01 -9.68736536E-01 -7.49567318E-01 -5.71547797E-01
 -5.19683444E-01 -4.80019411E-01 -4.45122177E-01 -3.10589880E-01  1.73156918E-01
  2.28700412E-01  2.41851725E-01  2.61797524E-01  2.72103947E-01  3.24011049E-01
  6.38888802E-01  6.54191244E-01  6.78767605E-01  8.29901460E-01  8.36168893E-01
  8.90517317E-01  9.58084120E-01  1.01655000E+00  1.02251168E+00  1.02361478E+00
  1.06901154E+00  1.14836364E+00  1.47308642E+00  1.60755885E+00  1.63562376E+00
  1.97635792E+00  2.12684805E+00  2.15372583E+00  2.26678898E+00  2.40855151E+00
  2.45491135E+00  2.54455577E+00  2.75032659E+00  3.86288896E+00  4.34548319E+00
Alpha MO coefficients                      R   N=        1600
  9.92969266E-01  3.37642935E-02 -3.05590602E-04 -4.04979141E-08  1.30329863E-03
  2.58082720E-03  2.27670342E-04  2.38616955E-08 -6.01615984E-04 -7.66136364E-03
 -7.57512180E-03 -7.60616789E-03 -1.78550965E-09  4.80246211E-05  9.39718340E-10
 -1.14212035E-05  1.32904522E-04  2.73631093E-04  5.30192879E-10 -5.05898217E-05
  2.69278029E-04 -3.36550311E-05 -1.43582222E-08  2.56511837E-04  2.86040915E-05
 -5.57071060E-05 -2.19560164E-05 -3.38719778E-10 -7.82552021E-06 -7.87530986E-09
 -7.95867160E-05 -1.60426368E-04 -1.66350465E-05 -5.81633361E-05 -1.66425891E-05
 -5.81696067E-05  2.58575189E-04 -1.65450100E-04  2.58575056E-04 -1.65457784E-04
 -1.44312725E-04 -1.76424476E-04  2.40909327E-04  4.92958933E-09  4.14626630E-06
  3.08135302E-03 -1.31467121E-03 -4.19631607E-08  1.49781150E-05 -6.53374163E-04
 -1.15651454E-04 -1.18892423E-04  4.39991831E-09  6.06728694E-05 -4.58294783E-09
  9.93294623E-01  4.67408607E-02  2.01139201E-04  2.19237842E-09 -3.91067894E-05
 -1.60810110E-02 -1.56852078E-04  3.13522376E-08  2.67134892E-04 -7.96866144E-03
 -8.00080905E-03 -7.99996651E-03 -1.27259571E-09 -2.41692721E-06 -1.54839851E-08
 -1.03227050E-04  2.80240300E-03 -7.19651159E-05  2.98335885E-03 -7.19947152E-05
  2.98335402E-03 -8.71169842E-05  2.97079094E-04 -8.70979029E-05  2.97100606E-04
 -1.83011684E-01  3.78152313E-01 -4.23725993E-02 -2.05405488E-06  8.78783908E-02
  3.82854301E-01 -1.50938567E-02 -6.59684524E-07  4.57138566E-02  3.87839706E-03
  8.05775057E-03 -5.45248007E-03 -2.53966330E-07  4.66477958E-03  4.96371803E-07
 -9.83171533E-02  1.82593473E-01  9.63376641E-02  5.20937030E-07 -4.15182965E-03
  1.16876909E-01  5.46185365E-03 -8.10911741E-07  3.17445838E-03  1.66170850E-02
 -3.20834322E-03 -4.48857327E-03  3.69961263E-08 -8.56739896E-04 -2.29973755E-07
  4.10536493E-02  3.10830128E-03  4.19789374E-02  6.89834130E-03  4.19807403E-02
  6.89970661E-03  1.19472686E-01  6.17900796E-03  1.19472728E-01  6.17881849E-03
  7.70002373E-02 -1.63680462E-01 -1.62867162E-01  3.66177183E-06 -7.20325217E-02
 -2.10625697E-01 -6.93839842E-02  2.42731836E-06 -3.93755142E-02  1.43356212E-02
 -9.42350806E-03 -2.68028188E-03  2.37641182E-07 -1.19450395E-02 -8.17963008E-08
 -1.69096977E-01  3.27834923E-01 -9.15954750E-02  2.44030401E-06 -1.09627127E-02
  3.33526806E-01 -3.73476009E-02 -9.56603853E-07  8.91901245E-03 -1.03255213E-02
  7.30750453E-03  6.25589968E-03  4.56428426E-07 -6.24682628E-04 -5.59013486E-07
  1.26903193E-01  3.51797859E-02  1.35832313E-01  4.41319749E-02  1.35834217E-01
  4.41329052E-02 -1.02572091E-01 -2.71621419E-02 -1.02570830E-01 -2.71621217E-02
 -4.49396898E-07  1.06807316E-06 -4.84682234E-06  4.15101245E-01  7.04686010E-06
  7.59118391E-07 -2.55914744E-06  2.08658844E-01  2.61677613E-06  2.19877378E-07
 -1.28191322E-06  9.46000203E-07  2.37163615E-03  8.33868027E-08  2.98800302E-02
  9.98436777E-07 -1.50805959E-06  8.00570244E-06  2.33868164E-01 -5.42019146E-06
 -4.36050187E-06  3.74169885E-06  1.17600462E-01  1.08354906E-06  1.67909619E-07
  3.57386224E-06 -3.84190484E-06  5.96543844E-03  1.59062977E-07 -9.06505556E-03
 -2.24606066E-05 -1.58114413E-05 -1.00567922E-01 -5.46128685E-02  1.00584756E-01
  5.46255288E-02 -1.99108408E-01 -1.15473225E-01  1.99104885E-01  1.15471956E-01
  2.94935277E-02 -7.15307075E-02  2.93733189E-01  1.51877342E-05  1.89317249E-01
 -8.66305313E-02  1.43118648E-01  7.58358633E-06  1.15186457E-01 -1.21668060E-02
  3.24925950E-03  1.52771647E-02  3.33580378E-07  7.15575578E-03  9.74696069E-07
 -6.36207865E-03  4.95600778E-03 -2.61470653E-01 -1.11367471E-05  2.96590411E-01
  2.63543231E-02 -1.02559763E-01 -2.03207854E-06  1.22869942E-01 -1.56193099E-02
 -4.32983260E-04  1.93000246E-02  9.97649269E-07  2.26644538E-04 -4.51208007E-06
  2.20793491E-01  1.75210314E-01 -1.45586756E-02 -1.30158642E-02 -1.45363904E-02
 -1.30009458E-02  9.49079820E-02  6.61096973E-02  9.49288856E-02  6.61234513E-02
 -6.10577556E-03  1.01766750E-02  3.12368144E-01 -1.33606139E-05 -6.94091256E-02
  2.25328512E-02  1.79024809E-01 -7.45420071E-06 -4.56740264E-02 -4.58038094E-03
  1.01629262E-02 -3.34157703E-03 -1.43250778E-06  2.39032067E-02 -5.12439610E-07
  7.26620059E-03 -1.87841248E-02 -2.88800671E-01  2.60451689E-05 -3.07500006E-01
 -2.29494072E-03 -1.27561970E-01  1.08959798E-05 -1.60152621E-01 -1.31754327E-02
  2.20391875E-02 -3.57953633E-03 -8.51557179E-07  1.18332033E-02  4.87924783E-06
 -1.31437764E-01 -1.08005395E-01  1.53111852E-01  1.21066797E-01  1.53092197E-01
  1.21052604E-01  6.98773209E-02  5.60126829E-02  6.98608636E-02  5.60020572E-02
  2.48216670E-06 -5.72696699E-06 -4.42652713E-06 -2.48767716E-01  6.76499861E-06
 -9.27478547E-06 -4.30064710E-06 -1.47711875E-01  4.90615694E-06 -2.26667901E-07
  9.53255215E-07 -4.36298188E-07 -1.76560380E-02 -1.49358915E-06 -2.01377159E-02
 -7.86177958E-07  1.97053639E-06  7.87011015E-06  3.91896930E-01  3.24173850E-05
 -6.89135603E-07  4.16351084E-06  1.99081483E-01  1.80073196E-05 -8.63323214E-07
  6.03509284E-06 -5.58828204E-06 -2.41611964E-02 -1.25628127E-06 -1.85039860E-02
 -1.80924874E-05 -1.51349121E-05 -2.18837837E-01 -1.90676743E-01  2.18854699E-01
  1.90690654E-01  1.44693381E-01  1.16287818E-01 -1.44692316E-01 -1.16286267E-01
  6.27735449E-02 -1.40115769E-01 -1.22665393E-01 -1.43670146E-05  5.20405358E-01
 -2.68281589E-01 -1.24876079E-01 -1.32603783E-05  4.48976195E-01 -5.42206761E-03
 -8.37823178E-03  3.02527840E-02  4.19568294E-07 -5.34808790E-03 -8.38545554E-07
 -1.20657564E-02  3.01030314E-02  6.56467972E-02 -1.33680885E-06 -1.47556195E-01
  1.17487264E-03  1.18260774E-02 -2.09978677E-06 -4.99236946E-02  2.04922693E-03
  8.34617210E-03 -1.36225856E-02 -4.38181577E-07  2.90780443E-02  4.42180125E-06
 -1.53056776E-01 -2.03154100E-01  6.65744525E-02  7.56903271E-02  6.65412809E-02
  7.56459552E-02  6.59789038E-02  6.04384554E-02  6.59808932E-02  6.04427223E-02
 -1.07827893E-01  1.51193146E-01  7.68793150E-02 -3.72714416E-06  1.57359259E-01
  1.54337371E+00  1.66134421E-01 -1.45824760E-05  4.15088325E-01 -2.06797973E-02
 -2.53704176E-02 -2.21531856E-02 -7.39996388E-07  4.04466322E-03  1.52494083E-07
 -5.15679306E-02  6.83079888E-02 -1.62630306E-01  1.12513100E-05  3.78331434E-02
  8.37666741E-01 -5.97406409E-01  4.38272568E-05 -4.99627771E-03  1.16283716E-02
 -1.31082926E-02 -9.61799266E-03 -1.43536807E-07  2.82245028E-03  4.26070880E-07
 -1.01183280E-02 -5.61219761E-01 -1.07548495E-02 -4.96806670E-01 -1.07632674E-02
 -4.96896783E-01 -5.93946834E-02 -9.42126697E-01 -5.93966267E-02 -9.42133572E-01
  7.68844703E-02 -8.42790795E-02  3.98128395E-02 -2.24965370E-05 -1.09132429E-01
 -1.20578206E+00  2.59328762E-01 -4.59034775E-05 -2.63728065E-01  3.00485722E-02
  1.68293602E-02  1.41973227E-02  2.89782143E-06  8.95702322E-04 -6.18369058E-07
 -1.50761137E-01  1.82450167E-01 -6.21375271E-02 -3.95325123E-05  1.14714304E-02
  2.48726071E+00 -4.46976729E-02 -1.13037766E-04  9.38592310E-03 -1.36545681E-02
 -4.50910805E-04 -4.78011011E-03 -1.69247550E-06 -2.38145237E-03 -4.84476756E-07
 -2.42403613E-02 -1.05102882E+00 -2.50481354E-02 -1.02234952E+00 -2.50284781E-02
 -1.02210605E+00  3.98663208E-02  5.20875867E-01  3.98866024E-02  5.21072737E-01
  1.14022493E-05 -1.49749014E-05 -1.16140011E-05  2.93118196E-01  1.43798461E-06
 -1.78171585E-04  1.92892548E-05  6.56325456E-01  3.53822955E-05  3.70301943E-06
 -1.63110484E-06  5.98484564E-06 -2.28587214E-02  2.64449540E-06  1.12209651E-02
 -1.59318913E-05  2.13118167E-05 -8.03310411E-06  2.86090069E-01 -6.86416742E-05
  2.80403489E-04 -1.12448088E-05  7.57008381E-01 -2.51535841E-04  2.14297535E-07
 -6.05719249E-06  4.95909284E-06  1.94701709E-02  6.83102946E-08  3.96409238E-03
  2.25695767E-05  3.40030198E-04  7.07767825E-02  9.62482466E-01 -7.08077492E-02
 -9.63181372E-01  9.04888345E-02  1.06232379E+00 -9.04745704E-02 -1.06213804E+00
 -2.52185179E-03 -1.11441054E-03 -9.16946753E-02  7.08226221E-05  4.95110760E-02
  7.55550741E-02 -1.48742532E-01  2.68863436E-04  2.62552168E-01  4.39969405E-04
 -8.30371955E-03  8.10419353E-03  9.01399328E-06  1.68678158E-02 -4.02229440E-06
  4.76803140E-03  3.22599067E-03 -6.63901520E-02 -1.73017476E-04 -4.20602771E-01
 -4.16443602E-02 -3.02647485E-01 -6.57913526E-04 -1.34522976E+00  8.26852515E-03
 -1.75710133E-02  1.16422917E-02 -3.04043877E-06 -5.99032975E-03 -1.86366259E-05
  9.05470081E-02  1.66245845E+00 -5.22617431E-02 -9.53408101E-01 -5.21347499E-02
 -9.51589795E-01  2.14372136E-02  7.87804609E-02  2.14329734E-02  7.83578718E-02
  1.82403917E-06 -4.84052627E-06 -5.70017792E-05 -2.83765339E-01  3.24298056E-06
 -2.01192785E-05 -9.23526893E-05 -8.73484876E-01  7.95741460E-05  8.94517385E-07
 -5.73334946E-06  6.40127727E-06 -9.40949238E-03  8.15148449E-06 -3.12204770E-03
  1.31263693E-06  1.51043552E-06 -3.30563738E-05  2.77247754E-01 -1.97464354E-04
  1.56428086E-05 -1.46074821E-04  1.21679441E+00 -6.03179094E-04  4.58706907E-06
 -1.38922212E-05  1.02498489E-05 -3.58322140E-03 -3.37079362E-06  2.28686971E-02
  4.34635393E-05  9.46479722E-04  7.84613063E-02  1.21036285E+00 -7.85196342E-02
 -1.21148182E+00 -3.93713496E-02 -9.34244623E-01  3.93926885E-02  9.34426963E-01
  4.46991420E-02 -5.28928937E-02  4.08851335E-01 -1.60959872E-05  8.67117036E-02
 -7.97909774E-01  1.30567130E+00 -4.33321456E-05  2.03187696E-01  1.35196523E-02
 -6.00266790E-03  1.75664224E-02 -9.24427457E-08  1.59322474E-02 -1.83216350E-06
 -5.94181436E-02  6.58460520E-02  2.96729664E-01  1.30754831E-06 -7.86650321E-02
  9.73814956E-01  1.62959988E+00  3.10468292E-05 -4.61308622E-01 -3.61014632E-02
  1.65553310E-02  2.30004296E-02 -7.17516268E-07  1.22691013E-02 -1.74399598E-06
  5.82613988E-02  6.25528279E-01  6.02992642E-02  2.96785529E-02  6.03059387E-02
  2.96999334E-02 -4.33657218E-02 -6.25548099E-01 -4.33620524E-02 -6.25456699E-01
 -2.40427207E-02  1.43163661E-01 -4.53599248E-02 -7.66240813E-06  7.64407018E-02
 -6.81697673E-01 -8.99171554E-02  1.28161157E-05 -1.13539343E-01 -1.45278656E-01
  7.77179808E-02  5.90451337E-02  3.82491031E-06  1.09023218E-02  2.82175042E-06
  2.24277579E-02 -3.22443775E-01 -9.66102444E-01  8.00929475E-05  3.56528902E-02
  2.61767484E-01  1.42200452E+00 -1.39777172E-04 -4.58397658E-02 -1.92662981E-02
 -1.19900010E-02 -1.82068587E-03 -4.43652653E-06 -8.05176264E-03 -1.05507004E-05
  1.42697325E-01  7.76121356E-02  9.39056200E-02  1.04206940E-01  9.39860859E-02
  1.04217955E-01  1.15065163E-01 -1.46494543E-01  1.15106856E-01 -1.46495452E-01
 -2.71049916E-06  1.64010741E-05 -2.92515196E-07  2.88280131E-02 -7.23166552E-06
 -8.44285480E-05  6.81719327E-06 -5.93686575E-02 -2.06279810E-05 -1.48204224E-05
  5.49434921E-06  8.90943495E-06 -4.89076188E-02 -4.77113257E-07 -2.62500327E-02
  9.62683931E-07 -4.26112134E-05 -1.06951832E-04 -7.04444314E-01 -7.33790968E-05
  6.39210686E-05  1.85712417E-04  1.44228809E+00  1.37220235E-04 -1.21003477E-06
 -2.87600382E-05  2.49433180E-05  6.74320282E-02  6.36302484E-06  9.09214721E-02
  2.16296853E-05  3.66103758E-05  4.24044697E-01  1.75643004E-01 -4.24047791E-01
 -1.75642035E-01  2.39314266E-01  1.50924021E-03 -2.39305337E-01 -1.54923243E-03
 -1.92282025E-02  1.05587413E-01  1.27301498E-01  3.73970787E-05 -2.46419232E-01
  9.29562318E-02 -1.99862614E-01 -2.28097101E-05 -9.41997402E-02  2.40108066E-02
  2.34106056E-02  9.38562893E-03  7.31231547E-06 -2.06585511E-02  8.55254274E-06
 -3.66594512E-04 -2.74821540E-02 -9.09909223E-02  6.33574544E-05 -7.08122109E-01
 -8.74744805E-02  9.41946135E-03 -1.69654361E-04  1.62581243E+00 -1.78145157E-02
  8.79100339E-02 -9.21238430E-02 -5.74969398E-06  3.93959894E-02  3.40254953E-05
 -4.86996794E-01 -3.68910893E-01  2.28788575E-01  1.81528719E-01  2.28768274E-01
  1.81530446E-01 -8.56452436E-02 -4.82332056E-03 -8.55828478E-02 -4.86568773E-03
 -9.75263884E-03  7.22369944E-02 -5.75261951E-01  9.46414612E-05  6.82433200E-01
 -4.26388258E-01  1.21164076E+00 -3.56222546E-04 -6.83275140E-01 -1.93345593E-02
 -6.46676559E-02  2.47167667E-02  3.47812311E-05 -5.29607335E-02  3.65597870E-05
  2.56874877E-02 -1.16073006E-01 -1.35882933E-01 -1.59350978E-04 -1.30404022E-01
  7.87338459E-01  5.99277025E-01  4.16729014E-04  3.86937005E-01  1.44672125E-01
 -1.41356630E-02 -6.57006679E-02 -3.39048605E-05  2.81573935E-02  2.05122766E-05
 -1.03476107E-01 -4.72943092E-02  6.47216742E-02  5.00614538E-02  6.48155932E-02
  4.95769599E-02 -3.13506339E-01  3.51091727E-02 -3.13168148E-01  3.50100161E-02
  5.05715725E-06 -5.51434729E-05  1.89312072E-04  3.51342291E-01 -1.62151311E-04
  1.54538376E-04 -3.89978254E-04 -1.22249614E+00  1.36336991E-04 -2.24469696E-06
  5.14980328E-06 -2.95167472E-06  1.06709438E-01  2.67873211E-05  1.28235561E-01
 -1.18857441E-05  1.50098190E-05  3.55379881E-05 -5.75548001E-01  2.22178221E-06
 -1.81742574E-04 -1.70942136E-04  1.53977845E+00 -8.10489978E-05 -5.14289643E-05
 -8.99389979E-06  3.20754074E-05 -1.06156854E-01 -1.87812320E-05  3.06990513E-02
  4.08139133E-05  9.37708706E-05 -1.85305116E-01  8.56077976E-01  1.85200604E-01
 -8.56195637E-01 -5.53825184E-01  1.65643023E-01  5.54052252E-01 -1.65675722E-01
  2.74432380E-02 -2.87089112E-01  4.33524082E-01 -2.58347113E-06  6.05286328E-01
  4.80575716E-01 -1.09833928E+00  6.34265270E-05 -1.11542766E+00 -4.92008480E-02
  2.82001604E-02 -1.01520255E-01 -1.28857025E-05  2.37605441E-02 -5.22961136E-07
 -3.73563824E-02  5.74253881E-02  1.46309716E-01  7.88152295E-05 -4.95288294E-01
 -3.49989699E-01 -6.99151666E-01 -1.65369710E-04  1.29434405E+00 -9.73588570E-02
  1.28540378E-02  1.73406619E-02  1.37735387E-05 -5.15808279E-02  3.65303407E-07
  1.29453904E-01 -9.90217712E-01 -2.42417549E-01  3.34810022E-01 -2.42435962E-01
  3.34823999E-01  3.10927398E-01  1.96515541E-01  3.10850119E-01  1.96570473E-01
 -2.09288335E-02 -1.58036039E-01  4.37763769E-01 -4.46383352E-05  2.24167449E-01
  4.51643898E-01 -7.78654637E-01  4.06641100E-05 -1.39505495E-01 -6.77022534E-02
 -6.86581084E-02  1.85314377E-02  1.28107119E-05 -9.64091782E-02 -1.96582571E-07
 -5.36030868E-02  8.28975364E-02 -1.29745947E-01 -2.02348709E-05  6.22320828E-01
 -3.50663887E-01 -4.29751590E-01  4.48592944E-05 -9.75116540E-01 -2.23257931E-02
  6.83779928E-02 -1.02462289E-01 -1.00667656E-05  1.29920511E-01  4.36561657E-05
 -8.96478591E-01  1.31932925E+00 -6.68945183E-02 -5.23851978E-01 -6.70087049E-02
 -5.23620777E-01 -2.11379909E-01  3.04325591E-01 -2.11326228E-01  3.04250203E-01
 -1.22857914E-05  1.49061300E-04  1.19963819E-04  4.68807335E-01  1.10025059E-05
 -2.04804112E-04 -8.53300069E-05 -3.51106050E-01  1.01156771E-04  4.84447717E-05
 -2.70727819E-05  4.17446362E-05 -4.74737667E-02  4.02251846E-06 -1.45511324E-01
 -1.47935601E-05  2.55682146E-04 -1.63864285E-04 -4.90583080E-01 -1.39765007E-04
 -5.39210512E-04  1.37785798E-04  5.31992263E-01  9.99737728E-05  3.30104271E-05
  6.72794132E-06 -1.27058845E-05 -4.85552444E-02 -1.93675116E-05 -1.78260611E-01
 -5.04855903E-05  6.48585673E-05 -5.77991048E-01  9.06417117E-01  5.77523926E-01
 -9.05800004E-01  5.24451159E-01 -7.37005087E-01 -5.24893345E-01  7.37360263E-01
  2.42353117E-02 -3.94694053E-01 -2.48281909E-01  1.07787167E-03  2.89637995E-02
  6.34937255E-01  8.08958292E-02 -1.69281733E-03 -2.80665914E-01 -1.28558142E-01
  6.81960647E-02 -1.18534172E-01 -9.85427133E-05 -2.08935958E-02 -4.86204401E-05
  3.13522832E-02 -5.33813961E-01  3.38354997E-01  2.53163901E-04  3.33297276E-01
  1.05570177E+00 -3.69818104E-01 -2.88980453E-04 -2.38885617E-01 -7.98159040E-02
  1.30166443E-01 -1.11071806E-01  4.86765083E-05  4.04090470E-02  7.78144375E-05
 -1.28708072E-01  2.17242579E-01  6.08309143E-01 -8.50086761E-01  6.08045767E-01
 -8.49255264E-01  4.99229438E-01 -3.86304855E-01  4.98465572E-01 -3.83558768E-01
  2.34278045E-05 -4.03561719E-04 -2.36471757E-04 -8.92912414E-01  2.34119456E-05
  6.75222758E-04  2.94930005E-05  1.56819548E+00 -2.89942035E-04 -1.30221284E-04
  6.69160324E-05 -1.21787351E-04  8.47768612E-02 -1.93468914E-05 -5.30100202E-03
  3.12997991E-05 -5.12292956E-04  3.29435797E-04 -5.06559264E-01  2.50983153E-04
  9.82665809E-04 -3.88315838E-04  5.72109520E-01 -4.10158504E-05 -8.27622180E-05
  1.62867344E-04 -1.39839073E-04 -7.07653763E-02  3.31278064E-05 -1.10072061E-01
 -1.43865208E-04  1.56952190E-04 -3.50909444E-01  7.78693422E-01  3.52133015E-01
 -7.80319952E-01 -1.66423604E-01  1.07801754E+00  1.67418288E-01 -1.07875205E+00
 -2.22920843E-02  6.30863618E-01  4.25663534E-01  2.18917991E-06  2.41913467E-01
 -1.29475320E+00 -7.72356331E-01 -1.37172345E-05 -3.09534983E-01  9.44234710E-02
  3.08859591E-02  1.54225631E-01 -1.81647930E-07 -3.63016801E-02 -3.30736520E-06
  3.33378422E-02 -8.77963449E-01  3.16083234E-01 -2.06769903E-05  3.75881377E-02