Generated by Psi4
        SP                        DF-MP2                      6-311G**
Number of atoms                            I                7
Charge                                     I                0
Multiplicity                               I                1
Number of electrons                        I               18
Number of alpha electrons                  I                9
Number of beta electrons                   I                9
Number of basis functions                  I               66
Number of independent functions            I               66
Atomic numbers                             I   N=           7
           7           6           1           1           1           1
           1
Nuclear charges                            R   N=           7
  7.00000000e+00  6.00000000e+00  1.00000000e+00  1.00000000e+00  1.00000000e+00
  1.00000000e+00  1.00000000e+00
Current cartesian coordinates              R   N=          21
  1.35453765e+00  1.84057188e-06 -1.89631528e-01 -1.39206589e+00  1.84057188e-06
  7.95599584e-02 -2.10014627e+00 -3.00515608e-04  2.03952720e+00 -2.16524733e+00
 -1.66505475e+00 -8.72805317e-01 -2.16515285e+00  1.66534189e+00 -8.72351783e-01
  2.09260798e+00 -1.53460695e+00  6.96517744e-01  2.09260798e+00  1.53457284e+00
  6.96612230e-01
Integer atomic weights                     I   N=           7
          14          12           1           1           1           1
           1
Real atomic weights                        R   N=           7
  1.40030740e+01  1.20000000e+01  1.00782503e+00  1.00782503e+00  1.00782503e+00
  1.00782503e+00  1.00782503e+00
Number of primitive shells                 I               64
Number of contracted shells                I               36
Pure/Cartesian d shells                    I                0
Pure/Cartesian f shells                    I                0
Highest angular momentum                   I                2
Largest degree of contraction              I                6
Shell types                                I   N=          36
           0           0           1           0           1           0
           1          -2           0           0           1           0
           1           0           1          -2           0           0
           0           1           0           0           0           1
           0           0           0           1           0           0
           0           1           0           0           0           1
Number of primitives per shell             I   N=          36
           6           3           3           1           1           1
           1           1           6           3           3           1
           1           1           1           1           3           1
           1           1           3           1           1           1
           3           1           1           1           3           1
           1           1           3           1           1           1
Shell to atom map                          I   N=          36
           1           1           1           1           1           1
           1           1           2           2           2           2
           2           2           2           2           3           3
           3           3           4           4           4           4
           5           5           5           5           6           6
           6           6           7           7           7           7
Primitive exponents                        R   N=          64
  6.29348000e+03  9.49044000e+02  2.18776000e+02  6.36916000e+01  1.88282000e+01
  2.72023000e+00  3.06331000e+01  7.02614000e+00  2.11205000e+00  3.06331000e+01
  7.02614000e+00  2.11205000e+00  6.84009000e-01  6.84009000e-01  2.00878000e-01
  2.00878000e-01  9.13000000e-01  4.56324000e+03  6.82024000e+02  1.54973000e+02
  4.44553000e+01  1.30290000e+01  1.82773000e+00  2.09642000e+01  4.80331000e+00
  1.45933000e+00  2.09642000e+01  4.80331000e+00  1.45933000e+00  4.83456000e-01
  4.83456000e-01  1.45585000e-01  1.45585000e-01  6.26000000e-01  3.38650000e+01
  5.09479000e+00  1.15879000e+00  3.25840000e-01  1.02741000e-01  7.50000000e-01
  3.38650000e+01  5.09479000e+00  1.15879000e+00  3.25840000e-01  1.02741000e-01
  7.50000000e-01  3.38650000e+01  5.09479000e+00  1.15879000e+00  3.25840000e-01
  1.02741000e-01  7.50000000e-01  3.38650000e+01  5.09479000e+00  1.15879000e+00
  3.25840000e-01  1.02741000e-01  7.50000000e-01  3.38650000e+01  5.09479000e+00
  1.15879000e+00  3.25840000e-01  1.02741000e-01  7.50000000e-01
Contraction coefficients                   R   N=          64
  1.96978815e-03  1.49612859e-02  7.35005308e-02  2.48936766e-01  6.02459433e-01
  2.56201759e-01  1.11906080e-01  9.21666655e-01 -2.56919183e-03  3.83119186e-02
  2.37403116e-01  8.17592398e-01  1.00000000e+00  1.00000000e+00  1.00000000e+00
  1.00000000e+00  1.00000000e+00  1.96665025e-03  1.52306019e-02  7.61269097e-02
  2.60801033e-01  6.16462078e-01  2.21006028e-01  1.14660081e-01  9.19999648e-01
 -3.03068213e-03  4.02486927e-02  2.37593957e-01  8.15853851e-01  1.00000000e+00
  1.00000000e+00  1.00000000e+00  1.00000000e+00  1.00000000e+00  2.54938145e-02
  1.90373109e-01  8.52161486e-01  1.00000000e+00  1.00000000e+00  1.00000000e+00
  2.54938145e-02  1.90373109e-01  8.52161486e-01  1.00000000e+00  1.00000000e+00
  1.00000000e+00  2.54938145e-02  1.90373109e-01  8.52161486e-01  1.00000000e+00
  1.00000000e+00  1.00000000e+00  2.54938145e-02  1.90373109e-01  8.52161486e-01
  1.00000000e+00  1.00000000e+00  1.00000000e+00  2.54938145e-02  1.90373109e-01
  8.52161486e-01  1.00000000e+00  1.00000000e+00  1.00000000e+00
Coordinates of each shell                  R   N=         108
  1.35453765e+00  1.84057188e-06 -1.89631528e-01  1.35453765e+00  1.84057188e-06
 -1.89631528e-01  1.35453765e+00  1.84057188e-06 -1.89631528e-01  1.35453765e+00
  1.84057188e-06 -1.89631528e-01  1.35453765e+00  1.84057188e-06 -1.89631528e-01
  1.35453765e+00  1.84057188e-06 -1.89631528e-01  1.35453765e+00  1.84057188e-06
 -1.89631528e-01  1.35453765e+00  1.84057188e-06 -1.89631528e-01 -1.39206589e+00
  1.84057188e-06  7.95599584e-02 -1.39206589e+00  1.84057188e-06  7.95599584e-02
 -1.39206589e+00  1.84057188e-06  7.95599584e-02 -1.39206589e+00  1.84057188e-06
  7.95599584e-02 -1.39206589e+00  1.84057188e-06  7.95599584e-02 -1.39206589e+00
  1.84057188e-06  7.95599584e-02 -1.39206589e+00  1.84057188e-06  7.95599584e-02
 -1.39206589e+00  1.84057188e-06  7.95599584e-02 -2.10014627e+00 -3.00515608e-04
  2.03952720e+00 -2.10014627e+00 -3.00515608e-04  2.03952720e+00 -2.10014627e+00
 -3.00515608e-04  2.03952720e+00 -2.10014627e+00 -3.00515608e-04  2.03952720e+00
 -2.16524733e+00 -1.66505475e+00 -8.72805317e-01 -2.16524733e+00 -1.66505475e+00
 -8.72805317e-01 -2.16524733e+00 -1.66505475e+00 -8.72805317e-01 -2.16524733e+00
 -1.66505475e+00 -8.72805317e-01 -2.16515285e+00  1.66534189e+00 -8.72351783e-01
 -2.16515285e+00  1.66534189e+00 -8.72351783e-01 -2.16515285e+00  1.66534189e+00
 -8.72351783e-01 -2.16515285e+00  1.66534189e+00 -8.72351783e-01  2.09260798e+00
 -1.53460695e+00  6.96517744e-01  2.09260798e+00 -1.53460695e+00  6.96517744e-01
  2.09260798e+00 -1.53460695e+00  6.96517744e-01  2.09260798e+00 -1.53460695e+00
  6.96517744e-01  2.09260798e+00  1.53457284e+00  6.96612230e-01  2.09260798e+00
  1.53457284e+00  6.96612230e-01  2.09260798e+00  1.53457284e+00  6.96612230e-01
  2.09260798e+00  1.53457284e+00  6.96612230e-01
Total Energy                               R     -9.558737621616157e+01
Alpha Orbital Energies                     R   N=          66
 -1.55308143e+01 -1.12410522e+01 -1.16619217e+00 -8.91253976e-01 -6.57666289e-01
 -6.00126600e-01 -5.52022043e-01 -5.12848886e-01 -3.88418668e-01  1.56653615e-01
  1.92811891e-01  2.09583022e-01  2.31680941e-01  2.57674257e-01  3.76693676e-01
  4.63877344e-01  4.84465031e-01  5.47833254e-01  5.59820377e-01  7.04896833e-01
  7.57509694e-01  8.06174857e-01  8.07383904e-01  8.52631816e-01  9.33015416e-01
  9.53383833e-01  9.71662694e-01  1.26586843e+00  1.29431044e+00  1.29542820e+00
  1.58542491e+00  1.63934525e+00  1.72685339e+00  1.74515552e+00  1.76124031e+00
  1.82958112e+00  1.89294413e+00  1.92445366e+00  1.98518458e+00  2.03427771e+00
  2.14410257e+00  2.25932225e+00  2.32759426e+00  2.44325816e+00  2.47525484e+00
  2.63393847e+00  2.66078297e+00  2.71955765e+00  2.77710239e+00  2.79085109e+00
  2.86377752e+00  2.86815510e+00  2.94543715e+00  3.08764060e+00  3.09183872e+00
  3.19948924e+00  3.31990244e+00  3.50371746e+00  3.83094153e+00  4.14984623e+00
  4.20885112e+00  4.49584751e+00  5.21285193e+00  5.33123717e+00  2.50412181e+01
  3.70020639e+01
Alpha MO coefficients                      R   N=        4356
  5.57656767e-01  4.68258061e-01 -4.96340194e-04 -5.88695228e-08  1.84425106e-03
  4.99933052e-03  1.94193540e-04  1.85752220e-08 -7.38892412e-04 -1.23918049e-03
  2.64394490e-04 -4.01304470e-09  1.91554052e-05  1.57307874e-04 -4.07835450e-05
 -1.23073567e-08 -4.37001301e-05 -3.71407584e-09  8.17952447e-06 -3.41861515e-05
  4.05462297e-05  1.30789234e-09 -2.62446290e-05  1.35931182e-04  3.57976886e-04
 -1.00878205e-08  5.31534372e-05  6.83980720e-04  2.73529198e-04  1.26552881e-08
 -7.85588878e-05 -6.92600188e-05  3.35478380e-05 -3.77793091e-09  1.59402009e-04
 -3.12666137e-09  3.64608171e-06 -5.63644129e-05 -1.18662794e-05 -3.29237372e-05
  1.03137904e-09 -1.10963982e-05  1.96191031e-05 -6.24410534e-05 -1.73904480e-05
  9.27907908e-06  1.82751910e-05  1.83050347e-05  1.96218512e-05 -6.24420626e-05
 -1.74057995e-05  9.27526659e-06 -1.82827537e-05  1.82993345e-05  2.54361844e-04
  2.72944747e-04  5.45024249e-05 -8.83817933e-05  9.80475479e-05  1.03358380e-05
  2.54357828e-04  2.72952823e-04  5.44985964e-05 -8.83820299e-05 -9.80528364e-05
  1.03267217e-05 -8.79085089e-05 -1.40379948e-04 -9.63324577e-05  3.90023785e-10
  1.77885048e-05  2.80502119e-04 -4.99346778e-04 -1.59335802e-09  1.47672247e-05
  2.17451451e-04 -1.21928122e-04 -8.78702141e-09 -1.34873671e-05 -8.11863938e-05
 -6.94723167e-05 -1.86498309e-09  1.92091501e-04  4.82025657e-09  5.63427442e-01
  4.66560508e-01  5.21848455e-04 -8.12549923e-09  4.03732098e-06  4.13328524e-03
 -4.78187883e-04  2.37977959e-08 -1.93100399e-05 -1.22017779e-03  7.09261681e-05
  1.29831408e-09  4.10972441e-05  6.54773799e-05  3.97717529e-05 -1.07537241e-08
 -1.78739808e-04  1.22596336e-09  3.41523445e-04  1.26014446e-04  2.22108869e-04
  3.64438017e-05  6.38630775e-09 -5.76539053e-06  3.40633886e-04  1.02394082e-04
  2.54425164e-04  2.46141582e-05 -1.16632216e-05 -9.63141598e-06  3.40639941e-04
  1.02364839e-04  2.54436118e-04  2.46052257e-05  1.16734732e-05 -9.62701494e-06
  7.38453214e-07  6.60518665e-05 -1.38482868e-05 -2.49418575e-05  4.72627267e-05
 -2.16326922e-05  7.36549410e-07  6.60627399e-05 -1.38513435e-05 -2.49433219e-05
 -4.72615962e-05 -2.16367072e-05  9.89742685e-02  1.63727997e-01  1.61060590e-02
  1.15071667e-06 -2.72530377e-02 -4.35940086e-01  3.28174978e-02  1.73211579e-06
 -4.54899512e-02 -3.22103872e-01  2.44282094e-02  5.64493491e-07 -1.76584451e-02
  5.30976465e-03 -7.60494622e-04 -7.31124572e-08 -2.67871655e-03  1.49204901e-07
  5.08275637e-02  8.35444006e-02 -3.85311657e-02 -2.68009987e-07  2.19817353e-03
 -2.12591858e-01 -7.91439892e-02 -2.66081863e-07  3.12546640e-03 -5.72770091e-02
  4.25585431e-04  6.98774895e-08 -5.51988500e-03  1.13291150e-02  1.43041110e-03
  1.17326362e-07 -1.87165406e-02  2.15063868e-07 -2.55836601e-02 -3.86398146e-02
  2.66814950e-03 -4.36471695e-03 -1.32613988e-06  8.94029687e-03 -2.63392285e-02
 -4.23688757e-02  1.19190119e-03 -4.56415811e-03 -7.95354016e-03 -4.36774093e-03
 -2.63405207e-02 -4.23698271e-02  1.19210492e-03 -4.56370469e-03  7.95497986e-03
 -4.36564386e-03 -7.81587624e-02 -7.92374062e-02 -6.23120843e-04  9.32968383e-03
 -1.71486185e-02  7.81648142e-03 -7.81575185e-02 -7.92367556e-02 -6.23177042e-04
  9.32960805e-03  1.71481413e-02  7.81742886e-03  4.09660766e-02  6.81009931e-02
 -6.81598078e-02  1.99646655e-06 -2.31325419e-02 -1.83362624e-01 -1.12681936e-01
  3.03378953e-06 -3.74741489e-02 -1.61940236e-01 -5.02752536e-02  1.32127203e-06
 -1.44126476e-02 -3.81973123e-03 -8.24723041e-03  3.33058631e-08  1.30927106e-02
  3.29976151e-07 -8.85909867e-02 -1.46921826e-01 -3.99439998e-02  1.18305420e-06
 -3.23703117e-03  3.79259632e-01 -5.22582507e-02  1.44188416e-06 -5.30331083e-03
  2.52206324e-01 -2.45955782e-02 -5.22030763e-07  6.87790605e-03  3.38791467e-03
 -5.94240373e-04 -3.13587501e-07 -8.02300963e-03  4.51740955e-07  8.07243070e-02
  1.08711031e-01  5.55792659e-03  4.23817725e-03  2.70566484e-06 -1.70893435e-02
  8.43650392e-02  1.17566089e-01  9.34505859e-03  5.04045139e-03  1.56035128e-02
  8.64674387e-03  8.43660327e-02  1.17567396e-01  9.34535111e-03  5.03974027e-03
 -1.56061465e-02  8.64260820e-03 -6.26666732e-02 -7.86421252e-02 -1.18380525e-02
  1.73698842e-03 -1.21232356e-02  4.60795928e-03 -6.26645446e-02 -7.86397650e-02
 -1.18379016e-02  1.73675467e-03  1.21228935e-02  4.60846949e-03 -6.54894191e-07
 -1.10574526e-06 -3.97551542e-06  1.76430283e-01  1.27170027e-06  3.25914142e-06
 -6.13485433e-06  2.79034105e-01  2.14230790e-06  4.56362556e-06 -4.36307028e-06
  1.67899996e-01 -9.81833366e-08  8.53347298e-07  4.73260542e-08  2.54915064e-02
  1.20529936e-06  3.87660457e-03  6.63153622e-07  1.11654677e-06  4.94647740e-06
  9.77014103e-02 -3.40895358e-06 -2.56943801e-06  8.40308101e-06  1.61174990e-01
 -5.31499527e-06 -5.79710515e-06  3.91590221e-06  1.02963246e-01  1.88456620e-07
 -5.85926227e-06 -1.11567328e-08 -1.30936367e-02 -2.54350990e-06  6.24093628e-03
 -1.54094934e-05 -2.20684910e-05 -7.76008515e-06 -6.21120571e-07  4.09333328e-03
  2.20255384e-06 -6.26330584e-02 -8.38250241e-02 -2.22537409e-02 -2.52403241e-03
 -3.45877034e-03 -4.97633394e-03  6.26428245e-02  8.38408063e-02  2.22591443e-02
  2.52499969e-03 -3.46146731e-03  4.97453334e-03 -1.19461185e-01 -1.79880560e-01
 -4.91224156e-02  1.25237931e-02 -1.02568711e-02  1.13927835e-02  1.19457066e-01
  1.79876647e-01  4.91216517e-02 -1.25240567e-02 -1.02558679e-02 -1.13936770e-02
  1.61984008e-02  2.75239460e-02  1.07203592e-01  8.45466806e-06  9.85872685e-02
 -8.42240232e-02  1.73128026e-01  1.35097672e-05  1.55146212e-01 -9.42808686e-02
  1.09352878e-01  7.92700441e-06  1.26325387e-01  1.10207684e-02  2.32054407e-03
  1.45256993e-06 -1.39208863e-02  5.44618344e-07 -2.72730551e-03 -4.18337713e-03
 -9.18378889e-02 -4.22513262e-06  1.33116997e-01  3.94127161e-03 -1.58359685e-01
 -6.17434280e-06  2.14460322e-01  2.47180069e-02 -7.11556481e-02 -3.23470801e-07
  1.13892583e-01  2.63445110e-02  6.69188574e-04 -6.82882854e-06 -1.22452279e-02
  1.10122261e-06  1.34963575e-01  2.09059200e-01  8.51388065e-02  3.08723048e-03
  2.99111486e-06 -1.48475811e-02 -1.76804953e-02 -3.01507454e-02 -1.37283876e-02
 -5.29548466e-03 -3.92772252e-03  5.32345913e-03 -1.76642126e-02 -3.01278707e-02
 -1.37199112e-02 -5.29488144e-03  3.92578444e-03  5.32595388e-03  5.70715382e-02
  8.03520489e-02  3.01709203e-02  2.31204576e-03  1.06876254e-02  2.93100158e-03
  5.70873299e-02  8.03765225e-02  3.01799790e-02  2.31070974e-03 -1.06890303e-02
  2.92879465e-03  2.03695233e-03  3.42581030e-03 -1.49141690e-01  2.70594564e-06
  3.14381628e-02 -1.05030514e-02 -2.36605514e-01  4.11819166e-06  5.35896697e-02
  4.05190707e-03 -1.77814849e-01  2.55751391e-06  5.29947298e-02 -8.79021928e-04
 -2.05168780e-02  1.69928700e-07  1.44618715e-02  1.22056409e-06 -3.85132368e-03
 -6.84822707e-03  1.33084279e-01 -8.74036563e-06  1.12695171e-01  2.31478698e-02
  2.22661208e-01 -1.33708808e-05  1.79899412e-01 -2.60241542e-03  1.21183601e-01
 -7.81042833e-06  1.24932562e-01  4.52394975e-04 -1.27452008e-02 -6.23928893e-06
  3.41275648e-02  5.98436548e-08  6.05027997e-02  9.40215009e-02  4.51816858e-02
  8.74838824e-03  1.01256506e-06 -3.74392535e-03 -8.80026619e-02 -1.36105236e-01
 -5.44813782e-02  1.13018616e-03 -1.06656960e-02 -6.50275426e-04 -8.79891621e-02
 -1.36085940e-01 -5.44726236e-02  1.13117559e-03  1.06652466e-02 -6.46218257e-04
 -4.46996849e-02 -7.81607721e-02 -3.42830863e-02 -7.64098316e-03 -8.08429976e-03
  6.87867452e-03 -4.46939188e-02 -7.81529397e-02 -3.42800134e-02 -7.64089723e-03
  8.08362870e-03  6.87867386e-03 -1.61095943e-06 -2.74739447e-06  4.59452477e-07
  1.06535925e-01 -4.75234685e-06  8.08738504e-06  5.47132107e-07  1.63826776e-01
 -7.27359392e-06  1.20879679e-05  2.32175152e-06  1.21644808e-01 -7.19149422e-06
  5.44953652e-07  1.02407358e-06  1.64093957e-02  6.78735638e-07  1.68858010e-02
  4.30789845e-07  6.90817584e-07 -2.01678754e-06 -1.66098100e-01 -1.10448167e-05
 -1.74277087e-06 -3.39746264e-06 -2.62200896e-01 -1.82301385e-05  7.92830820e-07
 -2.12322441e-06 -1.80043294e-01 -1.38016500e-05  7.33684383e-06  1.19414762e-06
  2.41316833e-02  5.35866805e-06  2.76040210e-02  1.23251450e-05  2.04874546e-05
  8.83612777e-06  5.20214989e-07 -9.72045089e-03 -2.76496029e-06  1.27123801e-01
  2.08040735e-01  9.54178055e-02  7.41204029e-03  6.95870517e-03  1.05576136e-02
 -1.27136870e-01 -2.08063146e-01 -9.54270334e-02 -7.41244443e-03  6.96364306e-03
 -1.05554302e-02 -8.36303419e-02 -1.37934014e-01 -7.01373562e-02  6.90166010e-03
 -6.75530168e-03  7.31427426e-03  8.36279747e-02  1.37929273e-01  7.01367489e-02
 -6.90080653e-03 -6.75450302e-03 -7.31552234e-03  2.95398192e-02  5.03458071e-02
 -5.44206051e-02 -6.11054368e-06  2.29398113e-01 -1.52949818e-01 -7.88796864e-02
 -9.30511623e-06  3.44972458e-01 -2.03227600e-01 -1.22585890e-01 -1.39423334e-05
  4.27193018e-01  1.11326975e-02 -1.83474444e-03 -3.22417521e-07  3.88439099e-04
  3.20701877e-07 -5.66789972e-03 -9.53014547e-03  2.89786662e-02 -1.01940221e-06
 -7.53151452e-02  2.75404126e-02  4.57111371e-02 -2.12802863e-06 -1.16134699e-01
 -3.03487516e-02  4.05122597e-03 -1.46391956e-06 -7.62274597e-02 -1.75123543e-02
  3.14866660e-02  5.75440233e-06 -6.10881393e-04 -2.52817425e-07 -9.01096103e-02
 -1.78002812e-01 -9.77828874e-02 -2.30823881e-03 -2.23177133e-06  7.77514986e-03
  3.65128929e-02  8.36011657e-02  3.07516246e-02  3.82915487e-03  5.87469694e-03
 -2.28196559e-03  3.64920394e-02  8.35598477e-02  3.07258187e-02  3.82768915e-03
 -5.87308507e-03 -2.28527606e-03  4.19624681e-02  5.41447814e-02  3.20370665e-02
 -8.01945454e-03  8.79053185e-03  1.62860203e-02  4.19642734e-02  5.41521938e-02
  3.20419462e-02 -8.02017859e-03 -8.79187485e-03  1.62851745e-02  2.68900616e-02
  4.38675873e-02 -4.39588974e-02  2.39785083e-07 -3.64850599e-02 -8.65010494e-02
 -3.96117823e-02  5.99748536e-07 -5.34914997e-02 -6.45103288e-01 -3.12178031e-01
 -2.50087501e-07 -1.23858290e-01 -1.84296445e-03 -2.27809777e-03 -9.48093380e-08
  6.15247089e-04  2.88959786e-07  2.80823201e-02  4.43269451e-02  5.45032359e-02
 -1.87208775e-06 -1.65251519e-02 -1.11176747e-02  6.63336061e-02 -1.44664156e-06
 -1.18948000e-02 -1.60306729e+00  2.22386098e-01 -1.17586875e-05 -9.40128548e-02
  4.12196840e-03 -4.98760824e-03 -7.60644094e-07 -3.27740835e-03 -7.00086751e-07
  3.61737271e-03  1.76238404e-03  7.86380699e-01  5.57136449e-03 -5.84891738e-07
  1.65466566e-03  1.25572018e-03  3.75843762e-02  5.23501683e-01  6.74272267e-03
  2.59745877e-03  1.78558328e-03  1.25748061e-03  3.75819627e-02  5.23572432e-01
  6.74156549e-03 -2.59694344e-03  1.78389442e-03  1.71277661e-02 -6.13189862e-02
  6.68932693e-01  4.43104095e-03 -5.80693826e-03  4.55883248e-04  1.71285634e-02
 -6.13176760e-02  6.68940463e-01  4.43106963e-03  5.80677863e-03  4.56008929e-04
  2.89759134e-02  4.73541514e-02 -9.14063725e-03 -6.11533697e-07 -4.19702222e-02
 -8.13225025e-02  1.72422203e-02 -2.58463783e-07 -6.16107135e-02 -8.40097399e-01
 -9.93374441e-02 -1.92952129e-06 -1.68637018e-01 -3.41052880e-03  5.39110639e-04
  5.92977978e-08  3.68723364e-03  6.99621438e-07 -3.73997684e-02 -6.06425929e-02
 -1.66176113e-02 -4.56297839e-06 -1.49829287e-02  8.32683938e-02  1.77798906e-02
 -3.56973369e-06 -7.23885578e-03  1.39589668e+00 -2.30947463e-01 -2.87520893e-05
 -1.64175507e-01  2.79219636e-04 -3.85872707e-03 -5.09416969e-07 -2.98570870e-03
 -7.21695834e-07 -1.15820934e-02  8.00507563e-02 -5.83946782e-01  8.20230067e-03
  3.55765868e-07 -2.42889725e-03 -1.29979390e-02  7.10326922e-02 -9.20685089e-01
  7.50765039e-03  2.86437591e-03  3.95714615e-03 -1.29952082e-02  7.10319098e-02
 -9.20563613e-01  7.50629093e-03 -2.86412899e-03  3.95542039e-03  2.02599061e-02
 -6.02408088e-02  7.96439471e-01  7.17239537e-03 -1.77331532e-04 -1.97191977e-03
  2.02622851e-02 -6.02432369e-02  7.96493749e-01  7.17270113e-03  1.77647977e-04
 -1.97195674e-03  2.27909314e-07  3.39977597e-07 -1.24928954e-06  8.88614829e-02
  3.33832534e-06 -6.70812545e-07 -3.94781310e-07  8.27230507e-02  1.36442663e-06
 -6.57163959e-06 -3.05774401e-06  4.50438870e-01  3.60308527e-05  7.68776228e-07
  9.35600480e-07  3.93536020e-03  7.16933307e-07 -1.29475592e-02 -6.18977020e-07
 -9.40208626e-07 -1.66762396e-07  9.54728297e-02 -1.39141209e-05  1.68277961e-06
 -3.01626724e-08  4.85455730e-02 -6.95243528e-06  1.93238838e-05 -4.62232907e-06
  7.49675325e-01 -1.27886473e-04  6.54228193e-06 -1.01728025e-06  1.23751497e-02
  4.93613258e-06  1.89201861e-02  2.83939555e-06 -2.12445271e-05  3.79491156e-04
 -1.33320646e-06 -2.91468373e-03  5.38556126e-06  1.13687297e-02 -9.35055567e-02
  1.17505613e+00 -8.57318797e-03 -1.63070072e-02 -7.59211962e-03 -1.13720013e-02
  9.35410228e-02 -1.17549446e+00  8.57505674e-03 -1.63162140e-02  7.59104946e-03
  2.10106704e-02 -7.63109349e-02  1.16407403e+00  4.78640649e-03 -7.26496978e-03
  3.47352052e-03 -2.10100847e-02  7.62869000e-02 -1.16402121e+00 -4.78501367e-03
 -7.26470423e-03 -3.47205456e-03  7.70542005e-03  1.26282313e-02  5.05000989e-03
  8.40275137e-06 -1.66909755e-02 -1.74501025e-02  8.37209796e-03  6.90695526e-06
 -9.42666846e-03 -2.80242670e-01 -2.53834632e-03  5.20123918e-05 -1.99953274e-01
 -8.95447570e-04 -1.09946435e-02  1.92949533e-06 -7.74726327e-04 -1.15553364e-06
 -2.71250426e-03 -4.57889813e-03  1.33917372e-02  9.21890506e-06  1.38551399e-01
  6.55930698e-03  1.93302054e-02  6.86005817e-06  8.03502599e-02  9.35747035e-02
  1.31272295e-01  6.19655606e-05  1.15177952e+00 -1.94320973e-02  1.91227277e-02
  1.12495806e-05 -1.26645103e-02  2.34255647e-06 -1.81938384e-02  1.90885445e-01
 -2.20782533e+00  1.03984049e-02  5.02579178e-06 -3.04740213e-02  6.63365345e-03
 -8.25618089e-02  1.06481895e+00 -4.00582977e-03 -1.50336534e-02 -5.64760084e-03
  6.62579607e-03 -8.24968215e-02  1.06405484e+00 -4.00072564e-03  1.50264771e-02
 -5.63803443e-03 -2.05251851e-03  2.28256746e-02  1.40467734e-01 -1.73277873e-03
  1.27661394e-03 -5.03312782e-03 -2.05547679e-03  2.28525815e-02  1.40173564e-01
 -1.73405679e-03 -1.27717358e-03 -5.03114911e-03  1.34034406e-07  2.54985464e-07
  1.20697885e-06  9.43287143e-02  5.02767051e-06 -7.10171266e-07  1.08578447e-06
  8.16996657e-02  5.98701241e-06 -2.76452035e-06  4.78326763e-06  6.21818308e-01
  2.06456496e-05 -5.90810569e-07 -9.57578681e-08  9.83607146e-04 -5.59464015e-07
  3.18184129e-03  2.61726869e-07  3.91730719e-07 -7.43625927e-07 -1.01373855e-01
 -9.32599191e-07 -2.54602838e-07 -9.65623230e-07 -6.34860802e-02 -2.70857941e-06
 -1.75643376e-05 -1.45729595e-06 -9.67891385e-01 -1.08839690e-05 -6.08211048e-06
  6.92894153e-07 -1.97208885e-02 -4.27862887e-06 -1.02718297e-02  1.83722361e-07
  3.06031768e-05 -2.56251306e-04  1.06497237e-06 -6.80501778e-03 -4.38561880e-06
 -1.46254425e-02  6.97145685e-02 -1.53787666e+00  4.70365427e-03  1.42011796e-02
  1.18488020e-02  1.46259093e-02 -6.97433137e-02  1.53817327e+00 -4.70463622e-03
  1.42076376e-02 -1.18476499e-02  7.80291740e-03 -6.43190717e-02  1.18572989e+00
  1.05865410e-03 -6.43080080e-03  6.75291859e-03 -7.80220148e-03  6.43437983e-02
 -1.18578067e+00 -1.05984510e-03 -6.42933083e-03 -6.75524743e-03  2.51216990e-02
  4.13204343e-02  1.36434792e-01 -1.24873908e-06  1.22655415e-02 -4.16681064e-02
  1.56099051e-01 -9.97122463e-07  2.88131952e-03 -1.58923561e+00  1.22871811e+00
  8.79749911e-06 -8.47432973e-02  7.50270714e-03  1.27542844e-03 -2.03959317e-07
  5.54147145e-03  5.70853740e-07 -1.19180209e-02 -1.81581805e-02  8.38386259e-02
 -1.22504946e-06 -1.03502907e-02 -3.41978138e-02  4.24063493e-02 -2.40379230e-06
 -1.95764866e-03  1.17117767e+00  2.23645299e+00 -3.45734764e-05 -1.90467077e-01
  1.08841067e-02  8.11481861e-03 -6.25299483e-07 -2.05432505e-02  2.10115536e-07
  1.04089911e-02  1.34441548e-01  4.42632061e-01  3.69067887e-04 -1.71196942e-06
  6.15158365e-03  2.15872940e-02  2.18488565e-01  1.00386308e-01 -5.79479152e-04
 -8.72979807e-04 -1.08399528e-03  2.15912095e-02  2.18526636e-01  1.00388089e-01
 -5.78446372e-04  8.71681923e-04 -1.08341008e-03 -4.03538745e-03  1.52140756e-01
 -5.80886990e-01 -1.18668211e-02  1.99553661e-02 -5.45466556e-03 -4.03441598e-03
  1.52126078e-01 -5.80837102e-01 -1.18647456e-02 -1.99537831e-02 -5.45565366e-03
 -8.42829518e-07 -1.67110702e-06  6.08813100e-06  1.00888253e-02 -7.25951223e-06
  7.56789598e-06  1.13934627e-05  3.96565718e-02 -6.03767669e-06 -1.59967333e-05
  5.44705433e-05 -4.94900633e-01 -6.21106604e-05  1.49519928e-06 -2.44418297e-06
 -1.23865623e-02  5.79281605e-07 -2.58104936e-02 -6.37723115e-07 -1.15687156e-06
  2.47706867e-06  6.45185556e-03  6.36686925e-06  1.32829160e-06  2.50111994e-06
  7.22243319e-02  1.25039474e-05  6.48446492e-05  1.06528534e-04  1.81103336e+00
  2.97159373e-04 -6.52423428e-06 -5.46936599e-06 -2.51299113e-02 -7.03936628e-06
 -2.36505400e-02 -6.77870379e-06 -6.25693820e-05  3.09845457e-05  4.07372203e-07
  1.36021159e-02  1.88301448e-06  5.12248324e-02  1.24515281e+00 -1.68614091e-01
  3.70241596e-02  5.12608639e-02  2.29072567e-02 -5.12214619e-02 -1.24510400e+00
  1.68607576e-01 -3.70223411e-02  5.12715711e-02 -2.28908198e-02  3.89905804e-02
 -1.01772863e-01  3.24261174e-01  4.41771396e-02 -7.12478003e-03  1.13437480e-02
 -3.89980590e-02  1.01682125e-01 -3.24273473e-01 -4.41746298e-02 -7.12447549e-03
 -1.13381816e-02  7.60545205e-03  1.31634490e-02 -1.25863038e-02  3.16750103e-06
  5.38598395e-02 -6.89035544e-02 -3.19470980e-02  1.35820028e-05  7.31693939e-02
  1.28116023e-01  2.27725170e-01  7.12541440e-05  6.19855021e-01  6.56169156e-03
  2.31487308e-02 -1.55231965e-06 -3.39543915e-03 -3.45115263e-06 -2.88711884e-03
 -6.47968575e-03  1.61174363e-02  5.75970329e-06 -2.43884882e-02  6.09200320e-02
  4.73677435e-02  2.57271887e-05 -8.20083098e-02 -1.10334692e-01 -9.36096641e-03
  3.18401423e-04 -1.90959306e+00 -1.65202324e-02  4.05253114e-02  2.28597442e-06
 -5.98790262e-03 -5.80627859e-06  5.56735696e-02  1.47937801e+00 -4.56729255e-04
  4.09979644e-02  1.24409914e-05 -6.43140877e-02 -2.47102415e-02 -6.71342207e-01
  2.96675219e-02 -1.63566222e-02 -1.48395759e-02 -2.96739032e-02 -2.47213113e-02
 -6.71474850e-01  2.96450705e-02 -1.63489898e-02  1.48555017e-02 -2.96780583e-02
  2.35141905e-02 -2.34820558e-01  7.67621459e-02  2.51420031e-02 -2.07927236e-02
  9.62950841e-03  2.34925238e-02 -2.35151225e-01  7.69129896e-02  2.51462480e-02
  2.08049549e-02  9.63215052e-03 -2.47153841e-06 -4.17404104e-06  2.17241852e-06
  7.68344400e-02 -4.04887526e-06  1.03959473e-05  4.89003933e-06  1.33314130e-01
 -5.87112403e-06  7.12917971e-05 -4.50426596e-05  1.55196261e+00 -4.98715001e-07
 -1.62190305e-06 -4.57589110e-06  5.13642105e-03  1.00937165e-06 -5.00812595e-03
  5.95195864e-07  1.03629004e-06  1.78748001e-06  3.86388842e-02  1.07119340e-05
  5.91360425e-06  8.18024752e-06  9.94319673e-02  2.95265457e-05 -1.12967106e-04
 -5.42492702e-05 -9.61258950e-01  2.13356230e-04  6.34760602e-06  3.05266828e-07
  2.29498923e-03  5.92827871e-06  4.40205135e-02 -6.83203472e-06 -1.80060948e-04
 -5.67152976e-05 -4.35782110e-06 -5.11060962e-04  6.49803228e-06  3.79563639e-02
 -1.41069803e-01 -1.81167542e-01 -5.92719259e-02 -9.10788900e-03 -2.45700556e-03
 -3.79482897e-02  1.41330546e-01  1.81199578e-01  5.92792969e-02 -9.11594392e-03
  2.46581391e-03  6.36454582e-02  1.44090964e+00 -6.82278180e-01 -2.90298539e-02
  3.68552169e-02 -6.14099518e-03 -6.36567312e-02 -1.44095267e+00  6.82324790e-01
  2.90245783e-02  3.68538561e-02  6.13809069e-03  9.99139060e-03  1.80940119e-02
 -7.54798460e-02  2.00972050e-06 -2.73450034e-02  2.77364967e-02 -5.83783653e-02
  7.33631725e-06 -8.11322946e-02 -1.52454123e+00 -8.77936540e-01  6.26702066e-05
 -8.13979386e-01  1.15967763e-02 -8.02459419e-03  8.13793085e-07 -2.52002447e-02
 -1.59627160e-06  2.63553039e-02  5.46271708e-02 -1.23167362e-01  8.84571982e-06
 -2.81809680e-02 -3.76878339e-01 -4.47603025e-01  2.61103439e-05 -8.05693683e-02
  4.17050882e-01  5.85693021e-01  3.45718009e-05  3.89301740e-01 -7.75944989e-04
 -2.33328052e-02 -5.09898292e-06  7.75773484e-03  4.39463520e-06  4.19339421e-02
  6.90829485e-02 -2.70461172e-01 -6.06003898e-02 -1.57716797e-06  1.48423172e-02
 -9.03539330e-03 -3.57870995e-02  8.07180300e-02 -1.14672343e-02 -2.27545468e-03
 -9.72630942e-03 -9.04222809e-03 -3.58826492e-02  8.06563595e-02 -1.14650931e-02
  2.28300221e-03 -9.72504664e-03  4.23485645e-02  1.34377219e+00 -3.13367261e-01
 -5.81515050e-02  3.65338198e-02 -2.21735792e-02  4.23407502e-02  1.34367375e+00
 -3.13356169e-01 -5.81540203e-02 -3.65293516e-02 -2.21734758e-02  5.72376272e-02
  1.02332594e-01  7.54860502e-02  4.92963037e-06 -4.23761273e-02 -3.08885443e-01
 -5.81887688e-03  1.14927967e-05 -8.42572604e-02 -1.08240009e+00  5.20727382e-01
  5.45863247e-05 -5.35910169e-01 -4.38163598e-02  3.15625515e-03  9.88978443e-07
  3.74195396e-02 -7.09001062e-07 -5.60481128e-02 -1.08888042e-01  1.62606184e-01
  2.14511897e-06 -3.19664576e-02  3.69122571e-01  5.26700232e-01  4.90337042e-06
 -1.14928546e-01  1.92295402e+00 -3.71564433e-01 -3.33804238e-05  3.61129465e-01
  1.98571548e-02 -1.87879051e-02  1.38982069e-06 -5.02577363e-02  4.18157831e-06
 -8.83091484e-03 -7.87228091e-01 -5.87584578e-02 -1.43392057e-02  1.89907553e-07
  1.37350037e-02 -2.94677262e-02 -7.40180658e-01  1.29048344e-01  2.74907204e-02
 -7.11913022e-03 -2.10372838e-03 -2.94715453e-02 -7.40190565e-01  1.29039918e-01