 Entering Gaussian System, Link 0=/opt/g09gh/gaussian/g09/g09
 Input=methylamine-opt.com
 Output=methylamine-opt.log
 Initial command:
 /opt/g09gh/gaussian/g09/l1.exe /scratch/bdw2292/Gau-methylamine/Gau-26213.inp -scrdir=/scratch/bdw2292/Gau-methylamine/
 Entering Link 1 = /opt/g09gh/gaussian/g09/l1.exe PID=     26214.
  
 Copyright (c) 1988,1990,1992,1993,1995,1998,2003,2009, Gaussian, Inc.
                  All Rights Reserved.
  
 This is part of the Gaussian(R) 09 program.  It is based on
 the Gaussian(R) 03 system (copyright 2003, Gaussian, Inc.),
 the Gaussian(R) 98 system (copyright 1998, Gaussian, Inc.),
 the Gaussian(R) 94 system (copyright 1995, Gaussian, Inc.),
 the Gaussian 92(TM) system (copyright 1992, Gaussian, Inc.),
 the Gaussian 90(TM) system (copyright 1990, Gaussian, Inc.),
 the Gaussian 88(TM) system (copyright 1988, Gaussian, Inc.),
 the Gaussian 86(TM) system (copyright 1986, Carnegie Mellon
 University), and the Gaussian 82(TM) system (copyright 1983,
 Carnegie Mellon University). Gaussian is a federally registered
 trademark of Gaussian, Inc.
  
 This software contains proprietary and confidential information,
 including trade secrets, belonging to Gaussian, Inc.
  
 This software is provided under written license and may be
 used, copied, transmitted, or stored only in accord with that
 written license.
  
 The following legend is applicable only to US Government
 contracts under FAR:
  
                    RESTRICTED RIGHTS LEGEND
  
 Use, reproduction and disclosure by the US Government is
 subject to restrictions as set forth in subparagraphs (a)
 and (c) of the Commercial Computer Software - Restricted
 Rights clause in FAR 52.227-19.
  
 Gaussian, Inc.
 340 Quinnipiac St., Bldg. 40, Wallingford CT 06492
  
  
 ---------------------------------------------------------------
 Warning -- This program may not be used in any manner that
 competes with the business of Gaussian, Inc. or will provide
 assistance to any competitor of Gaussian, Inc.  The licensee
 of this program is prohibited from giving any competitor of
 Gaussian, Inc. access to this program.  By using this program,
 the user acknowledges that Gaussian, Inc. is engaged in the
 business of creating and licensing software in the field of
 computational chemistry and represents and warrants to the
 licensee that it is not a competitor of Gaussian, Inc. and that
 it will not use this program in any manner prohibited above.
 ---------------------------------------------------------------
  

 Cite this work as:
 Gaussian 09, Revision A.02,
 M. J. Frisch, G. W. Trucks, H. B. Schlegel, G. E. Scuseria, 
 M. A. Robb, J. R. Cheeseman, G. Scalmani, V. Barone, B. Mennucci, 
 G. A. Petersson, H. Nakatsuji, M. Caricato, X. Li, H. P. Hratchian, 
 A. F. Izmaylov, J. Bloino, G. Zheng, J. L. Sonnenberg, M. Hada, 
 M. Ehara, K. Toyota, R. Fukuda, J. Hasegawa, M. Ishida, T. Nakajima, 
 Y. Honda, O. Kitao, H. Nakai, T. Vreven, J. A. Montgomery, Jr., 
 J. E. Peralta, F. Ogliaro, M. Bearpark, J. J. Heyd, E. Brothers, 
 K. N. Kudin, V. N. Staroverov, R. Kobayashi, J. Normand, 
 K. Raghavachari, A. Rendell, J. C. Burant, S. S. Iyengar, J. Tomasi, 
 M. Cossi, N. Rega, J. M. Millam, M. Klene, J. E. Knox, J. B. Cross, 
 V. Bakken, C. Adamo, J. Jaramillo, R. Gomperts, R. E. Stratmann, 
 O. Yazyev, A. J. Austin, R. Cammi, C. Pomelli, J. W. Ochterski, 
 R. L. Martin, K. Morokuma, V. G. Zakrzewski, G. A. Voth, 
 P. Salvador, J. J. Dannenberg, S. Dapprich, A. D. Daniels, 
 O. Farkas, J. B. Foresman, J. V. Ortiz, J. Cioslowski, 
 and D. J. Fox, Gaussian, Inc., Wallingford CT, 2009.
 
 ******************************************
 Gaussian 09:  EM64L-G09RevA.02 11-Jun-2009
                21-Sep-2020 
 ******************************************
 %RWF=/scratch/bdw2292/Gau-methylamine/,20GB
 %Nosave
 %Chk=methylamine-opt.chk
 %Mem=5GB
 %Nproc=4
 Will use up to    4 processors via shared memory.
 ---------------------------------------------------------------
 #P opt=(maxcycle=3,Loose) wB97XD/6-31G* Guess=INDO MaxDisk=20GB
 ---------------------------------------------------------------
 1/6=3,7=-1,14=-1,18=20,19=15,26=3,38=1/1,3;
 2/9=110,12=2,17=6,18=5,40=1/2;
 3/5=1,6=6,7=1,11=2,16=1,25=1,30=1,71=1,74=-58/1,2,3;
 4/5=4,11=3/1;
 5/5=2,38=5/2;
 6/7=2,8=2,9=2,10=2,28=1/1;
 7//1,2,3,16;
 1/6=3,7=-1,14=-1,18=20,19=15/3(2);
 2/9=110/2;
 99//99;
 2/9=110/2;
 3/5=1,6=6,7=1,11=2,16=1,25=1,30=1,71=1,74=-58/1,2,3;
 4/5=5,11=3,16=3/1;
 5/5=2,38=5/2;
 7//1,2,3,16;
 1/6=3,7=-1,14=-1,18=20,19=15/3(-5);
 2/9=110/2;
 6/7=2,8=2,9=2,10=2,19=2,28=1/1;
 99/9=1/99;
 Leave Link    1 at Mon Sep 21 15:11:59 2020, MaxMem=  671088640 cpu:       0.1
 (Enter /opt/g09gh/gaussian/g09/l101.exe)
 -------------------------------------------------------------
 methylamine Gaussian OPT Calculation on node37.bme.utexas.edu
 -------------------------------------------------------------
 Symbolic Z-matrix:
 Charge =  0 Multiplicity = 1
 N                    -0.727     0.       -0.003 
 C                     0.725     0.       -0.002 
 H                     1.109     0.092     1.018 
 H                     1.103     0.837    -0.595 
 H                     1.103    -0.929    -0.436 
 H                    -1.066     0.857     0.432 
 H                    -1.066    -0.766     0.578 
 
 NAtoms=      7 NQM=      7 NQMF=      0 NMic=      0 NMicF=      0 NTot=      7.
                    Isotopes and Nuclear Properties:
 (Nuclear quadrupole moments (NQMom) in fm**2, nuclear magnetic moments (NMagM)
  in nuclear magnetons)

  Atom         1           2           3           4           5           6           7
 IAtWgt=          14          12           1           1           1           1           1
 AtmWgt=  14.0030740  12.0000000   1.0078250   1.0078250   1.0078250   1.0078250   1.0078250
 NucSpn=           2           0           1           1           1           1           1
 AtZEff=   0.0000000   0.0000000   0.0000000   0.0000000   0.0000000   0.0000000   0.0000000
 NQMom=    2.0440000   0.0000000   0.0000000   0.0000000   0.0000000   0.0000000   0.0000000
 NMagM=    0.4037610   0.0000000   2.7928460   2.7928460   2.7928460   2.7928460   2.7928460
 Leave Link  101 at Mon Sep 21 15:11:59 2020, MaxMem=  671088640 cpu:       0.3
 (Enter /opt/g09gh/gaussian/g09/l103.exe)

 GradGradGradGradGradGradGradGradGradGradGradGradGradGradGradGradGradGrad
 Berny optimization.
 Initialization pass.
                           ----------------------------
                           !    Initial Parameters    !
                           ! (Angstroms and Degrees)  !
 --------------------------                            --------------------------
 ! Name  Definition              Value          Derivative Info.                !
 --------------------------------------------------------------------------------
 ! R1    R(1,2)                  1.452          estimate D2E/DX2                !
 ! R2    R(1,6)                  1.0191         estimate D2E/DX2                !
 ! R3    R(1,7)                  1.0194         estimate D2E/DX2                !
 ! R4    R(2,3)                  1.0938         estimate D2E/DX2                !
 ! R5    R(2,4)                  1.0932         estimate D2E/DX2                !
 ! R6    R(2,5)                  1.0928         estimate D2E/DX2                !
 ! A1    A(2,1,6)              109.4113         estimate D2E/DX2                !
 ! A2    A(2,1,7)              109.3991         estimate D2E/DX2                !
 ! A3    A(6,1,7)              106.1401         estimate D2E/DX2                !
 ! A4    A(1,2,3)              110.5928         estimate D2E/DX2                !
 ! A5    A(1,2,4)              110.2061         estimate D2E/DX2                !
 ! A6    A(1,2,5)              110.2195         estimate D2E/DX2                !
 ! A7    A(3,2,4)              108.6668         estimate D2E/DX2                !
 ! A8    A(3,2,5)              108.6882         estimate D2E/DX2                !
 ! A9    A(4,2,5)              108.4113         estimate D2E/DX2                !
 ! D1    D(6,1,2,3)             57.9207         estimate D2E/DX2                !
 ! D2    D(6,1,2,4)            -62.2528         estimate D2E/DX2                !
 ! D3    D(6,1,2,5)            178.1296         estimate D2E/DX2                !
 ! D4    D(7,1,2,3)            -57.9644         estimate D2E/DX2                !
 ! D5    D(7,1,2,4)           -178.1379         estimate D2E/DX2                !
 ! D6    D(7,1,2,5)             62.2446         estimate D2E/DX2                !
 --------------------------------------------------------------------------------
 Trust Radius=3.00D-01 FncErr=1.00D-07 GrdErr=1.00D-06
 Number of steps in this run=   3 maximum allowed number of steps= 100.
 GradGradGradGradGradGradGradGradGradGradGradGradGradGradGradGradGradGrad

 Leave Link  103 at Mon Sep 21 15:11:59 2020, MaxMem=  671088640 cpu:       0.0
 (Enter /opt/g09gh/gaussian/g09/l202.exe)
                          Input orientation:                          
 ---------------------------------------------------------------------
 Center     Atomic      Atomic             Coordinates (Angstroms)
 Number     Number       Type             X           Y           Z
 ---------------------------------------------------------------------
      1          7           0       -0.727000    0.000000   -0.003000
      2          6           0        0.725000    0.000000   -0.002000
      3          1           0        1.109000    0.092000    1.018000
      4          1           0        1.103000    0.837000   -0.595000
      5          1           0        1.103000   -0.929000   -0.436000
      6          1           0       -1.066000    0.857000    0.432000
      7          1           0       -1.066000   -0.766000    0.578000
 ---------------------------------------------------------------------
                    Distance matrix (angstroms):
                    1          2          3          4          5
     1  N    0.000000
     2  C    1.452000   0.000000
     3  H    2.102808   1.093764   0.000000
     4  H    2.097602   1.093207   1.776747   0.000000
     5  H    2.097482   1.092832   1.776680   1.773143   0.000000
     6  H    1.019115   2.032360   2.378917   2.399935   2.940711
     7  H    1.019430   2.032446   2.379157   2.941105   2.399860
                    6          7
     6  H    0.000000
     7  H    1.629554   0.000000
 Stoichiometry    CH5N
 Framework group  C1[X(CH5N)]
 Deg. of freedom    15
 Full point group                 C1      NOp   1
 Largest Abelian subgroup         C1      NOp   1
 Largest concise Abelian subgroup C1      NOp   1
                         Standard orientation:                         
 ---------------------------------------------------------------------
 Center     Atomic      Atomic             Coordinates (Angstroms)
 Number     Number       Type             X           Y           Z
 ---------------------------------------------------------------------
      1          7           0       -0.742025    0.000092   -0.132760
      2          6           0        0.702379   -0.000093    0.015566
      3          1           0        0.980477   -0.000072    1.073385
      4          1           0        1.130790    0.886744   -0.458865
      5          1           0        1.130694   -0.886399   -0.459081
      6          1           0       -1.130991    0.814597    0.340403
      7          1           0       -1.131067   -0.814957    0.340081
 ---------------------------------------------------------------------
 Rotational constants (GHZ):    102.3132859     23.2137109     22.2869060
 Leave Link  202 at Mon Sep 21 15:11:59 2020, MaxMem=  671088640 cpu:       0.0
 (Enter /opt/g09gh/gaussian/g09/l301.exe)
 Standard basis: 6-31G(d) (6D, 7F)
 Ernie: Thresh=  0.10000D-02 Tol=  0.10000D-05 Strict=F.
 There are    40 symmetry adapted basis functions of A   symmetry.
 Integral buffers will be    131072 words long.
 Raffenetti 2 integral format.
 Two-electron integral symmetry is turned on.
    40 basis functions,    76 primitive gaussians,    40 cartesian basis functions
     9 alpha electrons        9 beta electrons
       nuclear repulsion energy        42.1703564818 Hartrees.
 IExCor= 4639 DFT=T Ex+Corr=wB97XD ExCW=0 ScaHFX=  1.000000
 ScaDFX=  1.000000  1.000000  1.000000  1.000000 ScalE2=  1.000000  1.000000
 IRadAn=      0 IRanWt=     -1 IRanGd=            0 ICorTp=0
  HFx wShort=  0.000000 wLong=  0.200000 cFull=  0.222036 cShort=  0.000000 cLong=  0.777964
  DFx wShort=  0.000000 wLong=  0.200000 cFull=  0.000000 cShort=  0.000000 cLong=  1.000000
 NAtoms=    7 NActive=    7 NUniq=    7 SFac= 7.50D-01 NAtFMM=   80 NAOKFM=F Big=F
 R6Disp: Dispersion energy =        -0.0013366227 Hartrees.
 Nuclear repulsion after empirical dispersion term =       42.1690198591 Hartrees.
 Leave Link  301 at Mon Sep 21 15:11:59 2020, MaxMem=  671088640 cpu:       0.2
 (Enter /opt/g09gh/gaussian/g09/l302.exe)
 NPDir=0 NMtPBC=     1 NCelOv=     1 NCel=       1 NClECP=     1 NCelD=      1
         NCelK=      1 NCelE2=     1 NClLst=     1 CellRange=     0.0.
 One-electron integrals computed using PRISM.
 NBasis=    40 RedAO= T  NBF=    40
 NBsUse=    40 1.00D-06 NBFU=    40
 Precomputing XC quadrature grid using
 IXCGrd= 2 IRadAn=           0 IRanWt=          -1 IRanGd=           0 AccXCQ= 1.00D-10.
 NRdTot=     431 NPtTot=       54596 NUsed=       57717 NTot=       57749
 NSgBfM=    40    40    40    40    40 NAtAll=     7     7.
 Leave Link  302 at Mon Sep 21 15:11:59 2020, MaxMem=  671088640 cpu:       0.5
 (Enter /opt/g09gh/gaussian/g09/l303.exe)
 DipDrv:  MaxL=1.
 Leave Link  303 at Mon Sep 21 15:11:59 2020, MaxMem=  671088640 cpu:       0.1
 (Enter /opt/g09gh/gaussian/g09/l401.exe)
 Projected INDO guess.
 Initial guess orbital symmetries:
       Occupied  (A) (A) (A) (A) (A) (A) (A) (A) (A)
       Virtual   (A) (A) (A) (A) (A) (A) (A) (A) (A) (A) (A) (A)
                 (A) (A) (A) (A) (A) (A) (A) (A) (A) (A) (A) (A)
                 (A) (A) (A) (A) (A) (A) (A)
 The electronic state of the initial guess is 1-A.
 Leave Link  401 at Mon Sep 21 15:11:59 2020, MaxMem=  671088640 cpu:       0.2
 (Enter /opt/g09gh/gaussian/g09/l502.exe)
 Closed shell SCF:
 Requested convergence on RMS density matrix=1.00D-08 within 128 cycles.
 Requested convergence on MAX density matrix=1.00D-06.
 Requested convergence on             energy=1.00D-06.
 No special actions if energy rises.
 Using DIIS extrapolation, IDIIS=  1040.
 Integral symmetry usage will be decided dynamically.
        57641 words used for storage of precomputed grid.
 IEnd=       81139 IEndB=       81139 NGot=   671088640 MDV=   671025782
 LenX=   671025782 LenY=   671023741
 Fock matrices will be formed incrementally for  20 cycles.
 Integral accuracy reduced to 1.0D-05 until final iterations.

 Cycle   1  Pass 0  IDiag  1:
 FoFJK:  IHMeth= 1 ICntrl=     0 DoSepK=T KAlg= 1 I1Cent= 0 FoldK=F
 FoFCou: FMM=F IPFlag=           0 FMFlag=      100000 FMFlg1=           0
         NFxFlg=           0 DoJE=T BraDBF=F KetDBF=F FulRan=T
         Omega=  0.000000  0.000000  1.000000  0.000000  0.000000 ICntrl=     500 IOpCl=  0
         NMat0=    1 NMatS0=    1 NMatT0=    0 NMatD0=    1 NMtDS0=    0 NMtDT0=    0
         I1Cent=           0 NGrid=           0.
 Symmetry not used in FoFCou.
 E= -95.3975537594717    
 DIIS: error= 3.58D-01 at cycle   1 NSaved=   1.
 NSaved= 1 IEnMin= 1 EnMin= -95.3975537594717     IErMin= 1 ErrMin= 3.58D-01
 ErrMax= 3.58D-01 EMaxC= 1.00D-01 BMatC= 1.81D+00 BMatP= 1.81D+00
 IDIUse=3 WtCom= 0.00D+00 WtEn= 1.00D+00
 Coeff-Com:  0.100D+01
 Coeff-En:   0.100D+01
 Coeff:      0.100D+01
 Gap=     0.688 Goal=   None    Shift=    0.000
 GapD=    0.688 DampG=2.000 DampE=0.250 DampFc=0.5000 IDamp=-1.
 Damping current iteration by 5.00D-01
 RMSDP=1.20D-02 MaxDP=1.05D-01              OVMax= 1.30D-01

 Cycle   2  Pass 0  IDiag  1:
 RMSU=  4.11D-03    CP:  9.72D-01
 FoFJK:  IHMeth= 1 ICntrl=     0 DoSepK=T KAlg= 1 I1Cent= 0 FoldK=F
 E= -95.6042845018965     Delta-E=       -0.206730742425 Rises=F Damp=T
 DIIS: error= 1.83D-01 at cycle   2 NSaved=   2.
 NSaved= 2 IEnMin= 2 EnMin= -95.6042845018965     IErMin= 2 ErrMin= 1.83D-01
 ErrMax= 1.83D-01 EMaxC= 1.00D-01 BMatC= 4.65D-01 BMatP= 1.81D+00
 IDIUse=3 WtCom= 0.00D+00 WtEn= 1.00D+00
 Coeff-Com: -0.101D+01 0.201D+01
 Coeff-En:   0.000D+00 0.100D+01
 Coeff:      0.000D+00 0.100D+01
 Gap=     0.474 Goal=   None    Shift=    0.000
 RMSDP=6.41D-03 MaxDP=5.95D-02 DE=-2.07D-01 OVMax= 2.10D-02

 Cycle   3  Pass 0  IDiag  1:
 RMSU=  1.05D-03    CP:  9.41D-01  2.03D+00
 FoFJK:  IHMeth= 1 ICntrl=     0 DoSepK=T KAlg= 1 I1Cent= 0 FoldK=F
 E= -95.8191623996089     Delta-E=       -0.214877897712 Rises=F Damp=F
 DIIS: error= 4.40D-03 at cycle   3 NSaved=   3.
 NSaved= 3 IEnMin= 3 EnMin= -95.8191623996089     IErMin= 3 ErrMin= 4.40D-03
 ErrMax= 4.40D-03 EMaxC= 1.00D-01 BMatC= 1.05D-03 BMatP= 4.65D-01
 IDIUse=3 WtCom= 9.56D-01 WtEn= 4.40D-02
 Coeff-Com:  0.212D+00-0.436D+00 0.122D+01
 Coeff-En:   0.000D+00 0.000D+00 0.100D+01
 Coeff:      0.203D+00-0.416D+00 0.121D+01
 Gap=     0.479 Goal=   None    Shift=    0.000
 RMSDP=9.46D-04 MaxDP=1.33D-02 DE=-2.15D-01 OVMax= 1.44D-02

 Cycle   4  Pass 0  IDiag  1:
 RMSU=  4.84D-04    CP:  9.37D-01  2.12D+00  1.24D+00
 FoFJK:  IHMeth= 1 ICntrl=     0 DoSepK=T KAlg= 1 I1Cent= 0 FoldK=F
 E= -95.8203433011325     Delta-E=       -0.001180901524 Rises=F Damp=F
 DIIS: error= 1.08D-03 at cycle   4 NSaved=   4.
 NSaved= 4 IEnMin= 4 EnMin= -95.8203433011325     IErMin= 4 ErrMin= 1.08D-03
 ErrMax= 1.08D-03 EMaxC= 1.00D-01 BMatC= 6.54D-05 BMatP= 1.05D-03
 IDIUse=3 WtCom= 9.89D-01 WtEn= 1.08D-02
 Coeff-Com:  0.768D-01-0.155D+00 0.154D+00 0.924D+00
 Coeff-En:   0.000D+00 0.000D+00 0.000D+00 0.100D+01
 Coeff:      0.760D-01-0.153D+00 0.153D+00 0.925D+00
 Gap=     0.479 Goal=   None    Shift=    0.000
 RMSDP=2.99D-04 MaxDP=3.05D-03 DE=-1.18D-03 OVMax= 3.56D-03

 Cycle   5  Pass 0  IDiag  1:
 RMSU=  1.69D-04    CP:  9.36D-01  2.13D+00  1.32D+00  1.18D+00
 FoFJK:  IHMeth= 1 ICntrl=     0 DoSepK=T KAlg= 1 I1Cent= 0 FoldK=F
 E= -95.8204151463749     Delta-E=       -0.000071845242 Rises=F Damp=F
 DIIS: error= 5.65D-04 at cycle   5 NSaved=   5.
 NSaved= 5 IEnMin= 5 EnMin= -95.8204151463749     IErMin= 5 ErrMin= 5.65D-04
 ErrMax= 5.65D-04 EMaxC= 1.00D-01 BMatC= 9.40D-06 BMatP= 6.54D-05
 IDIUse=3 WtCom= 9.94D-01 WtEn= 5.65D-03
 Coeff-Com:  0.148D-01-0.295D-01-0.974D-02 0.291D+00 0.733D+00
 Coeff-En:   0.000D+00 0.000D+00 0.000D+00 0.000D+00 0.100D+01
 Coeff:      0.147D-01-0.293D-01-0.968D-02 0.290D+00 0.735D+00
 Gap=     0.478 Goal=   None    Shift=    0.000
 RMSDP=9.07D-05 MaxDP=1.35D-03 DE=-7.18D-05 OVMax= 1.33D-03

 Cycle   6  Pass 0  IDiag  1:
 RMSU=  4.09D-05    CP:  9.36D-01  2.13D+00  1.33D+00  1.27D+00  1.04D+00
 FoFJK:  IHMeth= 1 ICntrl=     0 DoSepK=T KAlg= 1 I1Cent= 0 FoldK=F
 E= -95.8204236346598     Delta-E=       -0.000008488285 Rises=F Damp=F
 DIIS: error= 1.27D-04 at cycle   6 NSaved=   6.
 NSaved= 6 IEnMin= 6 EnMin= -95.8204236346598     IErMin= 6 ErrMin= 1.27D-04
 ErrMax= 1.27D-04 EMaxC= 1.00D-01 BMatC= 9.19D-07 BMatP= 9.40D-06
 IDIUse=3 WtCom= 9.99D-01 WtEn= 1.27D-03
 Coeff-Com: -0.191D-02 0.417D-02-0.218D-01 0.663D-02 0.232D+00 0.781D+00
 Coeff-En:   0.000D+00 0.000D+00 0.000D+00 0.000D+00 0.000D+00 0.100D+01
 Coeff:     -0.191D-02 0.417D-02-0.218D-01 0.663D-02 0.232D+00 0.781D+00
 Gap=     0.479 Goal=   None    Shift=    0.000
 RMSDP=4.53D-05 MaxDP=4.80D-04 DE=-8.49D-06 OVMax= 5.78D-04

 Cycle   7  Pass 0  IDiag  1:
 RMSU=  1.34D-05    CP:  9.36D-01  2.13D+00  1.33D+00  1.30D+00  1.18D+00
                    CP:  9.72D-01
 FoFJK:  IHMeth= 1 ICntrl=     0 DoSepK=T KAlg= 1 I1Cent= 0 FoldK=F
 E= -95.8204248274404     Delta-E=       -0.000001192781 Rises=F Damp=F
 DIIS: error= 3.32D-05 at cycle   7 NSaved=   7.
 NSaved= 7 IEnMin= 7 EnMin= -95.8204248274404     IErMin= 7 ErrMin= 3.32D-05
 ErrMax= 3.32D-05 EMaxC= 1.00D-01 BMatC= 4.57D-08 BMatP= 9.19D-07
 IDIUse=1 WtCom= 1.00D+00 WtEn= 0.00D+00
 Coeff-Com:  0.127D-03-0.267D-03 0.295D-02-0.129D-01-0.753D-01 0.191D-01
 Coeff-Com:  0.107D+01
 Coeff:      0.127D-03-0.267D-03 0.295D-02-0.129D-01-0.753D-01 0.191D-01
 Coeff:      0.107D+01
 Gap=     0.478 Goal=   None    Shift=    0.000
 RMSDP=2.14D-05 MaxDP=2.49D-04 DE=-1.19D-06 OVMax= 2.71D-04

 Cycle   8  Pass 0  IDiag  1:
 RMSU=  3.23D-06    CP:  9.36D-01  2.13D+00  1.33D+00  1.32D+00  1.24D+00
                    CP:  1.13D+00  1.29D+00
 FoFJK:  IHMeth= 1 ICntrl=     0 DoSepK=T KAlg= 1 I1Cent= 0 FoldK=F
 E= -95.8204249315167     Delta-E=       -0.000000104076 Rises=F Damp=F
 DIIS: error= 6.71D-06 at cycle   8 NSaved=   8.
 NSaved= 8 IEnMin= 8 EnMin= -95.8204249315167     IErMin= 8 ErrMin= 6.71D-06
 ErrMax= 6.71D-06 EMaxC= 1.00D-01 BMatC= 1.68D-09 BMatP= 4.57D-08
 IDIUse=1 WtCom= 1.00D+00 WtEn= 0.00D+00
 Coeff-Com:  0.107D-03-0.225D-03 0.533D-03 0.358D-02-0.363D-02-0.451D-01
 Coeff-Com: -0.168D+00 0.121D+01
 Coeff:      0.107D-03-0.225D-03 0.533D-03 0.358D-02-0.363D-02-0.451D-01
 Coeff:     -0.168D+00 0.121D+01
 Gap=     0.478 Goal=   None    Shift=    0.000
 RMSDP=6.99D-06 MaxDP=8.57D-05 DE=-1.04D-07 OVMax= 9.50D-05

 Initial convergence to 1.0D-05 achieved.  Increase integral accuracy.
 Cycle   9  Pass 1  IDiag  1:
 FoFJK:  IHMeth= 1 ICntrl=     0 DoSepK=T KAlg= 1 I1Cent= 0 FoldK=F
 E= -95.8202821873254     Delta-E=        0.000142744191 Rises=F Damp=F
 DIIS: error= 1.20D-04 at cycle   1 NSaved=   1.
 NSaved= 1 IEnMin= 1 EnMin= -95.8202821873254     IErMin= 1 ErrMin= 1.20D-04
 ErrMax= 1.20D-04 EMaxC= 1.00D-01 BMatC= 6.31D-07 BMatP= 6.31D-07
 IDIUse=3 WtCom= 9.99D-01 WtEn= 1.20D-03
 Coeff-Com:  0.100D+01
 Coeff-En:   0.100D+01
 Coeff:      0.100D+01
 Gap=     0.478 Goal=   None    Shift=    0.000
 RMSDP=6.99D-06 MaxDP=8.57D-05 DE= 1.43D-04 OVMax= 1.80D-04

 Cycle  10  Pass 1  IDiag  1:
 RMSU=  1.06D-05    CP:  1.00D+00
 FoFJK:  IHMeth= 1 ICntrl=     0 DoSepK=T KAlg= 1 I1Cent= 0 FoldK=F
 E= -95.8202827019881     Delta-E=       -0.000000514663 Rises=F Damp=F
 DIIS: error= 1.68D-05 at cycle   2 NSaved=   2.
 NSaved= 2 IEnMin= 2 EnMin= -95.8202827019881     IErMin= 2 ErrMin= 1.68D-05
 ErrMax= 1.68D-05 EMaxC= 1.00D-01 BMatC= 8.38D-09 BMatP= 6.31D-07
 IDIUse=1 WtCom= 1.00D+00 WtEn= 0.00D+00
 Coeff-Com: -0.643D-01 0.106D+01
 Coeff:     -0.643D-01 0.106D+01
 Gap=     0.478 Goal=   None    Shift=    0.000
 RMSDP=3.39D-06 MaxDP=3.23D-05 DE=-5.15D-07 OVMax= 6.05D-05

 Cycle  11  Pass 1  IDiag  1:
 RMSU=  2.02D-06    CP:  1.00D+00  1.12D+00
 FoFJK:  IHMeth= 1 ICntrl=     0 DoSepK=T KAlg= 1 I1Cent= 0 FoldK=F
 E= -95.8202827155365     Delta-E=       -0.000000013548 Rises=F Damp=F
 DIIS: error= 5.98D-06 at cycle   3 NSaved=   3.
 NSaved= 3 IEnMin= 3 EnMin= -95.8202827155365     IErMin= 3 ErrMin= 5.98D-06
 ErrMax= 5.98D-06 EMaxC= 1.00D-01 BMatC= 1.23D-09 BMatP= 8.38D-09
 IDIUse=1 WtCom= 1.00D+00 WtEn= 0.00D+00
 Coeff-Com: -0.177D-01 0.220D+00 0.798D+00
 Coeff:     -0.177D-01 0.220D+00 0.798D+00
 Gap=     0.478 Goal=   None    Shift=    0.000
 RMSDP=1.03D-06 MaxDP=1.28D-05 DE=-1.35D-08 OVMax= 1.40D-05

 Cycle  12  Pass 1  IDiag  1:
 RMSU=  7.11D-07    CP:  1.00D+00  1.14D+00  1.00D+00
 FoFJK:  IHMeth= 1 ICntrl=     0 DoSepK=T KAlg= 1 I1Cent= 0 FoldK=F
 E= -95.8202827167475     Delta-E=       -0.000000001211 Rises=F Damp=F
 DIIS: error= 2.04D-06 at cycle   4 NSaved=   4.
 NSaved= 4 IEnMin= 4 EnMin= -95.8202827167475     IErMin= 4 ErrMin= 2.04D-06
 ErrMax= 2.04D-06 EMaxC= 1.00D-01 BMatC= 2.79D-10 BMatP= 1.23D-09
 IDIUse=1 WtCom= 1.00D+00 WtEn= 0.00D+00
 Coeff-Com:  0.207D-02-0.823D-01 0.281D+00 0.800D+00
 Coeff:      0.207D-02-0.823D-01 0.281D+00 0.800D+00
 Gap=     0.478 Goal=   None    Shift=    0.000
 RMSDP=4.80D-07 MaxDP=3.26D-06 DE=-1.21D-09 OVMax= 6.57D-06

 Cycle  13  Pass 1  IDiag  1:
 RMSU=  1.39D-07    CP:  1.00D+00  1.14D+00  1.15D+00  9.61D-01
 FoFJK:  IHMeth= 1 ICntrl=     0 DoSepK=T KAlg= 1 I1Cent= 0 FoldK=F
 E= -95.8202827170402     Delta-E=       -0.000000000293 Rises=F Damp=F
 DIIS: error= 3.08D-07 at cycle   5 NSaved=   5.
 NSaved= 5 IEnMin= 5 EnMin= -95.8202827170402     IErMin= 5 ErrMin= 3.08D-07
 ErrMax= 3.08D-07 EMaxC= 1.00D-01 BMatC= 7.19D-12 BMatP= 2.79D-10
 IDIUse=1 WtCom= 1.00D+00 WtEn= 0.00D+00
 Coeff-Com:  0.119D-02-0.296D-01 0.385D-01 0.179D+00 0.811D+00
 Coeff:      0.119D-02-0.296D-01 0.385D-01 0.179D+00 0.811D+00
 Gap=     0.478 Goal=   None    Shift=    0.000
 RMSDP=1.14D-07 MaxDP=9.41D-07 DE=-2.93D-10 OVMax= 1.40D-06

 Cycle  14  Pass 1  IDiag  1:
 RMSU=  5.24D-08    CP:  1.00D+00  1.14D+00  1.17D+00  1.02D+00  1.10D+00
 FoFJK:  IHMeth= 1 ICntrl=     0 DoSepK=T KAlg= 1 I1Cent= 0 FoldK=F
 E= -95.8202827170477     Delta-E=       -0.000000000008 Rises=F Damp=F
 DIIS: error= 1.85D-07 at cycle   6 NSaved=   6.
 NSaved= 6 IEnMin= 6 EnMin= -95.8202827170477     IErMin= 6 ErrMin= 1.85D-07
 ErrMax= 1.85D-07 EMaxC= 1.00D-01 BMatC= 1.41D-12 BMatP= 7.19D-12
 IDIUse=1 WtCom= 1.00D+00 WtEn= 0.00D+00
 Coeff-Com:  0.250D-03-0.120D-02-0.162D-01-0.282D-01 0.303D+00 0.743D+00
 Coeff:      0.250D-03-0.120D-02-0.162D-01-0.282D-01 0.303D+00 0.743D+00
 Gap=     0.478 Goal=   None    Shift=    0.000
 RMSDP=4.26D-08 MaxDP=3.93D-07 DE=-7.50D-12 OVMax= 3.57D-07

 Cycle  15  Pass 1  IDiag  1:
 RMSU=  1.34D-08    CP:  1.00D+00  1.14D+00  1.18D+00  1.03D+00  1.22D+00
                    CP:  9.55D-01
 FoFJK:  IHMeth= 1 ICntrl=     0 DoSepK=T KAlg= 1 I1Cent= 0 FoldK=F
 E= -95.8202827170491     Delta-E=       -0.000000000001 Rises=F Damp=F
 DIIS: error= 2.27D-08 at cycle   7 NSaved=   7.
 NSaved= 7 IEnMin= 7 EnMin= -95.8202827170491     IErMin= 7 ErrMin= 2.27D-08
 ErrMax= 2.27D-08 EMaxC= 1.00D-01 BMatC= 1.74D-14 BMatP= 1.41D-12
 IDIUse=1 WtCom= 1.00D+00 WtEn= 0.00D+00
 Coeff-Com: -0.380D-04 0.143D-02-0.368D-02-0.127D-01-0.903D-02 0.669D-01
 Coeff-Com:  0.957D+00
 Coeff:     -0.380D-04 0.143D-02-0.368D-02-0.127D-01-0.903D-02 0.669D-01
 Coeff:      0.957D+00
 Gap=     0.478 Goal=   None    Shift=    0.000
 RMSDP=1.37D-08 MaxDP=1.49D-07 DE=-1.42D-12 OVMax= 1.33D-07

 Cycle  16  Pass 1  IDiag  1:
 RMSU=  2.05D-09    CP:  1.00D+00  1.14D+00  1.18D+00  1.04D+00  1.25D+00
                    CP:  1.04D+00  1.25D+00
 FoFJK:  IHMeth= 1 ICntrl=     0 DoSepK=T KAlg= 1 I1Cent= 0 FoldK=F
 E= -95.8202827170497     Delta-E=       -0.000000000001 Rises=F Damp=F
 DIIS: error= 4.72D-09 at cycle   8 NSaved=   8.
 NSaved= 8 IEnMin= 8 EnMin= -95.8202827170497     IErMin= 8 ErrMin= 4.72D-09
 ErrMax= 4.72D-09 EMaxC= 1.00D-01 BMatC= 5.78D-16 BMatP= 1.74D-14
 IDIUse=1 WtCom= 1.00D+00 WtEn= 0.00D+00
 Coeff-Com: -0.881D-05-0.137D-04 0.657D-03 0.165D-02-0.884D-02-0.315D-01
 Coeff-Com: -0.827D-01 0.112D+01
 Coeff:     -0.881D-05-0.137D-04 0.657D-03 0.165D-02-0.884D-02-0.315D-01
 Coeff:     -0.827D-01 0.112D+01
 Gap=     0.478 Goal=   None    Shift=    0.000
 RMSDP=4.53D-09 MaxDP=4.64D-08 DE=-5.68D-13 OVMax= 4.62D-08

 SCF Done:  E(RwB97XD) =  -95.8202827170     A.U. after   16 cycles
             Convg  =    0.4530D-08             -V/T =  2.0093
 KE= 9.493664193444D+01 PE=-3.068561294122D+02 EE= 7.393018490166D+01
 Leave Link  502 at Mon Sep 21 15:12:03 2020, MaxMem=  671088640 cpu:      13.7
 (Enter /opt/g09gh/gaussian/g09/l601.exe)
 Copying SCF densities to generalized density rwf, IOpCl= 0 IROHF=0.

 **********************************************************************

            Population analysis using the SCF density.

 **********************************************************************

 Orbital symmetries:
       Occupied  (A) (A) (A) (A) (A) (A) (A) (A) (A)
       Virtual   (A) (A) (A) (A) (A) (A) (A) (A) (A) (A) (A) (A)
                 (A) (A) (A) (A) (A) (A) (A) (A) (A) (A) (A) (A)
                 (A) (A) (A) (A) (A) (A) (A)
 The electronic state is 1-A.
 Alpha  occ. eigenvalues --  -14.42200 -10.30540  -0.97025  -0.74821  -0.57184
 Alpha  occ. eigenvalues --   -0.51818  -0.48536  -0.44621  -0.30716
 Alpha virt. eigenvalues --    0.17132   0.23114   0.24032   0.26351   0.27334
 Alpha virt. eigenvalues --    0.32469   0.63973   0.65675   0.67626   0.82793
 Alpha virt. eigenvalues --    0.83996   0.88390   0.96289   1.01703   1.02176
 Alpha virt. eigenvalues --    1.02346   1.07214   1.15449   1.46369   1.61218
 Alpha virt. eigenvalues --    1.63164   2.00761   2.13512   2.14152   2.29567
 Alpha virt. eigenvalues --    2.42089   2.43722   2.54018   2.75499   3.86615
 Alpha virt. eigenvalues --    4.34799
          Condensed to atoms (all electrons):
              1          2          3          4          5          6
     1  N    6.920659   0.302735  -0.055289  -0.036564  -0.036543   0.325625
     2  C    0.302735   4.968883   0.386328   0.389106   0.389150  -0.039846
     3  H   -0.055289   0.386328   0.615580  -0.038454  -0.038440  -0.003992
     4  H   -0.036564   0.389106  -0.038454   0.536811  -0.024266  -0.003846
     5  H   -0.036543   0.389150  -0.038440  -0.024266   0.536620   0.005332
     6  H    0.325625  -0.039846  -0.003992  -0.003846   0.005332   0.438549
     7  H    0.325597  -0.039861  -0.003991   0.005333  -0.003850  -0.032160
              7
     1  N    0.325597
     2  C   -0.039861
     3  H   -0.003991
     4  H    0.005333
     5  H   -0.003850
     6  H   -0.032160
     7  H    0.438688
 Mulliken atomic charges:
              1
     1  N   -0.746220
     2  C   -0.356495
     3  H    0.138259
     4  H    0.171879
     5  H    0.171996
     6  H    0.310337
     7  H    0.310244
 Sum of Mulliken atomic charges =   0.00000
 Mulliken charges with hydrogens summed into heavy atoms:
              1
     1  N   -0.125638
     2  C    0.125638
 Sum of Mulliken charges with hydrogens summed into heavy atoms =   0.00000
 Electronic spatial extent (au):  <R**2>=             93.7550
 Charge=              0.0000 electrons
 Dipole moment (field-independent basis, Debye):
    X=              0.2601    Y=             -0.0007    Z=              1.5399  Tot=              1.5617
 Quadrupole moment (field-independent basis, Debye-Ang):
   XX=            -13.6443   YY=            -12.2844   ZZ=            -15.0585
   XY=              0.0002   XZ=             -2.2735   YZ=              0.0010
 Traceless Quadrupole moment (field-independent basis, Debye-Ang):
   XX=              0.0181   YY=              1.3780   ZZ=             -1.3961
   XY=              0.0002   XZ=             -2.2735   YZ=              0.0010
 Octapole moment (field-independent basis, Debye-Ang**2):
  XXX=             -2.8012  YYY=             -0.0010  ZZZ=              1.7724  XYY=             -1.8331
  XXY=             -0.0010  XXZ=              2.0912  XZZ=              0.4003  YZZ=             -0.0003
  YYZ=              0.3768  XYZ=             -0.0002
 Hexadecapole moment (field-independent basis, Debye-Ang**3):
 XXXX=            -71.8382 YYYY=            -22.2991 ZZZZ=            -23.1972 XXXY=             -0.0012
 XXXZ=             -4.1762 YYYX=              0.0001 YYYZ=              0.0010 ZZZX=             -1.7340
 ZZZY=              0.0017 XXYY=            -13.5181 XXZZ=            -16.6223 YYZZ=             -7.5484
 XXYZ=              0.0013 YYXZ=             -1.9443 ZZXY=             -0.0008
 N-N= 4.216901985908D+01 E-N=-3.068561294517D+02  KE= 9.493664193444D+01
 No NMR shielding tensors so no spin-rotation constants.
 Leave Link  601 at Mon Sep 21 15:12:03 2020, MaxMem=  671088640 cpu:       0.4
 (Enter /opt/g09gh/gaussian/g09/l701.exe)
 Compute integral first derivatives.
 ... and contract with generalized density number  0.
 R6Disp: Adding dispersion energy 1st derivatives to the gradient.
 Leave Link  701 at Mon Sep 21 15:12:03 2020, MaxMem=  671088640 cpu:       0.4
 (Enter /opt/g09gh/gaussian/g09/l702.exe)
 L702 exits ... SP integral derivatives will be done elsewhere.
 Leave Link  702 at Mon Sep 21 15:12:03 2020, MaxMem=  671088640 cpu:       0.1
 (Enter /opt/g09gh/gaussian/g09/l703.exe)
 Compute integral first derivatives, UseDBF=F ICtDFT=           0.
 Integral derivatives from FoFDir, PRISM(SPDF).
 Calling FoFJK, ICntrl=      2127 FMM=F ISym2X=0 I1Cent= 0 IOpClX= 0 NMat=1 NMatS=1 NMatT=0.
 FoFJK:  IHMeth= 1 ICntrl=  2127 DoSepK=T KAlg= 1 I1Cent= 0 FoldK=F
 FoFCou: FMM=F IPFlag=           0 FMFlag=      100000 FMFlg1=         800
         NFxFlg=           0 DoJE=F BraDBF=F KetDBF=F FulRan=T
         Omega=  0.000000  0.000000  1.000000  0.000000  0.000000 ICntrl=    2527 IOpCl=  0
         NMat0=    1 NMatS0=    1 NMatT0=    0 NMatD0=    1 NMtDS0=    0 NMtDT0=    0
         I1Cent=           0 NGrid=           0.
 Symmetry not used in FoFCou.
 Leave Link  703 at Mon Sep 21 15:12:04 2020, MaxMem=  671088640 cpu:       1.5
 (Enter /opt/g09gh/gaussian/g09/l716.exe)
 Dipole        = 1.02334863D-01-2.59147233D-04 6.05848267D-01
 ***** Axes restored to original set *****
 -------------------------------------------------------------------
 Center     Atomic                   Forces (Hartrees/Bohr)
 Number     Number              X              Y              Z
 -------------------------------------------------------------------
      1        7          -0.009996059   -0.000585436   -0.003824769
      2        6          -0.001740000    0.000854230    0.006772927
      3        1           0.010937835    0.000207586    0.002501027
      4        1          -0.000165151   -0.000191773   -0.000924868
      5        1          -0.000093106   -0.000185760   -0.001024159
      6        1           0.000493414   -0.002745992   -0.001441026
      7        1           0.000563066    0.002647145   -0.002059131
 -------------------------------------------------------------------
 Cartesian Forces:  Max     0.010937835 RMS     0.003866175
 Leave Link  716 at Mon Sep 21 15:12:04 2020, MaxMem=  671088640 cpu:       0.1
 (Enter /opt/g09gh/gaussian/g09/l103.exe)

 GradGradGradGradGradGradGradGradGradGradGradGradGradGradGradGradGradGrad
 Berny optimization.
 Internal  Forces:  Max     0.015006131 RMS     0.004597103
 Search for a local minimum.
 Step number   1 out of a maximum of    3
 All quantities printed in internal units (Hartrees-Bohrs-Radians)
 RMS Force = .45971D-02 SwitMx=.10000D-02 MixMth= 1
 Mixed Optimization -- RFO/linear search
 Second derivative matrix not updated -- first step.
     Eigenvalues ---    0.01004   0.04653   0.07472   0.07531   0.16000
     Eigenvalues ---    0.16000   0.16000   0.16000   0.16000   0.34381
     Eigenvalues ---    0.34445   0.34487   0.37984   0.44429   0.44480
     Eigenvalues --- 1000.000001000.000001000.000001000.000001000.00000
     Eigenvalues --- 1000.00000
 RFO step:  Lambda=-2.50235242D-03 EMin= 1.00391544D-02
 Linear search not attempted -- first point.
 Iteration  1 RMS(Cart)=  0.04324315 RMS(Int)=  0.00154955
 Iteration  2 RMS(Cart)=  0.00131826 RMS(Int)=  0.00037109
 Iteration  3 RMS(Cart)=  0.00000078 RMS(Int)=  0.00037109
 Variable       Old X    -DE/DX   Delta X   Delta X   Delta X     New X
                                 (Linear)    (Quad)   (Total)
    R1        2.74388   0.00893   0.00000   0.02336   0.02336   2.76724
    R2        1.92585  -0.00308   0.00000  -0.00688  -0.00688   1.91897
    R3        1.92644  -0.00334   0.00000  -0.00747  -0.00747   1.91897
    R4        2.06691   0.00618   0.00000   0.01784   0.01784   2.08475
    R5        2.06586   0.00030   0.00000   0.00087   0.00087   2.06673
    R6        2.06515   0.00054   0.00000   0.00155   0.00155   2.06670
    A1        1.90959   0.00082   0.00000   0.00625   0.00623   1.91582
    A2        1.90937   0.00085   0.00000   0.00646   0.00645   1.91582
    A3        1.85249  -0.00052   0.00000  -0.00066  -0.00070   1.85180
    A4        1.93021   0.01501   0.00000   0.10255   0.10219   2.03240
    A5        1.92346  -0.00312   0.00000  -0.02425  -0.02494   1.89851
    A6        1.92369  -0.00315   0.00000  -0.02449  -0.02518   1.89851
    A7        1.89659  -0.00425   0.00000  -0.01619  -0.01653   1.88006
    A8        1.89697  -0.00426   0.00000  -0.01643  -0.01675   1.88022
    A9        1.89213  -0.00056   0.00000  -0.02342  -0.02450   1.86764
    D1        1.01091   0.00017   0.00000   0.00334   0.00336   1.01426
    D2       -1.08652  -0.00218   0.00000  -0.02679  -0.02646  -1.11298
    D3        3.10895   0.00248   0.00000   0.03308   0.03276  -3.14148
    D4       -1.01167  -0.00015   0.00000  -0.00303  -0.00303  -1.01470
    D5       -3.10909  -0.00249   0.00000  -0.03316  -0.03285   3.14125
    D6        1.08637   0.00217   0.00000   0.02671   0.02637   1.11274
         Item               Value     Threshold  Converged?
 Maximum Force            0.015006     0.002500     NO 
 RMS     Force            0.004597     0.001667     NO 
 Maximum Displacement     0.162901     0.010000     NO 
 RMS     Displacement     0.042932     0.006667     NO 
 Predicted change in Energy=-1.267314D-03
 GradGradGradGradGradGradGradGradGradGradGradGradGradGradGradGradGradGrad

 Leave Link  103 at Mon Sep 21 15:12:04 2020, MaxMem=  671088640 cpu:       0.0
 (Enter /opt/g09gh/gaussian/g09/l202.exe)
                          Input orientation:                          
 ---------------------------------------------------------------------
 Center     Atomic      Atomic             Coordinates (Angstroms)
 Number     Number       Type             X           Y           Z
 ---------------------------------------------------------------------
      1          7           0       -0.737538   -0.000467   -0.007332
      2          6           0        0.726445    0.002605    0.025828
      3          1           0        1.195204    0.092245    1.020457
      4          1           0        1.090774    0.829988   -0.589649
      5          1           0        1.090869   -0.921314   -0.432035
      6          1           0       -1.092427    0.852242    0.414721
      7          1           0       -1.092327   -0.764300    0.560010
 ---------------------------------------------------------------------
                    Distance matrix (angstroms):
                    1          2          3          4          5
     1  N    0.000000
     2  C    1.464361   0.000000
     3  H    2.190989   1.103202   0.000000
     4  H    2.090808   1.093669   1.774151   0.000000
     5  H    2.090790   1.093650   1.774238   1.758380   0.000000
     6  H    1.015475   2.044850   2.485511   2.403253   2.937563
     7  H    1.015476   2.044853   2.485654   2.937584   2.403155
                    6          7
     6  H    0.000000
     7  H    1.623058   0.000000
 Stoichiometry    CH5N
 Framework group  C1[X(CH5N)]
 Deg. of freedom    15
 Full point group                 C1      NOp   1
 Largest Abelian subgroup         C1      NOp   1
 Largest concise Abelian subgroup C1      NOp   1
                         Standard orientation:                         
 ---------------------------------------------------------------------
 Center     Atomic      Atomic             Coordinates (Angstroms)
 Number     Number       Type             X           Y           Z
 ---------------------------------------------------------------------
      1          7           0        0.751994    0.000008   -0.123601
      2          6           0       -0.705480    0.000013    0.018262
      3          1           0       -1.098828   -0.000304    1.048957
      4          1           0       -1.108870   -0.879061   -0.492243
      5          1           0       -1.108815    0.879319   -0.491849
      6          1           0        1.142705   -0.811574    0.345300
      7          1           0        1.142729    0.811484    0.345468
 ---------------------------------------------------------------------
 Rotational constants (GHZ):    103.2248727     22.7426759     21.8809700
 Leave Link  202 at Mon Sep 21 15:12:04 2020, MaxMem=  671088640 cpu:       0.0
 (Enter /opt/g09gh/gaussian/g09/l301.exe)
 Standard basis: 6-31G(d) (6D, 7F)
 Ernie: Thresh=  0.10000D-02 Tol=  0.10000D-05 Strict=F.
 There are    40 symmetry adapted basis functions of A   symmetry.
 Integral buffers will be    131072 words long.
 Raffenetti 2 integral format.
 Two-electron integral symmetry is turned on.
    40 basis functions,    76 primitive gaussians,    40 cartesian basis functions
     9 alpha electrons        9 beta electrons
       nuclear repulsion energy        41.9469459779 Hartrees.
 IExCor= 4639 DFT=T Ex+Corr=wB97XD ExCW=0 ScaHFX=  1.000000
 ScaDFX=  1.000000  1.000000  1.000000  1.000000 ScalE2=  1.000000  1.000000
 IRadAn=      0 IRanWt=     -1 IRanGd=            0 ICorTp=0
  HFx wShort=  0.000000 wLong=  0.200000 cFull=  0.222036 cShort=  0.000000 cLong=  0.777964
  DFx wShort=  0.000000 wLong=  0.200000 cFull=  0.000000 cShort=  0.000000 cLong=  1.000000
 NAtoms=    7 NActive=    7 NUniq=    7 SFac= 7.50D-01 NAtFMM=   80 NAOKFM=F Big=F
 R6Disp: Dispersion energy =        -0.0013265557 Hartrees.
 Nuclear repulsion after empirical dispersion term =       41.9456194222 Hartrees.
 Leave Link  301 at Mon Sep 21 15:12:04 2020, MaxMem=  671088640 cpu:       0.2
 (Enter /opt/g09gh/gaussian/g09/l302.exe)
 NPDir=0 NMtPBC=     1 NCelOv=     1 NCel=       1 NClECP=     1 NCelD=      1
         NCelK=      1 NCelE2=     1 NClLst=     1 CellRange=     0.0.
 One-electron integrals computed using PRISM.
 NBasis=    40 RedAO= T  NBF=    40
 NBsUse=    40 1.00D-06 NBFU=    40
 Precomputing XC quadrature grid using
 IXCGrd= 2 IRadAn=           0 IRanWt=          -1 IRanGd=           0 AccXCQ= 1.00D-10.
 NRdTot=     431 NPtTot=       54012 NUsed=       57133 NTot=       57165
 NSgBfM=    40    40    40    40    40 NAtAll=     7     7.
 Leave Link  302 at Mon Sep 21 15:12:04 2020, MaxMem=  671088640 cpu:       0.5
 (Enter /opt/g09gh/gaussian/g09/l303.exe)
 DipDrv:  MaxL=1.
 Leave Link  303 at Mon Sep 21 15:12:04 2020, MaxMem=  671088640 cpu:       0.1
 (Enter /opt/g09gh/gaussian/g09/l401.exe)
 Initial guess read from the read-write file.
 B after Tr=     0.000000    0.000000    0.000000
         Rot=    1.000000    0.000000    0.000000    0.000000 Ang=   0.00 deg.
 Guess basis will be translated and rotated to current coordinates.
 Initial guess orbital symmetries:
       Occupied  (A) (A) (A) (A) (A) (A) (A) (A) (A)
       Virtual   (A) (A) (A) (A) (A) (A) (A) (A) (A) (A) (A) (A)
                 (A) (A) (A) (A) (A) (A) (A) (A) (A) (A) (A) (A)
                 (A) (A) (A) (A) (A) (A) (A)
 The electronic state of the initial guess is 1-A.
 Leave Link  401 at Mon Sep 21 15:12:04 2020, MaxMem=  671088640 cpu:       0.3
 (Enter /opt/g09gh/gaussian/g09/l502.exe)
 Closed shell SCF:
 Requested convergence on RMS density matrix=1.00D-08 within 128 cycles.
 Requested convergence on MAX density matrix=1.00D-06.
 Requested convergence on             energy=1.00D-06.
 No special actions if energy rises.
 Using DIIS extrapolation, IDIIS=  1040.
 Integral symmetry usage will be decided dynamically.
        57057 words used for storage of precomputed grid.
 IEnd=       80555 IEndB=       80555 NGot=   671088640 MDV=   671026366
 LenX=   671026366 LenY=   671024325
 Fock matrices will be formed incrementally for  20 cycles.
 Integral accuracy reduced to 1.0D-05 until final iterations.

 Cycle   1  Pass 0  IDiag  1:
 FoFJK:  IHMeth= 1 ICntrl=     0 DoSepK=T KAlg= 1 I1Cent= 0 FoldK=F
 FoFCou: FMM=F IPFlag=           0 FMFlag=      100000 FMFlg1=           0
         NFxFlg=           0 DoJE=T BraDBF=F KetDBF=F FulRan=T
         Omega=  0.000000  0.000000  1.000000  0.000000  0.000000 ICntrl=     500 IOpCl=  0
         NMat0=    1 NMatS0=    1 NMatT0=    0 NMatD0=    1 NMtDS0=    0 NMtDT0=    0
         I1Cent=           0 NGrid=           0.
 Symmetry not used in FoFCou.
 E= -92.2376661487190    
 DIIS: error= 1.34D-01 at cycle   1 NSaved=   1.
 NSaved= 1 IEnMin= 1 EnMin= -92.2376661487190     IErMin= 1 ErrMin= 1.34D-01
 ErrMax= 1.34D-01 EMaxC= 1.00D-01 BMatC= 8.79D-01 BMatP= 8.79D-01
 IDIUse=3 WtCom= 0.00D+00 WtEn= 1.00D+00
 Coeff-Com:  0.100D+01
 Coeff-En:   0.100D+01
 Coeff:      0.100D+01
 Gap=     0.368 Goal=   None    Shift=    0.000
 GapD=    0.368 DampG=1.000 DampE=0.250 DampFc=0.2500 IDamp=-1.
 Damping current iteration by 2.50D-01
 RMSDP=6.71D-02 MaxDP=7.11D-01              OVMax= 9.00D-01

 Cycle   2  Pass 0  IDiag  1:
 RMSU=  7.85D-03    CP:  8.44D-01
 FoFJK:  IHMeth= 1 ICntrl=     0 DoSepK=T KAlg= 1 I1Cent= 0 FoldK=F
 E= -93.0098565058765     Delta-E=       -0.772190357158 Rises=F Damp=T
 DIIS: error= 8.77D-02 at cycle   2 NSaved=   2.
 NSaved= 2 IEnMin= 2 EnMin= -93.0098565058765     IErMin= 2 ErrMin= 8.77D-02
 ErrMax= 8.77D-02 EMaxC= 1.00D-01 BMatC= 4.39D-01 BMatP= 8.79D-01
 IDIUse=3 WtCom= 1.23D-01 WtEn= 8.77D-01
 Coeff-Com: -0.134D+01 0.234D+01
 Coeff-En:   0.000D+00 0.100D+01
 Coeff:     -0.165D+00 0.116D+01
 Gap=     0.387 Goal=   None    Shift=    0.000
 RMSDP=4.99D-02 MaxDP=4.76D-01 DE=-7.72D-01 OVMax= 1.53D-01

 Cycle   3  Pass 0  IDiag  1:
 RMSU=  9.97D-03    CP:  3.59D-01  3.00D+00
 FoFJK:  IHMeth= 1 ICntrl=     0 DoSepK=T KAlg= 1 I1Cent= 0 FoldK=F
 E= -95.7201600302964     Delta-E=       -2.710303524420 Rises=F Damp=F
 DIIS: error= 4.90D-02 at cycle   3 NSaved=   3.
 NSaved= 3 IEnMin= 3 EnMin= -95.7201600302964     IErMin= 3 ErrMin= 4.90D-02
 ErrMax= 4.90D-02 EMaxC= 1.00D-01 BMatC= 9.55D-02 BMatP= 4.39D-01
 IDIUse=3 WtCom= 5.10D-01 WtEn= 4.90D-01
 Coeff-Com:  0.372D+00-0.323D+00 0.952D+00
 Coeff-En:   0.000D+00 0.000D+00 0.100D+01
 Coeff:      0.190D+00-0.165D+00 0.975D+00
 Gap=     0.524 Goal=   None    Shift=    0.000
 RMSDP=1.06D-02 MaxDP=1.16D-01 DE=-2.71D+00 OVMax= 1.28D-01

 Cycle   4  Pass 0  IDiag  1:
 RMSU=  6.32D-03    CP:  3.59D-01  3.00D+00  1.41D+00
 FoFJK:  IHMeth= 1 ICntrl=     0 DoSepK=T KAlg= 1 I1Cent= 0 FoldK=F
 E= -95.7910761088870     Delta-E=       -0.070916078591 Rises=F Damp=F
 DIIS: error= 2.67D-02 at cycle   4 NSaved=   4.
 NSaved= 4 IEnMin= 4 EnMin= -95.7910761088870     IErMin= 4 ErrMin= 2.67D-02
 ErrMax= 2.67D-02 EMaxC= 1.00D-01 BMatC= 3.35D-02 BMatP= 9.55D-02
 IDIUse=3 WtCom= 7.33D-01 WtEn= 2.67D-01
 Coeff-Com:  0.511D-01-0.125D+00 0.390D+00 0.684D+00
 Coeff-En:   0.000D+00 0.000D+00 0.623D-01 0.938D+00
 Coeff:      0.375D-01-0.918D-01 0.303D+00 0.751D+00
 Gap=     0.475 Goal=   None    Shift=    0.000
 RMSDP=4.04D-03 MaxDP=4.95D-02 DE=-7.09D-02 OVMax= 5.91D-02

 Cycle   5  Pass 0  IDiag  1:
 RMSU=  2.31D-03    CP:  3.45D-01  3.00D+00  1.33D+00  8.07D-01
 FoFJK:  IHMeth= 1 ICntrl=     0 DoSepK=T KAlg= 1 I1Cent= 0 FoldK=F
 E= -95.8193308784930     Delta-E=       -0.028254769606 Rises=F Damp=F
 DIIS: error= 7.03D-03 at cycle   5 NSaved=   5.
 NSaved= 5 IEnMin= 5 EnMin= -95.8193308784930     IErMin= 5 ErrMin= 7.03D-03
 ErrMax= 7.03D-03 EMaxC= 1.00D-01 BMatC= 2.17D-03 BMatP= 3.35D-02
 IDIUse=3 WtCom= 9.30D-01 WtEn= 7.03D-02
 Coeff-Com:  0.148D-01-0.316D-01 0.179D-01 0.213D+00 0.786D+00
 Coeff-En:   0.000D+00 0.000D+00 0.000D+00 0.000D+00 0.100D+01
 Coeff:      0.138D-01-0.293D-01 0.167D-01 0.198D+00 0.801D+00
 Gap=     0.487 Goal=   None    Shift=    0.000
 RMSDP=1.27D-03 MaxDP=1.62D-02 DE=-2.83D-02 OVMax= 1.73D-02

 Cycle   6  Pass 0  IDiag  1:
 RMSU=  4.62D-04    CP:  3.45D-01  3.00D+00  1.36D+00  9.16D-01  1.02D+00
 FoFJK:  IHMeth= 1 ICntrl=     0 DoSepK=T KAlg= 1 I1Cent= 0 FoldK=F
 E= -95.8212652076914     Delta-E=       -0.001934329198 Rises=F Damp=F
 DIIS: error= 1.68D-03 at cycle   6 NSaved=   6.
 NSaved= 6 IEnMin= 6 EnMin= -95.8212652076914     IErMin= 6 ErrMin= 1.68D-03
 ErrMax= 1.68D-03 EMaxC= 1.00D-01 BMatC= 1.42D-04 BMatP= 2.17D-03
 IDIUse=3 WtCom= 9.83D-01 WtEn= 1.68D-02
 Coeff-Com: -0.235D-02 0.383D-02-0.340D-01-0.467D-03 0.302D+00 0.731D+00
 Coeff-En:   0.000D+00 0.000D+00 0.000D+00 0.000D+00 0.000D+00 0.100D+01
 Coeff:     -0.231D-02 0.377D-02-0.334D-01-0.459D-03 0.297D+00 0.736D+00
 Gap=     0.485 Goal=   None    Shift=    0.000
 RMSDP=4.26D-04 MaxDP=3.81D-03 DE=-1.93D-03 OVMax= 4.55D-03

 Cycle   7  Pass 0  IDiag  1:
 RMSU=  1.68D-04    CP:  3.44D-01  3.00D+00  1.37D+00  9.37D-01  1.11D+00
                    CP:  9.80D-01
 FoFJK:  IHMeth= 1 ICntrl=     0 DoSepK=T KAlg= 1 I1Cent= 0 FoldK=F
 E= -95.8214223212417     Delta-E=       -0.000157113550 Rises=F Damp=F
 DIIS: error= 2.78D-04 at cycle   7 NSaved=   7.
 NSaved= 7 IEnMin= 7 EnMin= -95.8214223212417     IErMin= 7 ErrMin= 2.78D-04
 ErrMax= 2.78D-04 EMaxC= 1.00D-01 BMatC= 3.74D-06 BMatP= 1.42D-04
 IDIUse=3 WtCom= 9.97D-01 WtEn= 2.78D-03
 Coeff-Com: -0.439D-03 0.154D-02-0.369D-02-0.181D-01-0.340D-01 0.806D-01
 Coeff-Com:  0.974D+00
 Coeff-En:   0.000D+00 0.000D+00 0.000D+00 0.000D+00 0.000D+00 0.000D+00
 Coeff-En:   0.100D+01
 Coeff:     -0.438D-03 0.154D-02-0.368D-02-0.180D-01-0.340D-01 0.804D-01
 Coeff:      0.974D+00
 Gap=     0.485 Goal=   None    Shift=    0.000
 RMSDP=1.94D-04 MaxDP=2.23D-03 DE=-1.57D-04 OVMax= 2.48D-03

 Cycle   8  Pass 0  IDiag  1:
 RMSU=  3.87D-05    CP:  3.44D-01  3.00D+00  1.37D+00  9.47D-01  1.14D+00
                    CP:  1.13D+00  1.32D+00
 FoFJK:  IHMeth= 1 ICntrl=     0 DoSepK=T KAlg= 1 I1Cent= 0 FoldK=F
 E= -95.8214327684162     Delta-E=       -0.000010447174 Rises=F Damp=F
 DIIS: error= 7.41D-05 at cycle   8 NSaved=   8.
 NSaved= 8 IEnMin= 8 EnMin= -95.8214327684162     IErMin= 8 ErrMin= 7.41D-05
 ErrMax= 7.41D-05 EMaxC= 1.00D-01 BMatC= 1.91D-07 BMatP= 3.74D-06
 IDIUse=1 WtCom= 1.00D+00 WtEn= 0.00D+00
 Coeff-Com:  0.277D-03-0.447D-03 0.163D-02 0.202D-02-0.850D-02-0.547D-01
 Coeff-Com: -0.162D+00 0.122D+01
 Coeff:      0.277D-03-0.447D-03 0.163D-02 0.202D-02-0.850D-02-0.547D-01
 Coeff:     -0.162D+00 0.122D+01
 Gap=     0.485 Goal=   None    Shift=    0.000
 RMSDP=7.63D-05 MaxDP=9.71D-04 DE=-1.04D-05 OVMax= 1.02D-03

 Cycle   9  Pass 0  IDiag  1:
 RMSU=  8.25D-06    CP:  3.43D-01  3.00D+00  1.37D+00  9.51D-01  1.14D+00
                    CP:  1.18D+00  1.51D+00  1.46D+00
 FoFJK:  IHMeth= 1 ICntrl=     0 DoSepK=T KAlg= 1 I1Cent= 0 FoldK=F
 E= -95.8214336970037     Delta-E=       -0.000000928587 Rises=F Damp=F
 DIIS: error= 1.37D-05 at cycle   9 NSaved=   9.
 NSaved= 9 IEnMin= 9 EnMin= -95.8214336970037     IErMin= 9 ErrMin= 1.37D-05
 ErrMax= 1.37D-05 EMaxC= 1.00D-01 BMatC= 6.49D-09 BMatP= 1.91D-07
 IDIUse=1 WtCom= 1.00D+00 WtEn= 0.00D+00
 Coeff-Com:  0.597D-04-0.116D-03 0.366D-04 0.846D-03 0.327D-02 0.196D-03
 Coeff-Com: -0.403D-01-0.488D-01 0.108D+01
 Coeff:      0.597D-04-0.116D-03 0.366D-04 0.846D-03 0.327D-02 0.196D-03
 Coeff:     -0.403D-01-0.488D-01 0.108D+01
 Gap=     0.485 Goal=   None    Shift=    0.000
 RMSDP=1.27D-05 MaxDP=1.51D-04 DE=-9.29D-07 OVMax= 1.66D-04

 Cycle  10  Pass 0  IDiag  1:
 RMSU=  1.11D-06    CP:  3.43D-01  3.00D+00  1.37D+00  9.51D-01  1.15D+00
                    CP:  1.18D+00  1.55D+00  1.58D+00  1.29D+00
 FoFJK:  IHMeth= 1 ICntrl=     0 DoSepK=T KAlg= 1 I1Cent= 0 FoldK=F
 E= -95.8214337171894     Delta-E=       -0.000000020186 Rises=F Damp=F
 DIIS: error= 3.45D-06 at cycle  10 NSaved=  10.
 NSaved=10 IEnMin=10 EnMin= -95.8214337171894     IErMin=10 ErrMin= 3.45D-06
 ErrMax= 3.45D-06 EMaxC= 1.00D-01 BMatC= 2.98D-10 BMatP= 6.49D-09
 IDIUse=1 WtCom= 1.00D+00 WtEn= 0.00D+00
 Coeff-Com: -0.765D-05 0.126D-04-0.593D-04-0.750D-04 0.333D-03 0.197D-02
 Coeff-Com:  0.450D-02-0.506D-01-0.347D-01 0.108D+01
 Coeff:     -0.765D-05 0.126D-04-0.593D-04-0.750D-04 0.333D-03 0.197D-02
 Coeff:      0.450D-02-0.506D-01-0.347D-01 0.108D+01
 Gap=     0.485 Goal=   None    Shift=    0.000
 RMSDP=2.71D-06 MaxDP=3.34D-05 DE=-2.02D-08 OVMax= 3.56D-05

 Initial convergence to 1.0D-05 achieved.  Increase integral accuracy.
 Cycle  11  Pass 1  IDiag  1:
 FoFJK:  IHMeth= 1 ICntrl=     0 DoSepK=T KAlg= 1 I1Cent= 0 FoldK=F
 E= -95.8212419689211     Delta-E=        0.000191748268 Rises=F Damp=F
 DIIS: error= 1.22D-04 at cycle   1 NSaved=   1.
 NSaved= 1 IEnMin= 1 EnMin= -95.8212419689211     IErMin= 1 ErrMin= 1.22D-04
 ErrMax= 1.22D-04 EMaxC= 1.00D-01 BMatC= 7.15D-07 BMatP= 7.15D-07
 IDIUse=3 WtCom= 9.99D-01 WtEn= 1.22D-03
 Coeff-Com:  0.100D+01
 Coeff-En:   0.100D+01
 Coeff:      0.100D+01
 Gap=     0.485 Goal=   None    Shift=    0.000
 RMSDP=2.71D-06 MaxDP=3.34D-05 DE= 1.92D-04 OVMax= 1.93D-04

 Cycle  12  Pass 1  IDiag  1:
 RMSU=  1.07D-05    CP:  1.00D+00
 FoFJK:  IHMeth= 1 ICntrl=     0 DoSepK=T KAlg= 1 I1Cent= 0 FoldK=F
 E= -95.8212425015368     Delta-E=       -0.000000532616 Rises=F Damp=F
 DIIS: error= 1.60D-05 at cycle   2 NSaved=   2.
 NSaved= 2 IEnMin= 2 EnMin= -95.8212425015368     IErMin= 2 ErrMin= 1.60D-05
 ErrMax= 1.60D-05 EMaxC= 1.00D-01 BMatC= 7.98D-09 BMatP= 7.15D-07
 IDIUse=1 WtCom= 1.00D+00 WtEn= 0.00D+00
 Coeff-Com: -0.662D-01 0.107D+01
 Coeff:     -0.662D-01 0.107D+01
 Gap=     0.485 Goal=   None    Shift=    0.000
 RMSDP=3.33D-06 MaxDP=2.35D-05 DE=-5.33D-07 OVMax= 4.72D-05

 Cycle  13  Pass 1  IDiag  1:
 RMSU=  2.11D-06    CP:  1.00D+00  1.10D+00
 FoFJK:  IHMeth= 1 ICntrl=     0 DoSepK=T KAlg= 1 I1Cent= 0 FoldK=F
 E= -95.8212425129878     Delta-E=       -0.000000011451 Rises=F Damp=F
 DIIS: error= 4.34D-06 at cycle   3 NSaved=   3.
 NSaved= 3 IEnMin= 3 EnMin= -95.8212425129878     IErMin= 3 ErrMin= 4.34D-06
 ErrMax= 4.34D-06 EMaxC= 1.00D-01 BMatC= 7.47D-10 BMatP= 7.98D-09
 IDIUse=1 WtCom= 1.00D+00 WtEn= 0.00D+00
 Coeff-Com: -0.151D-01 0.159D+00 0.856D+00
 Coeff:     -0.151D-01 0.159D+00 0.856D+00
 Gap=     0.485 Goal=   None    Shift=    0.000
 RMSDP=8.12D-07 MaxDP=1.07D-05 DE=-1.15D-08 OVMax= 1.06D-05

 Cycle  14  Pass 1  IDiag  1:
 RMSU=  5.68D-07    CP:  1.00D+00  1.10D+00  1.03D+00
 FoFJK:  IHMeth= 1 ICntrl=     0 DoSepK=T KAlg= 1 I1Cent= 0 FoldK=F
 E= -95.8212425136344     Delta-E=       -0.000000000647 Rises=F Damp=F
 DIIS: error= 2.30D-06 at cycle   4 NSaved=   4.
 NSaved= 4 IEnMin= 4 EnMin= -95.8212425136344     IErMin= 4 ErrMin= 2.30D-06
 ErrMax= 2.30D-06 EMaxC= 1.00D-01 BMatC= 2.59D-10 BMatP= 7.47D-10
 IDIUse=1 WtCom= 1.00D+00 WtEn= 0.00D+00
 Coeff-Com: -0.313D-03-0.433D-01 0.356D+00 0.688D+00
 Coeff:     -0.313D-03-0.433D-01 0.356D+00 0.688D+00
 Gap=     0.485 Goal=   None    Shift=    0.000
 RMSDP=3.82D-07 MaxDP=3.62D-06 DE=-6.47D-10 OVMax= 4.35D-06

 Cycle  15  Pass 1  IDiag  1:
 RMSU=  1.40D-07    CP:  1.00D+00  1.10D+00  1.13D+00  8.51D-01
 FoFJK:  IHMeth= 1 ICntrl=     0 DoSepK=T KAlg= 1 I1Cent= 0 FoldK=F
 E= -95.8212425138702     Delta-E=       -0.000000000236 Rises=F Damp=F
 DIIS: error= 2.43D-07 at cycle   5 NSaved=   5.
 NSaved= 5 IEnMin= 5 EnMin= -95.8212425138702     IErMin= 5 ErrMin= 2.43D-07
 ErrMax= 2.43D-07 EMaxC= 1.00D-01 BMatC= 5.02D-12 BMatP= 2.59D-10
 IDIUse=1 WtCom= 1.00D+00 WtEn= 0.00D+00
 Coeff-Com:  0.919D-03-0.184D-01 0.455D-02 0.974D-01 0.916D+00
 Coeff:      0.919D-03-0.184D-01 0.455D-02 0.974D-01 0.916D+00
 Gap=     0.485 Goal=   None    Shift=    0.000
 RMSDP=1.13D-07 MaxDP=1.10D-06 DE=-2.36D-10 OVMax= 1.23D-06

 Cycle  16  Pass 1  IDiag  1:
 RMSU=  4.62D-08    CP:  1.00D+00  1.10D+00  1.15D+00  9.24D-01  1.17D+00
 FoFJK:  IHMeth= 1 ICntrl=     0 DoSepK=T KAlg= 1 I1Cent= 0 FoldK=F
 E= -95.8212425138769     Delta-E=       -0.000000000007 Rises=F Damp=F
 DIIS: error= 1.60D-07 at cycle   6 NSaved=   6.
 NSaved= 6 IEnMin= 6 EnMin= -95.8212425138769     IErMin= 6 ErrMin= 1.60D-07
 ErrMax= 1.60D-07 EMaxC= 1.00D-01 BMatC= 9.70D-13 BMatP= 5.02D-12
 IDIUse=1 WtCom= 1.00D+00 WtEn= 0.00D+00
 Coeff-Com:  0.403D-03-0.308D-02-0.221D-01-0.169D-01 0.331D+00 0.710D+00
 Coeff:      0.403D-03-0.308D-02-0.221D-01-0.169D-01 0.331D+00 0.710D+00
 Gap=     0.485 Goal=   None    Shift=    0.000
 RMSDP=3.29D-08 MaxDP=3.07D-07 DE=-6.71D-12 OVMax= 3.18D-07

 Cycle  17  Pass 1  IDiag  1:
 RMSU=  1.42D-08    CP:  1.00D+00  1.10D+00  1.15D+00  9.40D-01  1.27D+00
                    CP:  1.00D+00
 FoFJK:  IHMeth= 1 ICntrl=     0 DoSepK=T KAlg= 1 I1Cent= 0 FoldK=F
 E= -95.8212425138779     Delta-E=       -0.000000000001 Rises=F Damp=F
 DIIS: error= 3.01D-08 at cycle   7 NSaved=   7.
 NSaved= 7 IEnMin= 7 EnMin= -95.8212425138779     IErMin= 7 ErrMin= 3.01D-08
 ErrMax= 3.01D-08 EMaxC= 1.00D-01 BMatC= 2.90D-14 BMatP= 9.70D-13
 IDIUse=1 WtCom= 1.00D+00 WtEn= 0.00D+00
 Coeff-Com: -0.296D-04 0.105D-02-0.356D-02-0.125D-01-0.307D-01 0.846D-01
 Coeff-Com:  0.961D+00
 Coeff:     -0.296D-04 0.105D-02-0.356D-02-0.125D-01-0.307D-01 0.846D-01
 Coeff:      0.961D+00
 Gap=     0.485 Goal=   None    Shift=    0.000
 RMSDP=1.49D-08 MaxDP=1.75D-07 DE=-1.02D-12 OVMax= 1.73D-07

 Cycle  18  Pass 1  IDiag  1:
 RMSU=  2.77D-09    CP:  1.00D+00  1.10D+00  1.15D+00  9.46D-01  1.31D+00
                    CP:  1.14D+00  1.23D+00
 FoFJK:  IHMeth= 1 ICntrl=     0 DoSepK=T KAlg= 1 I1Cent= 0 FoldK=F
 E= -95.8212425138778     Delta-E=        0.000000000000 Rises=F Damp=F
 DIIS: error= 5.39D-09 at cycle   8 NSaved=   8.
 NSaved= 8 IEnMin= 7 EnMin= -95.8212425138779     IErMin= 8 ErrMin= 5.39D-09
 ErrMax= 5.39D-09 EMaxC= 1.00D-01 BMatC= 1.10D-15 BMatP= 2.90D-14
 IDIUse=1 WtCom= 1.00D+00 WtEn= 0.00D+00
 Coeff-Com: -0.148D-04 0.816D-04 0.112D-02 0.130D-02-0.108D-01-0.410D-01
 Coeff-Com: -0.421D-01 0.109D+01
 Coeff:     -0.148D-04 0.816D-04 0.112D-02 0.130D-02-0.108D-01-0.410D-01
 Coeff:     -0.421D-01 0.109D+01
 Gap=     0.485 Goal=   None    Shift=    0.000
 RMSDP=5.20D-09 MaxDP=6.46D-08 DE= 5.68D-14 OVMax= 6.29D-08

 SCF Done:  E(RwB97XD) =  -95.8212425139     A.U. after   18 cycles
             Convg  =    0.5195D-08             -V/T =  2.0096
 KE= 9.490577524561D+01 PE=-3.063824466046D+02 EE= 7.370980942288D+01
 Leave Link  502 at Mon Sep 21 15:12:08 2020, MaxMem=  671088640 cpu:      14.8
 (Enter /opt/g09gh/gaussian/g09/l701.exe)
 Compute integral first derivatives.
 ... and contract with generalized density number  0.
 R6Disp: Adding dispersion energy 1st derivatives to the gradient.
 Leave Link  701 at Mon Sep 21 15:12:08 2020, MaxMem=  671088640 cpu:       0.4
 (Enter /opt/g09gh/gaussian/g09/l702.exe)
 L702 exits ... SP integral derivatives will be done elsewhere.
 Leave Link  702 at Mon Sep 21 15:12:08 2020, MaxMem=  671088640 cpu:       0.1
 (Enter /opt/g09gh/gaussian/g09/l703.exe)
 Compute integral first derivatives, UseDBF=F ICtDFT=           0.
 Integral derivatives from FoFDir, PRISM(SPDF).
 Calling FoFJK, ICntrl=      2127 FMM=F ISym2X=0 I1Cent= 0 IOpClX= 0 NMat=1 NMatS=1 NMatT=0.
 FoFJK:  IHMeth= 1 ICntrl=  2127 DoSepK=T KAlg= 1 I1Cent= 0 FoldK=F
 FoFCou: FMM=F IPFlag=           0 FMFlag=      100000 FMFlg1=         800
         NFxFlg=           0 DoJE=F BraDBF=F KetDBF=F FulRan=T
         Omega=  0.000000  0.000000  1.000000  0.000000  0.000000 ICntrl=    2527 IOpCl=  0
         NMat0=    1 NMatS0=    1 NMatT0=    0 NMatD0=    1 NMtDS0=    0 NMtDT0=    0
         I1Cent=           0 NGrid=           0.
 Symmetry not used in FoFCou.
 Leave Link  703 at Mon Sep 21 15:12:08 2020, MaxMem=  671088640 cpu:       1.5
 (Enter /opt/g09gh/gaussian/g09/l716.exe)
 Dipole        =-9.05641880D-02-5.64564102D-05 5.89309447D-01
 ***** Axes restored to original set *****
 -------------------------------------------------------------------
 Center     Atomic                   Forces (Hartrees/Bohr)
 Number     Number              X              Y              Z
 -------------------------------------------------------------------
      1        7           0.003482154    0.000118104    0.001329099
      2        6          -0.002518757   -0.000151705   -0.001898157
      3        1          -0.001697781    0.000030115    0.000441882
      4        1           0.000395487    0.000527613   -0.000101573
      5        1           0.000403719   -0.000546376   -0.000001455
      6        1          -0.000033098    0.000373384    0.000082112
      7        1          -0.000031723   -0.000351135    0.000148093
 -------------------------------------------------------------------
 Cartesian Forces:  Max     0.003482154 RMS     0.001157887
 Leave Link  716 at Mon Sep 21 15:12:08 2020, MaxMem=  671088640 cpu:       0.1
 (Enter /opt/g09gh/gaussian/g09/l103.exe)

 GradGradGradGradGradGradGradGradGradGradGradGradGradGradGradGradGradGrad
 Berny optimization.
 Using GEDIIS/GDIIS optimizer.
 Internal  Forces:  Max     0.003456739 RMS     0.001079536
 Search for a local minimum.
 Step number   2 out of a maximum of    3
 All quantities printed in internal units (Hartrees-Bohrs-Radians)
 RMS Force = .10795D-02 SwitMx=.10000D-02 MixMth= 1
 Mixed Optimization -- RFO/linear search
 Update second derivatives using D2CorX and points    1    2
 DE= -9.60D-04 DEPred=-1.27D-03 R= 7.57D-01
 SS=  1.41D+00  RLast= 1.32D-01 DXNew= 5.0454D-01 3.9654D-01
 Trust test= 7.57D-01 RLast= 1.32D-01 DXMaxT set to 3.97D-01
 Use linear search instead of GDIIS.
     Eigenvalues ---    0.01004   0.04576   0.06791   0.07989   0.16000
     Eigenvalues ---    0.16000   0.16000   0.16000   0.17856   0.34128
     Eigenvalues ---    0.34462   0.34543   0.40160   0.44447   0.44548
     Eigenvalues --- 1000.000001000.000001000.000001000.000001000.00000
     Eigenvalues --- 1000.00000
 RFO step:  Lambda=-9.57818269D-06 EMin= 1.00391540D-02
 Quartic linear search produced a step of -0.17915.
 Iteration  1 RMS(Cart)=  0.00753171 RMS(Int)=  0.00006639
 Iteration  2 RMS(Cart)=  0.00003925 RMS(Int)=  0.00005274
 Iteration  3 RMS(Cart)=  0.00000000 RMS(Int)=  0.00005274
 Variable       Old X    -DE/DX   Delta X   Delta X   Delta X     New X
                                 (Linear)    (Quad)   (Total)
    R1        2.76724  -0.00346  -0.00418  -0.00329  -0.00748   2.75976
    R2        1.91897   0.00036   0.00123  -0.00056   0.00067   1.91964
    R3        1.91897   0.00036   0.00134  -0.00067   0.00067   1.91964
    R4        2.08475  -0.00032  -0.00320   0.00241  -0.00079   2.08396
    R5        2.06673   0.00059  -0.00016   0.00156   0.00140   2.06814
    R6        2.06670   0.00060  -0.00028   0.00170   0.00142   2.06812
    A1        1.91582  -0.00013  -0.00112   0.00048  -0.00063   1.91519
    A2        1.91582  -0.00013  -0.00115   0.00051  -0.00064   1.91518
    A3        1.85180   0.00014   0.00012   0.00071   0.00084   1.85264
    A4        2.03240  -0.00286  -0.01831   0.00101  -0.01724   2.01516
    A5        1.89851   0.00085   0.00447   0.00100   0.00557   1.90408
    A6        1.89851   0.00085   0.00451   0.00095   0.00556   1.90407
    A7        1.88006   0.00067   0.00296  -0.00135   0.00167   1.88174
    A8        1.88022   0.00066   0.00300  -0.00149   0.00156   1.88178
    A9        1.86764   0.00001   0.00439  -0.00025   0.00429   1.87193
    D1        1.01426   0.00002  -0.00060   0.00083   0.00023   1.01449
    D2       -1.11298   0.00048   0.00474   0.00110   0.00580  -1.10718
    D3       -3.14148  -0.00046  -0.00587   0.00033  -0.00550   3.13621
    D4       -1.01470  -0.00001   0.00054  -0.00060  -0.00006  -1.01476
    D5        3.14125   0.00046   0.00588  -0.00033   0.00551  -3.13643
    D6        1.11274  -0.00048  -0.00472  -0.00110  -0.00578   1.10696
         Item               Value     Threshold  Converged?
 Maximum Force            0.003457     0.002500     NO 
 RMS     Force            0.001080     0.001667     YES
 Maximum Displacement     0.027769     0.010000     NO 
 RMS     Displacement     0.007547     0.006667     NO 
 Predicted change in Energy=-4.708550D-05
 GradGradGradGradGradGradGradGradGradGradGradGradGradGradGradGradGradGrad

 Leave Link  103 at Mon Sep 21 15:12:08 2020, MaxMem=  671088640 cpu:       0.0
 (Enter /opt/g09gh/gaussian/g09/l202.exe)
                          Input orientation:                          
 ---------------------------------------------------------------------
 Center     Atomic      Atomic             Coordinates (Angstroms)
 Number     Number       Type             X           Y           Z
 ---------------------------------------------------------------------
      1          7           0       -0.735241   -0.000367   -0.006211
      2          6           0        0.724914    0.002155    0.020654
      3          1           0        1.180509    0.092240    1.020880
      4          1           0        1.092829    0.831893   -0.590829
      5          1           0        1.092938   -0.923382   -0.432841
      6          1           0       -1.087538    0.853036    0.417462
      7          1           0       -1.087412   -0.764576    0.562884
 ---------------------------------------------------------------------
                    Distance matrix (angstroms):
                    1          2          3          4          5
     1  N    0.000000
     2  C    1.460404   0.000000
     3  H    2.175681   1.102785   0.000000
     4  H    2.091954   1.094412   1.775495   0.000000
     5  H    2.091939   1.094403   1.775518   1.762370   0.000000
     6  H    1.015828   2.041185   2.467176   2.402311   2.938222
     7  H    1.015829   2.041179   2.467257   2.938233   2.402209
                    6          7
     6  H    0.000000
     7  H    1.624135   0.000000
 Stoichiometry    CH5N
 Framework group  C1[X(CH5N)]
 Deg. of freedom    15
 Full point group                 C1      NOp   1
 Largest Abelian subgroup         C1      NOp   1
 Largest concise Abelian subgroup C1      NOp   1
                         Standard orientation:                         
 ---------------------------------------------------------------------
 Center     Atomic      Atomic             Coordinates (Angstroms)
 Number     Number       Type             X           Y           Z
 ---------------------------------------------------------------------
      1          7           0        0.749598    0.000001   -0.124965
      2          6           0       -0.703842    0.000004    0.017478
      3          1           0       -1.078538   -0.000156    1.054655
      4          1           0       -1.112986   -0.881109   -0.486486
      5          1           0       -1.112943    0.881261   -0.486248
      6          1           0        1.140166   -0.812079    0.343959
      7          1           0        1.140166    0.812056    0.344005
 ---------------------------------------------------------------------
 Rotational constants (GHZ):    102.9887862     22.8586660     21.9821372
 Leave Link  202 at Mon Sep 21 15:12:08 2020, MaxMem=  671088640 cpu:       0.0
 (Enter /opt/g09gh/gaussian/g09/l301.exe)
 Standard basis: 6-31G(d) (6D, 7F)
 Ernie: Thresh=  0.10000D-02 Tol=  0.10000D-05 Strict=F.
 There are    40 symmetry adapted basis functions of A   symmetry.
 Integral buffers will be    131072 words long.
 Raffenetti 2 integral format.
 Two-electron integral symmetry is turned on.
    40 basis functions,    76 primitive gaussians,    40 cartesian basis functions
     9 alpha electrons        9 beta electrons
       nuclear repulsion energy        42.0001170698 Hartrees.
 IExCor= 4639 DFT=T Ex+Corr=wB97XD ExCW=0 ScaHFX=  1.000000
 ScaDFX=  1.000000  1.000000  1.000000  1.000000 ScalE2=  1.000000  1.000000
 IRadAn=      0 IRanWt=     -1 IRanGd=            0 ICorTp=0
  HFx wShort=  0.000000 wLong=  0.200000 cFull=  0.222036 cShort=  0.000000 cLong=  0.777964
  DFx wShort=  0.000000 wLong=  0.200000 cFull=  0.000000 cShort=  0.000000 cLong=  1.000000
 NAtoms=    7 NActive=    7 NUniq=    7 SFac= 7.50D-01 NAtFMM=   80 NAOKFM=F Big=F
 R6Disp: Dispersion energy =        -0.0013295819 Hartrees.
 Nuclear repulsion after empirical dispersion term =       41.9987874879 Hartrees.
 Leave Link  301 at Mon Sep 21 15:12:09 2020, MaxMem=  671088640 cpu:       0.2
 (Enter /opt/g09gh/gaussian/g09/l302.exe)
 NPDir=0 NMtPBC=     1 NCelOv=     1 NCel=       1 NClECP=     1 NCelD=      1
         NCelK=      1 NCelE2=     1 NClLst=     1 CellRange=     0.0.
 One-electron integrals computed using PRISM.
 NBasis=    40 RedAO= T  NBF=    40
 NBsUse=    40 1.00D-06 NBFU=    40
 Precomputing XC quadrature grid using
 IXCGrd= 2 IRadAn=           0 IRanWt=          -1 IRanGd=           0 AccXCQ= 1.00D-10.
 NRdTot=     431 NPtTot=       54012 NUsed=       57133 NTot=       57165
 NSgBfM=    40    40    40    40    40 NAtAll=     7     7.
 Leave Link  302 at Mon Sep 21 15:12:09 2020, MaxMem=  671088640 cpu:       0.5
 (Enter /opt/g09gh/gaussian/g09/l303.exe)
 DipDrv:  MaxL=1.
 Leave Link  303 at Mon Sep 21 15:12:09 2020, MaxMem=  671088640 cpu:       0.1
 (Enter /opt/g09gh/gaussian/g09/l401.exe)
 Initial guess read from the read-write file.
 B after Tr=     0.000000    0.000000    0.000000
         Rot=    1.000000    0.000000    0.000000    0.000000 Ang=   0.00 deg.
 Guess basis will be translated and rotated to current coordinates.
 Initial guess orbital symmetries:
       Occupied  (A) (A) (A) (A) (A) (A) (A) (A) (A)
       Virtual   (A) (A) (A) (A) (A) (A) (A) (A) (A) (A) (A) (A)
                 (A) (A) (A) (A) (A) (A) (A) (A) (A) (A) (A) (A)
                 (A) (A) (A) (A) (A) (A) (A)
 The electronic state of the initial guess is 1-A.
 Leave Link  401 at Mon Sep 21 15:12:09 2020, MaxMem=  671088640 cpu:       0.3
 (Enter /opt/g09gh/gaussian/g09/l502.exe)
 Closed shell SCF:
 Requested convergence on RMS density matrix=1.00D-08 within 128 cycles.
 Requested convergence on MAX density matrix=1.00D-06.
 Requested convergence on             energy=1.00D-06.
 No special actions if energy rises.
 Using DIIS extrapolation, IDIIS=  1040.
 Integral symmetry usage will be decided dynamically.
        57057 words used for storage of precomputed grid.
 IEnd=       80555 IEndB=       80555 NGot=   671088640 MDV=   671026366
 LenX=   671026366 LenY=   671024325
 Fock matrices will be formed incrementally for  20 cycles.
 Integral accuracy reduced to 1.0D-05 until final iterations.

 Cycle   1  Pass 0  IDiag  1:
 FoFJK:  IHMeth= 1 ICntrl=     0 DoSepK=T KAlg= 1 I1Cent= 0 FoldK=F
 FoFCou: FMM=F IPFlag=           0 FMFlag=      100000 FMFlg1=           0
         NFxFlg=           0 DoJE=T BraDBF=F KetDBF=F FulRan=T
         Omega=  0.000000  0.000000  1.000000  0.000000  0.000000 ICntrl=     500 IOpCl=  0
         NMat0=    1 NMatS0=    1 NMatT0=    0 NMatD0=    1 NMtDS0=    0 NMtDT0=    0
         I1Cent=           0 NGrid=           0.
 Symmetry not used in FoFCou.
 E= -95.8214631061454    
 DIIS: error= 6.59D-04 at cycle   1 NSaved=   1.
 NSaved= 1 IEnMin= 1 EnMin= -95.8214631061454     IErMin= 1 ErrMin= 6.59D-04
 ErrMax= 6.59D-04 EMaxC= 1.00D-01 BMatC= 1.83D-05 BMatP= 1.83D-05
 IDIUse=3 WtCom= 9.93D-01 WtEn= 6.59D-03
 Coeff-Com:  0.100D+01
 Coeff-En:   0.100D+01
 Coeff:      0.100D+01
 Gap=     0.484 Goal=   None    Shift=    0.000
 RMSDP=1.34D-04 MaxDP=1.27D-03              OVMax= 2.10D-03

 Cycle   2  Pass 0  IDiag  1:
 RMSU=  9.49D-05    CP:  1.00D+00
 FoFJK:  IHMeth= 1 ICntrl=     0 DoSepK=T KAlg= 1 I1Cent= 0 FoldK=F
 E= -95.8214926578600     Delta-E=       -0.000029551715 Rises=F Damp=F
 DIIS: error= 1.60D-04 at cycle   2 NSaved=   2.
 NSaved= 2 IEnMin= 2 EnMin= -95.8214926578600     IErMin= 2 ErrMin= 1.60D-04
 ErrMax= 1.60D-04 EMaxC= 1.00D-01 BMatC= 7.66D-07 BMatP= 1.83D-05
 IDIUse=3 WtCom= 9.98D-01 WtEn= 1.60D-03
 Coeff-Com: -0.906D-01 0.109D+01
 Coeff-En:   0.000D+00 0.100D+01
 Coeff:     -0.905D-01 0.109D+01
 Gap=     0.484 Goal=   None    Shift=    0.000
 RMSDP=3.84D-05 MaxDP=2.92D-04 DE=-2.96D-05 OVMax= 5.06D-04

 Cycle   3  Pass 0  IDiag  1:
 RMSU=  1.73D-05    CP:  1.00D+00  1.22D+00
 FoFJK:  IHMeth= 1 ICntrl=     0 DoSepK=T KAlg= 1 I1Cent= 0 FoldK=F
 E= -95.8214942355570     Delta-E=       -0.000001577697 Rises=F Damp=F
 DIIS: error= 3.80D-05 at cycle   3 NSaved=   3.
 NSaved= 3 IEnMin= 3 EnMin= -95.8214942355570     IErMin= 3 ErrMin= 3.80D-05
 ErrMax= 3.80D-05 EMaxC= 1.00D-01 BMatC= 7.96D-08 BMatP= 7.66D-07
 IDIUse=1 WtCom= 1.00D+00 WtEn= 0.00D+00
 Coeff-Com: -0.485D-01 0.168D+00 0.881D+00
 Coeff:     -0.485D-01 0.168D+00 0.881D+00
 Gap=     0.484 Goal=   None    Shift=    0.000
 RMSDP=1.20D-05 MaxDP=8.15D-05 DE=-1.58D-06 OVMax= 1.50D-04

 Cycle   4  Pass 0  IDiag  1:
 RMSU=  6.38D-06    CP:  1.00D+00  1.27D+00  1.11D+00
 FoFJK:  IHMeth= 1 ICntrl=     0 DoSepK=T KAlg= 1 I1Cent= 0 FoldK=F
 E= -95.8214943414424     Delta-E=       -0.000000105885 Rises=F Damp=F
 DIIS: error= 1.56D-05 at cycle   4 NSaved=   4.
 NSaved= 4 IEnMin= 4 EnMin= -95.8214943414424     IErMin= 4 ErrMin= 1.56D-05
 ErrMax= 1.56D-05 EMaxC= 1.00D-01 BMatC= 1.54D-08 BMatP= 7.96D-08
 IDIUse=1 WtCom= 1.00D+00 WtEn= 0.00D+00
 Coeff-Com: -0.109D-01-0.563D-02 0.311D+00 0.705D+00
 Coeff:     -0.109D-01-0.563D-02 0.311D+00 0.705D+00
 Gap=     0.484 Goal=   None    Shift=    0.000
 RMSDP=4.18D-06 MaxDP=3.23D-05 DE=-1.06D-07 OVMax= 5.57D-05

 Initial convergence to 1.0D-05 achieved.  Increase integral accuracy.
 Cycle   5  Pass 1  IDiag  1:
 FoFJK:  IHMeth= 1 ICntrl=     0 DoSepK=T KAlg= 1 I1Cent= 0 FoldK=F
 E= -95.8212937659122     Delta-E=        0.000200575530 Rises=F Damp=F
 DIIS: error= 1.23D-04 at cycle   1 NSaved=   1.
 NSaved= 1 IEnMin= 1 EnMin= -95.8212937659122     IErMin= 1 ErrMin= 1.23D-04
 ErrMax= 1.23D-04 EMaxC= 1.00D-01 BMatC= 7.09D-07 BMatP= 7.09D-07
 IDIUse=3 WtCom= 9.99D-01 WtEn= 1.23D-03
 Coeff-Com:  0.100D+01
 Coeff-En:   0.100D+01
 Coeff:      0.100D+01
 Gap=     0.484 Goal=   None    Shift=    0.000
 RMSDP=4.18D-06 MaxDP=3.23D-05 DE= 2.01D-04 OVMax= 2.00D-04

 Cycle   6  Pass 1  IDiag  1:
 RMSU=  1.09D-05    CP:  1.00D+00
 FoFJK:  IHMeth= 1 ICntrl=     0 DoSepK=T KAlg= 1 I1Cent= 0 FoldK=F
 E= -95.8212943048038     Delta-E=       -0.000000538892 Rises=F Damp=F
 DIIS: error= 1.47D-05 at cycle   2 NSaved=   2.
 NSaved= 2 IEnMin= 2 EnMin= -95.8212943048038     IErMin= 2 ErrMin= 1.47D-05
 ErrMax= 1.47D-05 EMaxC= 1.00D-01 BMatC= 8.75D-09 BMatP= 7.09D-07
 IDIUse=1 WtCom= 1.00D+00 WtEn= 0.00D+00
 Coeff-Com: -0.662D-01 0.107D+01
 Coeff:     -0.662D-01 0.107D+01
 Gap=     0.484 Goal=   None    Shift=    0.000
 RMSDP=3.31D-06 MaxDP=2.50D-05 DE=-5.39D-07 OVMax= 5.14D-05

 Cycle   7  Pass 1  IDiag  1:
 RMSU=  2.06D-06    CP:  1.00D+00  1.10D+00
 FoFJK:  IHMeth= 1 ICntrl=     0 DoSepK=T KAlg= 1 I1Cent= 0 FoldK=F
 E= -95.8212943171284     Delta-E=       -0.000000012325 Rises=F Damp=F
 DIIS: error= 4.60D-06 at cycle   3 NSaved=   3.
 NSaved= 3 IEnMin= 3 EnMin= -95.8212943171284     IErMin= 3 ErrMin= 4.60D-06
 ErrMax= 4.60D-06 EMaxC= 1.00D-01 BMatC= 8.30D-10 BMatP= 8.75D-09
 IDIUse=1 WtCom= 1.00D+00 WtEn= 0.00D+00
 Coeff-Com: -0.159D-01 0.181D+00 0.835D+00
 Coeff:     -0.159D-01 0.181D+00 0.835D+00
 Gap=     0.484 Goal=   None    Shift=    0.000
 RMSDP=8.86D-07 MaxDP=1.19D-05 DE=-1.23D-08 OVMax= 1.41D-05

 Cycle   8  Pass 1  IDiag  1:
 RMSU=  5.90D-07    CP:  1.00D+00  1.11D+00  1.09D+00
 FoFJK:  IHMeth= 1 ICntrl=     0 DoSepK=T KAlg= 1 I1Cent= 0 FoldK=F
 E= -95.8212943179633     Delta-E=       -0.000000000835 Rises=F Damp=F
 DIIS: error= 2.02D-06 at cycle   4 NSaved=   4.
 NSaved= 4 IEnMin= 4 EnMin= -95.8212943179633     IErMin= 4 ErrMin= 2.02D-06
 ErrMax= 2.02D-06 EMaxC= 1.00D-01 BMatC= 1.92D-10 BMatP= 8.30D-10
 IDIUse=1 WtCom= 1.00D+00 WtEn= 0.00D+00
 Coeff-Com:  0.510D-03-0.550D-01 0.278D+00 0.777D+00
 Coeff:      0.510D-03-0.550D-01 0.278D+00 0.777D+00
 Gap=     0.484 Goal=   None    Shift=    0.000
 RMSDP=3.82D-07 MaxDP=3.74D-06 DE=-8.35D-10 OVMax= 5.80D-06

 Cycle   9  Pass 1  IDiag  1:
 RMSU=  1.67D-07    CP:  1.00D+00  1.11D+00  1.19D+00  9.12D-01
 FoFJK:  IHMeth= 1 ICntrl=     0 DoSepK=T KAlg= 1 I1Cent= 0 FoldK=F
 E= -95.8212943181659     Delta-E=       -0.000000000203 Rises=F Damp=F
 DIIS: error= 3.46D-07 at cycle   5 NSaved=   5.
 NSaved= 5 IEnMin= 5 EnMin= -95.8212943181659     IErMin= 5 ErrMin= 3.46D-07
 ErrMax= 3.46D-07 EMaxC= 1.00D-01 BMatC= 5.92D-12 BMatP= 1.92D-10
 IDIUse=1 WtCom= 1.00D+00 WtEn= 0.00D+00
 Coeff-Com:  0.891D-03-0.169D-01-0.482D-02 0.130D+00 0.891D+00
 Coeff:      0.891D-03-0.169D-01-0.482D-02 0.130D+00 0.891D+00
 Gap=     0.484 Goal=   None    Shift=    0.000
 RMSDP=1.30D-07 MaxDP=1.32D-06 DE=-2.03D-10 OVMax= 1.21D-06

 Cycle  10  Pass 1  IDiag  1:
 RMSU=  4.83D-08    CP:  1.00D+00  1.12D+00  1.22D+00  9.83D-01  1.15D+00
 FoFJK:  IHMeth= 1 ICntrl=     0 DoSepK=T KAlg= 1 I1Cent= 0 FoldK=F
 E= -95.8212943181736     Delta-E=       -0.000000000008 Rises=F Damp=F
 DIIS: error= 1.51D-07 at cycle   6 NSaved=   6.
 NSaved= 6 IEnMin= 6 EnMin= -95.8212943181736     IErMin= 6 ErrMin= 1.51D-07
 ErrMax= 1.51D-07 EMaxC= 1.00D-01 BMatC= 1.20D-12 BMatP= 5.92D-12
 IDIUse=1 WtCom= 1.00D+00 WtEn= 0.00D+00
 Coeff-Com:  0.413D-03-0.334D-02-0.231D-01-0.538D-02 0.346D+00 0.686D+00
 Coeff:      0.413D-03-0.334D-02-0.231D-01-0.538D-02 0.346D+00 0.686D+00
 Gap=     0.484 Goal=   None    Shift=    0.000
 RMSDP=4.15D-08 MaxDP=4.71D-07 DE=-7.73D-12 OVMax= 5.30D-07

 Cycle  11  Pass 1  IDiag  1:
 RMSU=  1.70D-08    CP:  1.00D+00  1.12D+00  1.22D+00  1.00D+00  1.27D+00
                    CP:  1.03D+00
 FoFJK:  IHMeth= 1 ICntrl=     0 DoSepK=T KAlg= 1 I1Cent= 0 FoldK=F
 E= -95.8212943181748     Delta-E=       -0.000000000001 Rises=F Damp=F
 DIIS: error= 3.15D-08 at cycle   7 NSaved=   7.
 NSaved= 7 IEnMin= 7 EnMin= -95.8212943181748     IErMin= 7 ErrMin= 3.15D-08
 ErrMax= 3.15D-08 EMaxC= 1.00D-01 BMatC= 5.81D-14 BMatP= 1.20D-12
 IDIUse=1 WtCom= 1.00D+00 WtEn= 0.00D+00
 Coeff-Com: -0.457D-04 0.152D-02-0.456D-02-0.169D-01-0.343D-01 0.120D+00
 Coeff-Com:  0.934D+00
 Coeff:     -0.457D-04 0.152D-02-0.456D-02-0.169D-01-0.343D-01 0.120D+00
 Coeff:      0.934D+00
 Gap=     0.484 Goal=   None    Shift=    0.000
 RMSDP=2.03D-08 MaxDP=2.54D-07 DE=-1.22D-12 OVMax= 2.40D-07

 Cycle  12  Pass 1  IDiag  1:
 RMSU=  3.60D-09    CP:  1.00D+00  1.12D+00  1.22D+00  1.01D+00  1.32D+00
                    CP:  1.19D+00  1.22D+00
 FoFJK:  IHMeth= 1 ICntrl=     0 DoSepK=T KAlg= 1 I1Cent= 0 FoldK=F
 E= -95.8212943181749     Delta-E=        0.000000000000 Rises=F Damp=F
 DIIS: error= 8.11D-09 at cycle   8 NSaved=   8.
 NSaved= 8 IEnMin= 8 EnMin= -95.8212943181749     IErMin= 8 ErrMin= 8.11D-09
 ErrMax= 8.11D-09 EMaxC= 1.00D-01 BMatC= 1.79D-15 BMatP= 5.81D-14
 IDIUse=1 WtCom= 1.00D+00 WtEn= 0.00D+00
 Coeff-Com: -0.199D-04 0.959D-04 0.140D-02 0.184D-02-0.156D-01-0.465D-01
 Coeff-Com: -0.765D-01 0.114D+01
 Coeff:     -0.199D-04 0.959D-04 0.140D-02 0.184D-02-0.156D-01-0.465D-01
 Coeff:     -0.765D-01 0.114D+01
 Gap=     0.484 Goal=   None    Shift=    0.000
 RMSDP=7.60D-09 MaxDP=9.61D-08 DE=-2.84D-14 OVMax= 9.58D-08

 SCF Done:  E(RwB97XD) =  -95.8212943182     A.U. after   12 cycles
             Convg  =    0.7596D-08             -V/T =  2.0096
 KE= 9.491073786248D+01 PE=-3.064924302565D+02 EE= 7.376161058799D+01
 Leave Link  502 at Mon Sep 21 15:12:12 2020, MaxMem=  671088640 cpu:      11.5
 (Enter /opt/g09gh/gaussian/g09/l701.exe)
 Compute integral first derivatives.
 ... and contract with generalized density number  0.
 R6Disp: Adding dispersion energy 1st derivatives to the gradient.
 Leave Link  701 at Mon Sep 21 15:12:12 2020, MaxMem=  671088640 cpu:       0.4
 (Enter /opt/g09gh/gaussian/g09/l702.exe)
 L702 exits ... SP integral derivatives will be done elsewhere.
 Leave Link  702 at Mon Sep 21 15:12:12 2020, MaxMem=  671088640 cpu:       0.1
 (Enter /opt/g09gh/gaussian/g09/l703.exe)
 Compute integral first derivatives, UseDBF=F ICtDFT=           0.
 Integral derivatives from FoFDir, PRISM(SPDF).
 Calling FoFJK, ICntrl=      2127 FMM=F ISym2X=0 I1Cent= 0 IOpClX= 0 NMat=1 NMatS=1 NMatT=0.
 FoFJK:  IHMeth= 1 ICntrl=  2127 DoSepK=T KAlg= 1 I1Cent= 0 FoldK=F
 FoFCou: FMM=F IPFlag=           0 FMFlag=      100000 FMFlg1=         800
         NFxFlg=           0 DoJE=F BraDBF=F KetDBF=F FulRan=T
         Omega=  0.000000  0.000000  1.000000  0.000000  0.000000 ICntrl=    2527 IOpCl=  0
         NMat0=    1 NMatS0=    1 NMatT0=    0 NMatD0=    1 NMtDS0=    0 NMtDT0=    0
         I1Cent=           0 NGrid=           0.
 Symmetry not used in FoFCou.
 Leave Link  703 at Mon Sep 21 15:12:12 2020, MaxMem=  671088640 cpu:       1.5
 (Enter /opt/g09gh/gaussian/g09/l716.exe)
 Dipole        =-9.02418121D-02-8.50576146D-06 5.91060458D-01
 ***** Axes restored to original set *****
 -------------------------------------------------------------------
 Center     Atomic                   Forces (Hartrees/Bohr)
 Number     Number              X              Y              Z
 -------------------------------------------------------------------
      1        7           0.000610549    0.000018258    0.000213688
      2        6          -0.000812204   -0.000001596   -0.000093739
      3        1           0.000124569    0.000005349    0.000091874
      4        1           0.000083954   -0.000020297   -0.000009992
      5        1           0.000087717    0.000014208   -0.000013417
      6        1          -0.000047282   -0.000023956   -0.000093093
      7        1          -0.000047304    0.000008035   -0.000095321
 -------------------------------------------------------------------
 Cartesian Forces:  Max     0.000812204 RMS     0.000233984
 Leave Link  716 at Mon Sep 21 15:12:12 2020, MaxMem=  671088640 cpu:       0.1
 (Enter /opt/g09gh/gaussian/g09/l103.exe)

 GradGradGradGradGradGradGradGradGradGradGradGradGradGradGradGradGradGrad
 Berny optimization.
 Using GEDIIS/GDIIS optimizer.
 Internal  Forces:  Max     0.000522558 RMS     0.000132599
 Search for a local minimum.
 Step number   3 out of a maximum of    3
 All quantities printed in internal units (Hartrees-Bohrs-Radians)
 RMS Force = .13260D-03 SwitMx=.10000D-02 MixMth= 2
 Mixed Optimization -- En-DIIS/RFO-DIIS
 Update second derivatives using D2CorX and points    1    2    3
 DE= -5.18D-05 DEPred=-4.71D-05 R= 1.10D+00
 SS=  1.41D+00  RLast= 2.39D-02 DXNew= 6.6691D-01 7.1829D-02
 Trust test= 1.10D+00 RLast= 2.39D-02 DXMaxT set to 3.97D-01
 Use linear search instead of GDIIS.
     Eigenvalues ---    0.01004   0.04566   0.06908   0.07825   0.15759
     Eigenvalues ---    0.16000   0.16000   0.16005   0.18343   0.33892
     Eigenvalues ---    0.34464   0.34681   0.37197   0.44447   0.44571
     Eigenvalues --- 1000.000001000.000001000.000001000.000001000.00000
     Eigenvalues --- 1000.00000
 RFO step:  Lambda=-1.54914449D-06 EMin= 1.00391392D-02
 Quartic linear search produced a step of  0.01579.
 Iteration  1 RMS(Cart)=  0.00054239 RMS(Int)=  0.00000078
 Iteration  2 RMS(Cart)=  0.00000055 RMS(Int)=  0.00000058
 Variable       Old X    -DE/DX   Delta X   Delta X   Delta X     New X
                                 (Linear)    (Quad)   (Total)
    R1        2.75976  -0.00052  -0.00012  -0.00138  -0.00150   2.75827
    R2        1.91964  -0.00004   0.00001  -0.00010  -0.00009   1.91955
    R3        1.91964  -0.00004   0.00001  -0.00010  -0.00009   1.91955
    R4        2.08396   0.00013  -0.00001   0.00041   0.00040   2.08436
    R5        2.06814   0.00002   0.00002   0.00006   0.00009   2.06823
    R6        2.06812   0.00003   0.00002   0.00008   0.00010   2.06822
    A1        1.91519   0.00010  -0.00001   0.00106   0.00105   1.91624
    A2        1.91518   0.00011  -0.00001   0.00106   0.00105   1.91623
    A3        1.85264  -0.00003   0.00001   0.00062   0.00063   1.85326
    A4        2.01516   0.00010  -0.00027   0.00086   0.00058   2.01575
    A5        1.90408   0.00006   0.00009   0.00035   0.00043   1.90451
    A6        1.90407   0.00007   0.00009   0.00035   0.00044   1.90451
    A7        1.88174  -0.00008   0.00003  -0.00043  -0.00040   1.88134
    A8        1.88178  -0.00008   0.00002  -0.00046  -0.00044   1.88134
    A9        1.87193  -0.00009   0.00007  -0.00080  -0.00074   1.87119
    D1        1.01449   0.00005   0.00000   0.00103   0.00104   1.01553
    D2       -1.10718   0.00003   0.00009   0.00073   0.00082  -1.10636
    D3        3.13621   0.00006  -0.00009   0.00129   0.00121   3.13742
    D4       -1.01476  -0.00004   0.00000  -0.00094  -0.00094  -1.01569
    D5       -3.13643  -0.00006   0.00009  -0.00124  -0.00115  -3.13758
    D6        1.10696  -0.00003  -0.00009  -0.00067  -0.00077   1.10620
         Item               Value     Threshold  Converged?
 Maximum Force            0.000523     0.002500     YES
 RMS     Force            0.000133     0.001667     YES
 Maximum Displacement     0.001191     0.010000     YES
 RMS     Displacement     0.000542     0.006667     YES
 Predicted change in Energy=-7.867620D-07
 Optimization completed.
    -- Stationary point found.
                           ----------------------------
                           !   Optimized Parameters   !
                           ! (Angstroms and Degrees)  !
 --------------------------                            --------------------------
 ! Name  Definition              Value          Derivative Info.                !
 --------------------------------------------------------------------------------
 ! R1    R(1,2)                  1.4604         -DE/DX =   -0.0005              !
 ! R2    R(1,6)                  1.0158         -DE/DX =    0.0                 !
 ! R3    R(1,7)                  1.0158         -DE/DX =    0.0                 !
 ! R4    R(2,3)                  1.1028         -DE/DX =    0.0001              !
 ! R5    R(2,4)                  1.0944         -DE/DX =    0.0                 !
 ! R6    R(2,5)                  1.0944         -DE/DX =    0.0                 !
 ! A1    A(2,1,6)              109.7323         -DE/DX =    0.0001              !
 ! A2    A(2,1,7)              109.7318         -DE/DX =    0.0001              !
 ! A3    A(6,1,7)              106.1483         -DE/DX =    0.0                 !
 ! A4    A(1,2,3)              115.4604         -DE/DX =    0.0001              !
 ! A5    A(1,2,4)              109.0959         -DE/DX =    0.0001              !
 ! A6    A(1,2,5)              109.0951         -DE/DX =    0.0001              !
 ! A7    A(3,2,4)              107.8155         -DE/DX =   -0.0001              !
 ! A8    A(3,2,5)              107.8182         -DE/DX =   -0.0001              !
 ! A9    A(4,2,5)              107.2535         -DE/DX =   -0.0001              !
 ! D1    D(6,1,2,3)             58.126          -DE/DX =    0.0                 !
 ! D2    D(6,1,2,4)            -63.4366         -DE/DX =    0.0                 !
 ! D3    D(6,1,2,5)            179.6915         -DE/DX =    0.0001              !
 ! D4    D(7,1,2,3)            -58.1413         -DE/DX =    0.0                 !
 ! D5    D(7,1,2,4)           -179.7039         -DE/DX =   -0.0001              !
 ! D6    D(7,1,2,5)             63.4242         -DE/DX =    0.0                 !
 --------------------------------------------------------------------------------
 GradGradGradGradGradGradGradGradGradGradGradGradGradGradGradGradGradGrad

 Largest change from initial coordinates is atom    4       2.794 Angstoms.
 Leave Link  103 at Mon Sep 21 15:12:12 2020, MaxMem=  671088640 cpu:       0.0
 (Enter /opt/g09gh/gaussian/g09/l202.exe)
                          Input orientation:                          
 ---------------------------------------------------------------------
 Center     Atomic      Atomic             Coordinates (Angstroms)
 Number     Number       Type             X           Y           Z
 ---------------------------------------------------------------------
      1          7           0       -0.735241   -0.000367   -0.006211
      2          6           0        0.724914    0.002155    0.020654
      3          1           0        1.180509    0.092240    1.020880
      4          1           0        1.092829    0.831893   -0.590829
      5          1           0        1.092938   -0.923382   -0.432841
      6          1           0       -1.087538    0.853036    0.417462
      7          1           0       -1.087412   -0.764576    0.562884
 ---------------------------------------------------------------------
                    Distance matrix (angstroms):
                    1          2          3          4          5
     1  N    0.000000
     2  C    1.460404   0.000000
     3  H    2.175681   1.102785   0.000000
     4  H    2.091954   1.094412   1.775495   0.000000
     5  H    2.091939   1.094403   1.775518   1.762370   0.000000
     6  H    1.015828   2.041185   2.467176   2.402311   2.938222
     7  H    1.015829   2.041179   2.467257   2.938233   2.402209
                    6          7
     6  H    0.000000
     7  H    1.624135   0.000000
 Stoichiometry    CH5N
 Framework group  C1[X(CH5N)]
 Deg. of freedom    15
 Full point group                 C1      NOp   1
 Largest Abelian subgroup         C1      NOp   1
 Largest concise Abelian subgroup C1      NOp   1
                         Standard orientation:                         
 ---------------------------------------------------------------------
 Center     Atomic      Atomic             Coordinates (Angstroms)
 Number     Number       Type             X           Y           Z
 ---------------------------------------------------------------------
      1          7           0        0.749598    0.000001   -0.124965
      2          6           0       -0.703842    0.000004    0.017478
      3          1           0       -1.078538   -0.000156    1.054655
      4          1           0       -1.112986   -0.881109   -0.486486
      5          1           0       -1.112943    0.881261   -0.486248
      6          1           0        1.140166   -0.812079    0.343959
      7          1           0        1.140166    0.812056    0.344005
 ---------------------------------------------------------------------
 Rotational constants (GHZ):    102.9887862     22.8586660     21.9821372
 Leave Link  202 at Mon Sep 21 15:12:12 2020, MaxMem=  671088640 cpu:       0.0
 (Enter /opt/g09gh/gaussian/g09/l601.exe)
 Copying SCF densities to generalized density rwf, IOpCl= 0 IROHF=0.

 **********************************************************************

            Population analysis using the SCF density.

 **********************************************************************

 Orbital symmetries:
       Occupied  (A) (A) (A) (A) (A) (A) (A) (A) (A)
       Virtual   (A) (A) (A) (A) (A) (A) (A) (A) (A) (A) (A) (A)
                 (A) (A) (A) (A) (A) (A) (A) (A) (A) (A) (A) (A)
                 (A) (A) (A) (A) (A) (A) (A)
 The electronic state is 1-A.
 Alpha  occ. eigenvalues --  -14.42386 -10.30693  -0.96874  -0.74957  -0.57155
 Alpha  occ. eigenvalues --   -0.51968  -0.48002  -0.44512  -0.31059
 Alpha virt. eigenvalues --    0.17316   0.22870   0.24185   0.26180   0.27210
 Alpha virt. eigenvalues --    0.32401   0.63889   0.65419   0.67877   0.82990
 Alpha virt. eigenvalues --    0.83617   0.89052   0.95808   1.01655   1.02251
 Alpha virt. eigenvalues --    1.02361   1.06901   1.14836   1.47309   1.60756
 Alpha virt. eigenvalues --    1.63562   1.97636   2.12685   2.15373   2.26679
 Alpha virt. eigenvalues --    2.40855   2.45491   2.54456   2.75033   3.86289
 Alpha virt. eigenvalues --    4.34548
          Condensed to atoms (all electrons):
              1          2          3          4          5          6
     1  N    6.912980   0.308559  -0.046707  -0.038301  -0.038297   0.324231
     2  C    0.308559   4.968721   0.378540   0.389681   0.389682  -0.038500
     3  H   -0.046707   0.378540   0.617477  -0.039748  -0.039740  -0.003645
     4  H   -0.038301   0.389681  -0.039748   0.539869  -0.024667  -0.003714
     5  H   -0.038297   0.389682  -0.039740  -0.024667   0.539858   0.005301
     6  H    0.324231  -0.038500  -0.003645  -0.003714   0.005301   0.436280
     7  H    0.324231  -0.038501  -0.003643   0.005301  -0.003716  -0.032080
              7
     1  N    0.324231
     2  C   -0.038501
     3  H   -0.003643
     4  H    0.005301
     5  H   -0.003716
     6  H   -0.032080
     7  H    0.436281
 Mulliken atomic charges:
              1
     1  N   -0.746696
     2  C   -0.358182
     3  H    0.137466
     4  H    0.171579
     5  H    0.171580
     6  H    0.312127
     7  H    0.312127
 Sum of Mulliken atomic charges =   0.00000
 Mulliken charges with hydrogens summed into heavy atoms:
              1
     1  N   -0.122442
     2  C    0.122442
 Sum of Mulliken charges with hydrogens summed into heavy atoms =   0.00000
 Electronic spatial extent (au):  <R**2>=             94.5422
 Charge=              0.0000 electrons
 Dipole moment (field-independent basis, Debye):
    X=             -0.2294    Y=              0.0000    Z=              1.5023  Tot=              1.5197
 Quadrupole moment (field-independent basis, Debye-Ang):
   XX=            -13.5385   YY=            -12.3457   ZZ=            -15.0544
   XY=             -0.0001   XZ=              2.1898   YZ=              0.0000
 Traceless Quadrupole moment (field-independent basis, Debye-Ang):
   XX=              0.1077   YY=              1.3005   ZZ=             -1.4082
   XY=             -0.0001   XZ=              2.1898   YZ=              0.0000
 Octapole moment (field-independent basis, Debye-Ang**2):
  XXX=              2.9388  YYY=              0.0002  ZZZ=              1.6549  XYY=              1.9486
  XXY=             -0.0001  XXZ=              2.2170  XZZ=             -0.4183  YZZ=             -0.0002
  YYZ=              0.3560  XYZ=              0.0001
 Hexadecapole moment (field-independent basis, Debye-Ang**3):
 XXXX=            -72.7311 YYYY=            -22.3106 ZZZZ=            -23.3070 XXXY=             -0.0001
 XXXZ=              3.9642 YYYX=             -0.0005 YYYZ=              0.0000 ZZZX=              1.6524
 ZZZY=              0.0001 XXYY=            -13.7720 XXZZ=            -16.6209 YYZZ=             -7.5132
 XXYZ=              0.0001 YYXZ=              1.9546 ZZXY=              0.0002
 N-N= 4.199878748789D+01 E-N=-3.064924303882D+02  KE= 9.491073786248D+01
 No NMR shielding tensors so no spin-rotation constants.
 Leave Link  601 at Mon Sep 21 15:12:13 2020, MaxMem=  671088640 cpu:       0.4
 (Enter /opt/g09gh/gaussian/g09/l9999.exe)
 1\1\GINC-NODE37\FOpt\RwB97XD\6-31G(d)\C1H5N1\BDW2292\21-Sep-2020\0\\#P
  opt=(maxcycle=3,Loose) wB97XD/6-31G* Guess=INDO MaxDisk=20GB\\methyla
 mine Gaussian OPT Calculation on node37.bme.utexas.edu\\0,1\N,-0.73524
 05861,-0.0003665164,-0.0062107291\C,0.7249139699,0.0021553363,0.020654
 4752\H,1.1805088677,0.0922402932,1.0208804965\H,1.0928291031,0.8318928
 29,-0.5908292463\H,1.0929378282,-0.9233818013,-0.4328409642\H,-1.08753
 75597,0.8530356051,0.4174623841\H,-1.0874116231,-0.7645757458,0.562883
 5838\\Version=EM64L-G09RevA.02\State=1-A\HF=-95.8212943\RMSD=7.596e-09
 \RMSF=2.340e-04\Dipole=0.1367305,0.0521192,0.5797279\Quadrupole=-0.183
 8544,0.9528326,-0.7689783,-0.1520089,-1.6897638,-0.1561556\PG=C01 [X(C
 1H5N1)]\\@


 GARLIC THEN HAVE POWER TO SAVE FROM DEATH
 BEAR WITH IT THOUGH IT MAKETH UNSAVORY BREATH,
 AND SCORN NOT GARLIC LIKE SOME THAT THINK
 IT ONLY MAKETH MEN WINK AND DRINK AND STINK.
   --  SIR JOHN HARRINGTON,
       "THE ENGLISHMAN'S DOCTOR", 1609
 Job cpu time:  0 days  0 hours  0 minutes 51.3 seconds.
 File lengths (MBytes):  RWF=      5 Int=      0 D2E=      0 Chk=      1 Scr=      1
 Normal termination of Gaussian 09 at Mon Sep 21 15:12:13 2020.
