
    -----------------------------------------------------------------------
          Psi4: An Open-Source Ab Initio Electronic Structure Package
                               Psi4 1.3.2 release

                         Git: Rev {HEAD} ecbda83 


    R. M. Parrish, L. A. Burns, D. G. A. Smith, A. C. Simmonett,
    A. E. DePrince III, E. G. Hohenstein, U. Bozkaya, A. Yu. Sokolov,
    R. Di Remigio, R. M. Richard, J. F. Gonthier, A. M. James,
    H. R. McAlexander, A. Kumar, M. Saitow, X. Wang, B. P. Pritchard,
    P. Verma, H. F. Schaefer III, K. Patkowski, R. A. King, E. F. Valeev,
    F. A. Evangelista, J. M. Turney, T. D. Crawford, and C. D. Sherrill,
    J. Chem. Theory Comput. 13(7) pp 3185--3197 (2017).
    (doi: 10.1021/acs.jctc.7b00174)


                         Additional Contributions by
    P. Kraus, H. Kruse, M. H. Lechner, M. C. Schieber, R. A. Shaw,
    A. Alenaizan, R. Galvelis, Z. L. Glick, S. Lehtola, and J. P. Misiewicz

    -----------------------------------------------------------------------


    Psi4 started on: Tuesday, 22 February 2022 06:04PM

    Process ID: 28900
    Host:       node37.bme.utexas.edu
    PSIDATADIR: /home/bdw2292/miniconda3/envs/amoebamdpoltype/share/psi4
    Memory:     500.0 MiB
    Threads:    1
    
  ==> Input File <==

--------------------------------------------------------------------------
molecule { 
0 1
 Cl                 -0.0649832    -0.8758863    -1.3634788
  C                 -0.8615178    -0.1109893     0.0354210
  H                 -1.8997533    -0.4392969     0.0837063
  H                 -0.3333493    -0.4029180     0.9437515
  H                 -0.8158170     0.9717065    -0.0827292
--
0 1
  O                  2.8008229     1.0322437     0.5006234
  H                  2.5177737     0.4672177    -0.2207547
  H                  3.4657624     1.6330246     0.1646626
}
memory 15GB
set_num_threads(4)
psi4_io.set_default_path("/scratch/bdw2292/Psi4-CH3Cl")
set maxiter 500
set freeze_core True
set PROPERTIES_ORIGIN ["COM"]
e_dim= energy('mp2/aug-cc-pV[TQ]Z',bsse_type='cp')

psi4.print_out('CP Energy = %10.6f' % (e_dim))
clean()
--------------------------------------------------------------------------

  Memory set to  13.970 GiB by Python driver.
  Threads set to 4 by Python driver.


   ===> N-Body Interaction Abacus <===
        BSSE Treatment:                     cp
        Number of 1-body computations:     4
        Number of 2-body computations:     1

   ==> N-Body: Now computing 1-body complexes <==


       N-Body: Computing complex (1/4) with fragments (2,) in the basis of fragments (2,).


  //>>>>>>>>>>>>>>>>>>>>>>>>>>>>>>>>>>>//
  //   CBS Setup: mp2/aug-cc-pV[TQ]Z   //
  //<<<<<<<<<<<<<<<<<<<<<<<<<<<<<<<<<<<//

    Naive listing of computations required.
             hf / aug-cc-pvqz              for  HF TOTAL ENERGY
            mp2 / aug-cc-pvtz              for  MP2 TOTAL ENERGY
            mp2 / aug-cc-pvqz              for  MP2 TOTAL ENERGY
             hf / aug-cc-pvtz              for  HF TOTAL ENERGY
             hf / aug-cc-pvqz              for  HF TOTAL ENERGY

    Enlightened listing of computations required.
            mp2 / aug-cc-pvtz              for  MP2 TOTAL ENERGY
            mp2 / aug-cc-pvqz              for  MP2 TOTAL ENERGY

    Full listing of computations to be obtained (required and bonus).
             hf / aug-cc-pvtz              for  HF TOTAL ENERGY
            mp2 / aug-cc-pvtz              for  MP2 TOTAL ENERGY
             hf / aug-cc-pvqz              for  HF TOTAL ENERGY
            mp2 / aug-cc-pvqz              for  MP2 TOTAL ENERGY

  //>>>>>>>>>>>>>>>>>>>>>>>>>>>>>>>>>>>>//
  // CBS Computation: MP2 / AUG-CC-PVTZ //
  //<<<<<<<<<<<<<<<<<<<<<<<<<<<<<<<<<<<<//

    SCF Algorithm Type (re)set to DF.

*** tstart() called on node37.bme.utexas.edu
*** at Tue Feb 22 18:04:50 2022

   => Loading Basis Set <=

    Name: AUG-CC-PVTZ
    Role: ORBITAL
    Keyword: BASIS
    atoms 1   entry O          line   327 file /home/bdw2292/miniconda3/envs/amoebamdpoltype/share/psi4/basis/aug-cc-pvtz.gbs 
    atoms 2-3 entry H          line    36 file /home/bdw2292/miniconda3/envs/amoebamdpoltype/share/psi4/basis/aug-cc-pvtz.gbs 


         ---------------------------------------------------------
                                   SCF
               by Justin Turney, Rob Parrish, Andy Simmonett
                          and Daniel G. A. Smith
                              RHF Reference
                        4 Threads,  14305 MiB Core
         ---------------------------------------------------------

  ==> Geometry <==

    Molecular point group: c1
    Full point group: C1

    Geometry (in Angstrom), charge = 0, multiplicity = 1:

       Center              X                  Y                   Z               Mass       
    ------------   -----------------  -----------------  -----------------  -----------------
         O            2.283993390279     1.226393957806     1.064587920545    15.994914619570
         H            2.000944190279     0.661367957806     0.343209820545     1.007825032230
         H            2.948932890279     1.827174857806     0.728627120545     1.007825032230

  Running in c1 symmetry.

  Rotational constants: A =     22.63920  B =      0.11845  C =      0.11813 [cm^-1]
  Rotational constants: A = 678706.27765  B =   3551.12233  C =   3541.39991 [MHz]
  Nuclear repulsion =    9.178742616277342

  Charge       = 0
  Multiplicity = 1
  Electrons    = 10
  Nalpha       = 5
  Nbeta        = 5

  ==> Algorithm <==

  SCF Algorithm Type is DF.
  DIIS enabled.
  MOM disabled.
  Fractional occupation disabled.
  Guess Type is SAD.
  Energy threshold   = 1.00e-08
  Density threshold  = 1.00e-08
  Integral threshold = 0.00e+00

  ==> Primary Basis <==

  Basis Set: AUG-CC-PVTZ
    Blend: AUG-CC-PVTZ
    Number of shells: 32
    Number of basis function: 92
    Number of Cartesian functions: 105
    Spherical Harmonics?: true
    Max angular momentum: 3

   => Loading Basis Set <=

    Name: (AUG-CC-PVTZ AUX)
    Role: JKFIT
    Keyword: DF_BASIS_SCF
    atoms 1   entry O          line   286 file /home/bdw2292/miniconda3/envs/amoebamdpoltype/share/psi4/basis/aug-cc-pvtz-jkfit.gbs 
    atoms 2-3 entry H          line    70 file /home/bdw2292/miniconda3/envs/amoebamdpoltype/share/psi4/basis/aug-cc-pvtz-jkfit.gbs 

  ==> Pre-Iterations <==

   -------------------------------------------------------
    Irrep   Nso     Nmo     Nalpha   Nbeta   Ndocc  Nsocc
   -------------------------------------------------------
     A         92      92       0       0       0       0
   -------------------------------------------------------
    Total      92      92       5       5       5       0
   -------------------------------------------------------

  ==> Integral Setup <==

  DFHelper Memory: AOs need 0.015 GiB; user supplied 10.477 GiB. Using in-core AOs.

  ==> MemDFJK: Density-Fitted J/K Matrices <==

    J tasked:                   Yes
    K tasked:                   Yes
    wK tasked:                   No
    OpenMP threads:               4
    Memory [MiB]:             10728
    Algorithm:                 Core
    Schwarz Cutoff:           1E-12
    Mask sparsity (%):       0.0000
    Fitting Condition:        1E-10

   => Auxiliary Basis Set <=

  Basis Set: (AUG-CC-PVTZ AUX)
    Blend: AUG-CC-PVTZ-JKFIT
    Number of shells: 58
    Number of basis function: 196
    Number of Cartesian functions: 241
    Spherical Harmonics?: true
    Max angular momentum: 4

  Minimum eigenvalue in the overlap matrix is 3.7831923094E-04.
  Using Symmetric Orthogonalization.

  SCF Guess: Superposition of Atomic Densities via on-the-fly atomic UHF.

  ==> Iterations <==

                           Total Energy        Delta E     RMS |[F,P]|

   @DF-RHF iter SAD:   -75.47358574072010   -7.54736e+01   0.00000e+00 
   @DF-RHF iter   1:   -75.97652929955242   -5.02944e-01   5.09341e-03 DIIS
   @DF-RHF iter   2:   -76.02893783741273   -5.24085e-02   3.45451e-03 DIIS
   @DF-RHF iter   3:   -76.06001873268939   -3.10809e-02   2.34643e-04 DIIS
   @DF-RHF iter   4:   -76.06040894191750   -3.90209e-04   5.60768e-05 DIIS
   @DF-RHF iter   5:   -76.06043299103433   -2.40491e-05   1.26329e-05 DIIS
   @DF-RHF iter   6:   -76.06043495571322   -1.96468e-06   2.80891e-06 DIIS
   @DF-RHF iter   7:   -76.06043506369947   -1.07986e-07   5.29240e-07 DIIS
   @DF-RHF iter   8:   -76.06043506709844   -3.39897e-09   8.79265e-08 DIIS
   @DF-RHF iter   9:   -76.06043506717228   -7.38396e-11   2.18708e-08 DIIS
   @DF-RHF iter  10:   -76.06043506717631   -4.03588e-12   2.99458e-09 DIIS
  Energy and wave function converged.


  ==> Post-Iterations <==

    Orbital Energies [Eh]
    ---------------------

    Doubly Occupied:                                                      

       1A    -20.565726     2A     -1.350644     3A     -0.724219  
       4A     -0.577784     5A     -0.509223  

    Virtual:                                                              

       6A      0.029647     7A      0.047459     8A      0.136442  
       9A      0.157942    10A      0.174323    11A      0.182106  
      12A      0.228703    13A      0.244480    14A      0.263948  
      15A      0.304382    16A      0.312986    17A      0.365256  
      18A      0.437862    19A      0.466707    20A      0.602004  
      21A      0.654530    22A      0.710942    23A      0.719520  
      24A      0.731335    25A      0.828062    26A      0.843850  
      27A      0.890184    28A      0.912839    29A      0.920743  
      30A      0.923565    31A      0.928078    32A      0.970583  
      33A      1.022734    34A      1.045089    35A      1.084937  
      36A      1.113603    37A      1.172928    38A      1.177531  
      39A      1.259745    40A      1.514028    41A      1.561870  
      42A      1.594873    43A      1.787278    44A      1.797844  
      45A      2.001711    46A      2.115640    47A      2.259872  
      48A      2.318349    49A      2.321430    50A      2.413921  
      51A      2.414844    52A      2.438917    53A      2.472037  
      54A      2.686316    55A      2.702862    56A      2.767606  
      57A      2.854325    58A      2.883784    59A      3.645219  
      60A      3.767917    61A      4.007538    62A      4.089440  
      63A      4.208878    64A      4.231936    65A      4.332843  
      66A      4.381409    67A      4.400787    68A      4.413359  
      69A      4.494871    70A      4.708534    71A      4.814530  
      72A      5.124352    73A      5.170307    74A      5.301821  
      75A      5.329154    76A      5.513137    77A      5.717358  
      78A      6.142116    79A      6.533427    80A      6.713474  
      81A      6.861117    82A      7.145576    83A      7.261615  
      84A      7.301099    85A      7.308216    86A      7.370267  
      87A      7.381718    88A      7.556032    89A      7.898602  
      90A      7.959664    91A      8.788930    92A     15.841032  

    Final Occupation by Irrep:
              A 
    DOCC [     5 ]

  @DF-RHF Final Energy:   -76.06043506717631

   => Energetics <=

    Nuclear Repulsion Energy =              9.1787426162773418
    One-Electron Energy =                -123.0231635190714456
    Two-Electron Energy =                  37.7839858356177842
    Total Energy =                        -76.0604350671763143

Computation Completed


Properties will be evaluated at   4.356505,   2.321330,   1.899972 [a0]

Properties computed using the SCF density matrix

  Nuclear Dipole Moment: [e a0]
     X:     0.3178      Y:     0.0298      Z:    -0.8800

  Electronic Dipole Moment: [e a0]
     X:    -0.0608      Y:    -0.0055      Z:     0.1689

  Dipole Moment: [e a0]
     X:     0.2571      Y:     0.0243      Z:    -0.7111     Total:     0.7565

  Dipole Moment: [D]
     X:     0.6534      Y:     0.0617      Z:    -1.8075     Total:     1.9229


*** tstop() called on node37.bme.utexas.edu at Tue Feb 22 18:04:54 2022
Module time:
	user time   =       5.61 seconds =       0.09 minutes
	system time =       0.50 seconds =       0.01 minutes
	total time  =          4 seconds =       0.07 minutes
Total time:
	user time   =       5.61 seconds =       0.09 minutes
	system time =       0.50 seconds =       0.01 minutes
	total time  =          4 seconds =       0.07 minutes

*** tstart() called on node37.bme.utexas.edu
*** at Tue Feb 22 18:04:54 2022


  //>>>>>>>>>>>>>>>>>>>>>>>>>>>>>>>>>>>//
  //               DFMP2               //
  //<<<<<<<<<<<<<<<<<<<<<<<<<<<<<<<<<<<//

   => Loading Basis Set <=

    Name: (AUG-CC-PVTZ AUX)
    Role: RIFIT
    Keyword: DF_BASIS_MP2
    atoms 1   entry O          line   264 file /home/bdw2292/miniconda3/envs/amoebamdpoltype/share/psi4/basis/aug-cc-pvtz-ri.gbs 
    atoms 2-3 entry H          line    30 file /home/bdw2292/miniconda3/envs/amoebamdpoltype/share/psi4/basis/aug-cc-pvtz-ri.gbs 

	 --------------------------------------------------------
	                          DF-MP2                         
	      2nd-Order Density-Fitted Moller-Plesset Theory     
	              RMP2 Wavefunction,   4 Threads             
	                                                         
	        Rob Parrish, Justin Turney, Andy Simmonett,      
	           Ed Hohenstein, and C. David Sherrill          
	 --------------------------------------------------------

   => Auxiliary Basis Set <=

  Basis Set: (AUG-CC-PVTZ AUX)
    Blend: AUG-CC-PVTZ-RI
    Number of shells: 56
    Number of basis function: 198
    Number of Cartesian functions: 246
    Spherical Harmonics?: true
    Max angular momentum: 4

	 --------------------------------------------------------
	                 NBF =    92, NAUX =   198
	 --------------------------------------------------------
	   CLASS    FOCC     OCC    AOCC    AVIR     VIR    FVIR
	   PAIRS       1       5       4      87      87       0
	 --------------------------------------------------------

	-----------------------------------------------------------
	 ==================> DF-MP2 Energies <==================== 
	-----------------------------------------------------------
	 Reference Energy          =     -76.0604350671763143 [Eh]
	 Singles Energy            =      -0.0000000000000000 [Eh]
	 Same-Spin Energy          =      -0.0651071394160776 [Eh]
	 Opposite-Spin Energy      =      -0.2030207644318601 [Eh]
	 Correlation Energy        =      -0.2681279038479377 [Eh]
	 Total Energy              =     -76.3285629710242546 [Eh]
	-----------------------------------------------------------
	 ================> DF-SCS-MP2 Energies <================== 
	-----------------------------------------------------------
	 SCS Same-Spin Scale       =       0.3333333333333333 [-]
	 SCS Opposite-Spin Scale   =       1.2000000000000000 [-]
	 SCS Same-Spin Energy      =      -0.0217023798053592 [Eh]
	 SCS Opposite-Spin Energy  =      -0.2436249173182321 [Eh]
	 SCS Correlation Energy    =      -0.2653272971235913 [Eh]
	 SCS Total Energy          =     -76.3257623642999050 [Eh]
	-----------------------------------------------------------


*** tstop() called on node37.bme.utexas.edu at Tue Feb 22 18:04:55 2022
Module time:
	user time   =       1.73 seconds =       0.03 minutes
	system time =       0.13 seconds =       0.00 minutes
	total time  =          1 seconds =       0.02 minutes
Total time:
	user time   =       7.34 seconds =       0.12 minutes
	system time =       0.63 seconds =       0.01 minutes
	total time  =          5 seconds =       0.08 minutes

  //>>>>>>>>>>>>>>>>>>>>>>>>>>>>>>>>>>>>//
  // CBS Computation: MP2 / AUG-CC-PVQZ //
  //<<<<<<<<<<<<<<<<<<<<<<<<<<<<<<<<<<<<//

    SCF Algorithm Type (re)set to DF.

*** tstart() called on node37.bme.utexas.edu
*** at Tue Feb 22 18:04:55 2022

   => Loading Basis Set <=

    Name: AUG-CC-PVQZ
    Role: ORBITAL
    Keyword: BASIS
    atoms 1   entry O          line   419 file /home/bdw2292/miniconda3/envs/amoebamdpoltype/share/psi4/basis/aug-cc-pvqz.gbs 
    atoms 2-3 entry H          line    36 file /home/bdw2292/miniconda3/envs/amoebamdpoltype/share/psi4/basis/aug-cc-pvqz.gbs 


         ---------------------------------------------------------
                                   SCF
               by Justin Turney, Rob Parrish, Andy Simmonett
                          and Daniel G. A. Smith
                              RHF Reference
                        4 Threads,  14305 MiB Core
         ---------------------------------------------------------

  ==> Geometry <==

    Molecular point group: c1
    Full point group: C1

    Geometry (in Angstrom), charge = 0, multiplicity = 1:

       Center              X                  Y                   Z               Mass       
    ------------   -----------------  -----------------  -----------------  -----------------
         O            2.283993390279     1.226393957806     1.064587920545    15.994914619570
         H            2.000944190279     0.661367957806     0.343209820545     1.007825032230
         H            2.948932890279     1.827174857806     0.728627120545     1.007825032230

  Running in c1 symmetry.

  Rotational constants: A =     22.63920  B =      0.11845  C =      0.11813 [cm^-1]
  Rotational constants: A = 678706.27765  B =   3551.12233  C =   3541.39991 [MHz]
  Nuclear repulsion =    9.178742616277342

  Charge       = 0
  Multiplicity = 1
  Electrons    = 10
  Nalpha       = 5
  Nbeta        = 5

  ==> Algorithm <==

  SCF Algorithm Type is DF.
  DIIS enabled.
  MOM disabled.
  Fractional occupation disabled.
  Guess Type is SAD.
  Energy threshold   = 1.00e-08
  Density threshold  = 1.00e-08
  Integral threshold = 0.00e+00

  ==> Primary Basis <==

  Basis Set: AUG-CC-PVQZ
    Blend: AUG-CC-PVQZ
    Number of shells: 48
    Number of basis function: 172
    Number of Cartesian functions: 215
    Spherical Harmonics?: true
    Max angular momentum: 4

   => Loading Basis Set <=

    Name: (AUG-CC-PVQZ AUX)
    Role: JKFIT
    Keyword: DF_BASIS_SCF
    atoms 1   entry O          line   318 file /home/bdw2292/miniconda3/envs/amoebamdpoltype/share/psi4/basis/aug-cc-pvqz-jkfit.gbs 
    atoms 2-3 entry H          line    70 file /home/bdw2292/miniconda3/envs/amoebamdpoltype/share/psi4/basis/aug-cc-pvqz-jkfit.gbs 

  ==> Pre-Iterations <==

   -------------------------------------------------------
    Irrep   Nso     Nmo     Nalpha   Nbeta   Ndocc  Nsocc
   -------------------------------------------------------
     A        172     172       0       0       0       0
   -------------------------------------------------------
    Total     172     172       5       5       5       0
   -------------------------------------------------------

  ==> Integral Setup <==

  DFHelper Memory: AOs need 0.074 GiB; user supplied 10.477 GiB. Using in-core AOs.

  ==> MemDFJK: Density-Fitted J/K Matrices <==

    J tasked:                   Yes
    K tasked:                   Yes
    wK tasked:                   No
    OpenMP threads:               4
    Memory [MiB]:             10728
    Algorithm:                 Core
    Schwarz Cutoff:           1E-12
    Mask sparsity (%):       0.0000
    Fitting Condition:        1E-10

   => Auxiliary Basis Set <=

  Basis Set: (AUG-CC-PVQZ AUX)
    Blend: AUG-CC-PVQZ-JKFIT
    Number of shells: 70
    Number of basis function: 294
    Number of Cartesian functions: 400
    Spherical Harmonics?: true
    Max angular momentum: 5

  Minimum eigenvalue in the overlap matrix is 8.5630432823E-05.
  Using Symmetric Orthogonalization.

  SCF Guess: Superposition of Atomic Densities via on-the-fly atomic UHF.

  ==> Iterations <==

                           Total Energy        Delta E     RMS |[F,P]|

   @DF-RHF iter SAD:   -75.47874034422601   -7.54787e+01   0.00000e+00 
   @DF-RHF iter   1:   -75.98160923921058   -5.02869e-01   2.73017e-03 DIIS
   @DF-RHF iter   2:   -76.03412167934842   -5.25124e-02   1.85599e-03 DIIS
   @DF-RHF iter   3:   -76.06540064398686   -3.12790e-02   1.26424e-04 DIIS
   @DF-RHF iter   4:   -76.06579291743518   -3.92273e-04   3.09137e-05 DIIS
   @DF-RHF iter   5:   -76.06581786836674   -2.49509e-05   6.93848e-06 DIIS
   @DF-RHF iter   6:   -76.06581991556948   -2.04720e-06   1.58417e-06 DIIS
   @DF-RHF iter   7:   -76.06582003485400   -1.19285e-07   3.08078e-07 DIIS
   @DF-RHF iter   8:   -76.06582003886038   -4.00638e-09   4.93680e-08 DIIS
   @DF-RHF iter   9:   -76.06582003894371   -8.33325e-11   1.19637e-08 DIIS
   @DF-RHF iter  10:   -76.06582003894806   -4.34852e-12   1.66962e-09 DIIS
  Energy and wave function converged.


  ==> Post-Iterations <==

    Orbital Energies [Eh]
    ---------------------

    Doubly Occupied:                                                      

       1A    -20.563270     2A     -1.349918     3A     -0.724185  
       4A     -0.577836     5A     -0.509353  

    Virtual:                                                              

       6A      0.027128     7A      0.042889     8A      0.114662  
       9A      0.132688    10A      0.150394    11A      0.157915  
      12A      0.185898    13A      0.197103    14A      0.208336  
      15A      0.241041    16A      0.258802    17A      0.290489  
      18A      0.357995    19A      0.390504    20A      0.471647  
      21A      0.506839    22A      0.542960    23A      0.545802  
      24A      0.554312    25A      0.613322    26A      0.634128  
      27A      0.649413    28A      0.662723    29A      0.665883  
      30A      0.689916    31A      0.705271    32A      0.715113  
      33A      0.769520    34A      0.787578    35A      0.803440  
      36A      0.809263    37A      0.846469    38A      0.855350  
      39A      0.967531    40A      1.134264    41A      1.139870  
      42A      1.216056    43A      1.329192    44A      1.419406  
      45A      1.480446    46A      1.506335    47A      1.520982  
      48A      1.525220    49A      1.555718    50A      1.595342  
      51A      1.618224    52A      1.636558    53A      1.659871  
      54A      1.671851    55A      1.686259    56A      1.702563  
      57A      1.720777    58A      1.762711    59A      1.780500  
      60A      1.792638    61A      1.829164    62A      1.863085  
      63A      1.882519    64A      1.901348    65A      1.955387  
      66A      2.013772    67A      2.022636    68A      2.029838  
      69A      2.099282    70A      2.217970    71A      2.225332  
      72A      2.307284    73A      2.488631    74A      2.640868  
      75A      2.642176    76A      2.889988    77A      2.961699  
      78A      3.009052    79A      3.024662    80A      3.060905  
      81A      3.087861    82A      3.255122    83A      3.284449  
      84A      3.307897    85A      3.527186    86A      3.591080  
      87A      3.657007    88A      3.683135    89A      3.738714  
      90A      3.742032    91A      3.921076    92A      4.067310  
      93A      4.159907    94A      4.170501    95A      4.175021  
      96A      4.181092    97A      4.250057    98A      4.343099  
      99A      4.420045   100A      4.566431   101A      4.667126  
     102A      4.759685   103A      4.802588   104A      4.805158  
     105A      4.835944   106A      4.875288   107A      4.998481  
     108A      5.273381   109A      5.315716   110A      5.512548  
     111A      5.545193   112A      5.878000   113A      5.880201  
     114A      6.079115   115A      6.229736   116A      6.837779  
     117A      6.857156   118A      6.862611   119A      6.953160  
     120A      7.712974   121A      7.780263   122A      7.826819  
     123A      7.843967   124A      7.871812   125A      7.917152  
     126A      7.944833   127A      8.007591   128A      8.198392  
     129A      8.331003   130A      8.535534   131A      8.593801  
     132A      8.699078   133A      8.755239   134A      8.797065  
     135A      8.873204   136A      8.982384   137A      9.061357  
     138A      9.145967   139A      9.537804   140A      9.842320  
     141A      9.959206   142A      9.960824   143A     10.010372  
     144A     10.431879   145A     10.477162   146A     10.656611  
     147A     10.994302   148A     11.040403   149A     11.080916  
     150A     11.260697   151A     11.365135   152A     11.436895  
     153A     11.697107   154A     11.795965   155A     11.835001  
     156A     12.010550   157A     12.177129   158A     12.222438  
     159A     12.536481   160A     12.733928   161A     12.870765  
     162A     12.895228   163A     13.210137   164A     13.996154  
     165A     14.036127   166A     14.486327   167A     14.841140  
     168A     14.873752   169A     15.294387   170A     16.919518  
     171A     17.265153   172A     45.488744  

    Final Occupation by Irrep:
              A 
    DOCC [     5 ]

  @DF-RHF Final Energy:   -76.06582003894806

   => Energetics <=

    Nuclear Repulsion Energy =              9.1787426162773418
    One-Electron Energy =                -123.0400043218075581
    Two-Electron Energy =                  37.7954416665821640
    Total Energy =                        -76.0658200389480470

Computation Completed


Properties will be evaluated at   4.356505,   2.321330,   1.899972 [a0]

Properties computed using the SCF density matrix

  Nuclear Dipole Moment: [e a0]
     X:     0.3178      Y:     0.0298      Z:    -0.8800

  Electronic Dipole Moment: [e a0]
     X:    -0.0611      Y:    -0.0055      Z:     0.1697

  Dipole Moment: [e a0]
     X:     0.2568      Y:     0.0243      Z:    -0.7103     Total:     0.7557

  Dipole Moment: [D]
     X:     0.6526      Y:     0.0616      Z:    -1.8054     Total:     1.9207


*** tstop() called on node37.bme.utexas.edu at Tue Feb 22 18:05:00 2022
Module time:
	user time   =       9.30 seconds =       0.15 minutes
	system time =       0.68 seconds =       0.01 minutes
	total time  =          5 seconds =       0.08 minutes
Total time:
	user time   =      16.69 seconds =       0.28 minutes
	system time =       1.31 seconds =       0.02 minutes
	total time  =         10 seconds =       0.17 minutes

*** tstart() called on node37.bme.utexas.edu
*** at Tue Feb 22 18:05:00 2022


  //>>>>>>>>>>>>>>>>>>>>>>>>>>>>>>>>>>>//
  //               DFMP2               //
  //<<<<<<<<<<<<<<<<<<<<<<<<<<<<<<<<<<<//

   => Loading Basis Set <=

    Name: (AUG-CC-PVQZ AUX)
    Role: RIFIT
    Keyword: DF_BASIS_MP2
    atoms 1   entry O          line   332 file /home/bdw2292/miniconda3/envs/amoebamdpoltype/share/psi4/basis/aug-cc-pvqz-ri.gbs 
    atoms 2-3 entry H          line    30 file /home/bdw2292/miniconda3/envs/amoebamdpoltype/share/psi4/basis/aug-cc-pvqz-ri.gbs 

	 --------------------------------------------------------
	                          DF-MP2                         
	      2nd-Order Density-Fitted Moller-Plesset Theory     
	              RMP2 Wavefunction,   4 Threads             
	                                                         
	        Rob Parrish, Justin Turney, Andy Simmonett,      
	           Ed Hohenstein, and C. David Sherrill          
	 --------------------------------------------------------

   => Auxiliary Basis Set <=

  Basis Set: (AUG-CC-PVQZ AUX)
    Blend: AUG-CC-PVQZ-RI
    Number of shells: 76
    Number of basis function: 328
    Number of Cartesian functions: 447
    Spherical Harmonics?: true
    Max angular momentum: 5

	 --------------------------------------------------------
	                 NBF =   172, NAUX =   328
	 --------------------------------------------------------
	   CLASS    FOCC     OCC    AOCC    AVIR     VIR    FVIR
	   PAIRS       1       5       4     167     167       0
	 --------------------------------------------------------

	-----------------------------------------------------------
	 ==================> DF-MP2 Energies <==================== 
	-----------------------------------------------------------
	 Reference Energy          =     -76.0658200389480612 [Eh]
	 Singles Energy            =      -0.0000000000000000 [Eh]
	 Same-Spin Energy          =      -0.0671761949299554 [Eh]
	 Opposite-Spin Energy      =      -0.2185574004495794 [Eh]
	 Correlation Energy        =      -0.2857335953795347 [Eh]
	 Total Energy              =     -76.3515536343276011 [Eh]
	-----------------------------------------------------------
	 ================> DF-SCS-MP2 Energies <================== 
	-----------------------------------------------------------
	 SCS Same-Spin Scale       =       0.3333333333333333 [-]
	 SCS Opposite-Spin Scale   =       1.2000000000000000 [-]
	 SCS Same-Spin Energy      =      -0.0223920649766518 [Eh]
	 SCS Opposite-Spin Energy  =      -0.2622688805394953 [Eh]
	 SCS Correlation Energy    =      -0.2846609455161471 [Eh]
	 SCS Total Energy          =     -76.3504809844642125 [Eh]
	-----------------------------------------------------------


*** tstop() called on node37.bme.utexas.edu at Tue Feb 22 18:05:01 2022
Module time:
	user time   =       3.02 seconds =       0.05 minutes
	system time =       0.26 seconds =       0.00 minutes
	total time  =          1 seconds =       0.02 minutes
Total time:
	user time   =      19.72 seconds =       0.33 minutes
	system time =       1.57 seconds =       0.03 minutes
	total time  =         11 seconds =       0.18 minutes

  //>>>>>>>>>>>>>>>>>>>>>>>>>>>>>>>>>>>//
  //  CBS Results: mp2/aug-cc-pV[TQ]Z  //
  //<<<<<<<<<<<<<<<<<<<<<<<<<<<<<<<<<<<//


   ==> HF <==

   HI-zeta (4) Energy:               -76.065820038948


   ==> Helgaker 2-point correlated extrapolation for method: MP2 <==

   LO-zeta (3) Energy:               -76.328562971024
   HI-zeta (4) Energy:               -76.351553634328
   Alpha (exponent) Value:             3.000000000000
   Extrapolated Energy:              -76.368330604846

   @Extrapolated MP2/(T,Q):          -76.368330604846



   ==> Helgaker 2-point correlated extrapolation for method: HF <==

   LO-zeta (3) Energy:               -76.060435067176
   HI-zeta (4) Energy:               -76.065820038948
   Alpha (exponent) Value:             3.000000000000
   Extrapolated Energy:              -76.069749612944

   @Extrapolated HF/(T,Q):           -76.069749612944


   ==> Components <==

  ---------------------------------------------------------------------------------------------------------
                          Method / Basis                      Rqd      Energy [Eh]   Variable
  ---------------------------------------------------------------------------------------------------------
                              hf / aug-cc-pvtz                  *     -76.06043507   HF TOTAL ENERGY
                             mp2 / aug-cc-pvtz                  *     -76.32856297   MP2 TOTAL ENERGY
                              hf / aug-cc-pvqz                  *     -76.06582004   HF TOTAL ENERGY
                             mp2 / aug-cc-pvqz                  *     -76.35155363   MP2 TOTAL ENERGY
  ---------------------------------------------------------------------------------------------------------

   ==> Stages <==

  ---------------------------------------------------------------------------------------------------------
      Stage               Method / Basis                       Wt      Energy [Eh]   Scheme
  ---------------------------------------------------------------------------------------------------------
        scf                   hf / aug-cc-pvqz                  1     -76.06582004   xtpl_highest_1
       corl                  mp2 / aug-cc-pv[tq]z               1     -76.36833060   corl_xtpl_helgaker_2
       corl                   hf / aug-cc-pv[tq]z              -1     -76.06974961   corl_xtpl_helgaker_2
  ---------------------------------------------------------------------------------------------------------

   ==> CBS <==

  ---------------------------------------------------------------------------------------------------------
      Stage               Method / Basis                               Energy [Eh]   Scheme
  ---------------------------------------------------------------------------------------------------------
        scf                   hf / aug-cc-pvqz                        -76.06582004   xtpl_highest_1
       corl                  mp2 / aug-cc-pv[tq]z                      -0.29858099   corl_xtpl_helgaker_2
      total                  CBS                                      -76.36440103   
  ---------------------------------------------------------------------------------------------------------
   => Loading Basis Set <=

    Name: DEF2-SVP
    Role: ORBITAL
    Keyword: BASIS
    atoms 1   entry O          line   130 file /home/bdw2292/miniconda3/envs/amoebamdpoltype/share/psi4/basis/def2-svp.gbs 
    atoms 2-3 entry H          line    15 file /home/bdw2292/miniconda3/envs/amoebamdpoltype/share/psi4/basis/def2-svp.gbs 


       N-Body: Complex Energy (fragments = (2,), basis = (2,):   -76.36440103085067)

       N-Body: Computing complex (2/4) with fragments (2,) in the basis of fragments (1, 2).


  //>>>>>>>>>>>>>>>>>>>>>>>>>>>>>>>>>>>//
  //   CBS Setup: mp2/aug-cc-pV[TQ]Z   //
  //<<<<<<<<<<<<<<<<<<<<<<<<<<<<<<<<<<<//

    Naive listing of computations required.
             hf / aug-cc-pvqz              for  HF TOTAL ENERGY
            mp2 / aug-cc-pvtz              for  MP2 TOTAL ENERGY
            mp2 / aug-cc-pvqz              for  MP2 TOTAL ENERGY
             hf / aug-cc-pvtz              for  HF TOTAL ENERGY
             hf / aug-cc-pvqz              for  HF TOTAL ENERGY

    Enlightened listing of computations required.
            mp2 / aug-cc-pvtz              for  MP2 TOTAL ENERGY
            mp2 / aug-cc-pvqz              for  MP2 TOTAL ENERGY

    Full listing of computations to be obtained (required and bonus).
             hf / aug-cc-pvtz              for  HF TOTAL ENERGY
            mp2 / aug-cc-pvtz              for  MP2 TOTAL ENERGY
             hf / aug-cc-pvqz              for  HF TOTAL ENERGY
            mp2 / aug-cc-pvqz              for  MP2 TOTAL ENERGY

  //>>>>>>>>>>>>>>>>>>>>>>>>>>>>>>>>>>>>//
  // CBS Computation: MP2 / AUG-CC-PVTZ //
  //<<<<<<<<<<<<<<<<<<<<<<<<<<<<<<<<<<<<//

    SCF Algorithm Type (re)set to DF.

*** tstart() called on node37.bme.utexas.edu
*** at Tue Feb 22 18:05:02 2022

   => Loading Basis Set <=

    Name: AUG-CC-PVTZ
    Role: ORBITAL
    Keyword: BASIS
    atoms 1        entry CL         line   984 file /home/bdw2292/miniconda3/envs/amoebamdpoltype/share/psi4/basis/aug-cc-pvtz.gbs 
    atoms 2        entry C          line   235 file /home/bdw2292/miniconda3/envs/amoebamdpoltype/share/psi4/basis/aug-cc-pvtz.gbs 
    atoms 3-5, 7-8 entry H          line    36 file /home/bdw2292/miniconda3/envs/amoebamdpoltype/share/psi4/basis/aug-cc-pvtz.gbs 
    atoms 6        entry O          line   327 file /home/bdw2292/miniconda3/envs/amoebamdpoltype/share/psi4/basis/aug-cc-pvtz.gbs 


         ---------------------------------------------------------
                                   SCF
               by Justin Turney, Rob Parrish, Andy Simmonett
                          and Daniel G. A. Smith
                              RHF Reference
                        4 Threads,  14305 MiB Core
         ---------------------------------------------------------

  ==> Geometry <==

    Molecular point group: c1
    Full point group: C1

    Geometry (in Angstrom), charge = 0, multiplicity = 1:

       Center              X                  Y                   Z               Mass       
    ------------   -----------------  -----------------  -----------------  -----------------
      Gh(CL)         -0.581812709721    -0.681736042194    -0.799514279455    34.968852682000
      Gh(C)          -1.378347309721     0.083160957806     0.599385520545    12.000000000000
      Gh(H)          -2.416582809721    -0.245146642194     0.647670820545     1.007825032230
      Gh(H)          -0.850178809721    -0.208767742194     1.507716020545     1.007825032230
      Gh(H)          -1.332646509721     1.165856757806     0.481235320545     1.007825032230
         O            2.283993390279     1.226393957806     1.064587920545    15.994914619570
         H            2.000944190279     0.661367957806     0.343209820545     1.007825032230
         H            2.948932890279     1.827174857806     0.728627120545     1.007825032230

  Running in c1 symmetry.

  Rotational constants: A =      0.44010  B =      0.08561  C =      0.07283 [cm^-1]
  Rotational constants: A =  13194.01068  B =   2566.39424  C =   2183.43686 [MHz]
  Nuclear repulsion =    9.178742616277342

  Charge       = 0
  Multiplicity = 1
  Electrons    = 10
  Nalpha       = 5
  Nbeta        = 5

  ==> Algorithm <==

  SCF Algorithm Type is DF.
  DIIS enabled.
  MOM disabled.
  Fractional occupation disabled.
  Guess Type is SAD.
  Energy threshold   = 1.00e-08
  Density threshold  = 1.00e-08
  Integral threshold = 0.00e+00

  ==> Primary Basis <==

  Basis Set: AUG-CC-PVTZ
    Blend: AUG-CC-PVTZ
    Number of shells: 89
    Number of basis function: 257
    Number of Cartesian functions: 294
    Spherical Harmonics?: true
    Max angular momentum: 3

   => Loading Basis Set <=

    Name: (AUG-CC-PVTZ AUX)
    Role: JKFIT
    Keyword: DF_BASIS_SCF
    atoms 1        entry CL         line   816 file /home/bdw2292/miniconda3/envs/amoebamdpoltype/share/psi4/basis/aug-cc-pvtz-jkfit.gbs 
    atoms 2        entry C          line   162 file /home/bdw2292/miniconda3/envs/amoebamdpoltype/share/psi4/basis/aug-cc-pvtz-jkfit.gbs 
    atoms 3-5, 7-8 entry H          line    70 file /home/bdw2292/miniconda3/envs/amoebamdpoltype/share/psi4/basis/aug-cc-pvtz-jkfit.gbs 
    atoms 6        entry O          line   286 file /home/bdw2292/miniconda3/envs/amoebamdpoltype/share/psi4/basis/aug-cc-pvtz-jkfit.gbs 

  ==> Pre-Iterations <==

   -------------------------------------------------------
    Irrep   Nso     Nmo     Nalpha   Nbeta   Ndocc  Nsocc
   -------------------------------------------------------
     A        257     257       0       0       0       0
   -------------------------------------------------------
    Total     257     257       5       5       5       0
   -------------------------------------------------------

  ==> Integral Setup <==

  DFHelper Memory: AOs need 0.295 GiB; user supplied 10.477 GiB. Using in-core AOs.

  ==> MemDFJK: Density-Fitted J/K Matrices <==

    J tasked:                   Yes
    K tasked:                   Yes
    wK tasked:                   No
    OpenMP threads:               4
    Memory [MiB]:             10728
    Algorithm:                 Core
    Schwarz Cutoff:           1E-12
    Mask sparsity (%):       3.6337
    Fitting Condition:        1E-10

   => Auxiliary Basis Set <=

  Basis Set: (AUG-CC-PVTZ AUX)
    Blend: AUG-CC-PVTZ-JKFIT
    Number of shells: 172
    Number of basis function: 584
    Number of Cartesian functions: 717
    Spherical Harmonics?: true
    Max angular momentum: 4

  Minimum eigenvalue in the overlap matrix is 6.5716483182E-05.
  Using Symmetric Orthogonalization.

  SCF Guess: Superposition of Atomic Densities via on-the-fly atomic UHF.

  ==> Iterations <==

                           Total Energy        Delta E     RMS |[F,P]|

   @DF-RHF iter SAD:   -75.47358573159703   -7.54736e+01   0.00000e+00 
   @DF-RHF iter   1:   -75.97654606348475   -5.02960e-01   1.82339e-03 DIIS
   @DF-RHF iter   2:   -76.02895896310135   -5.24129e-02   1.23674e-03 DIIS
   @DF-RHF iter   3:   -76.06004215050493   -3.10832e-02   8.40032e-05 DIIS
   @DF-RHF iter   4:   -76.06043241974616   -3.90269e-04   2.00800e-05 DIIS
   @DF-RHF iter   5:   -76.06045648138804   -2.40616e-05   4.52330e-06 DIIS
   @DF-RHF iter   6:   -76.06045844749958   -1.96611e-06   1.00622e-06 DIIS
   @DF-RHF iter   7:   -76.06045855571465   -1.08215e-07   1.89771e-07 DIIS
   @DF-RHF iter   8:   -76.06045855912740   -3.41275e-09   3.15219e-08 DIIS
   @DF-RHF iter   9:   -76.06045855920141   -7.40101e-11   7.83854e-09 DIIS
  Energy and wave function converged.


  ==> Post-Iterations <==

    Orbital Energies [Eh]
    ---------------------

    Doubly Occupied:                                                      

       1A    -20.565711     2A     -1.350631     3A     -0.724209  
       4A     -0.577767     5A     -0.509222  

    Virtual:                                                              

       6A      0.022757     7A      0.035455     8A      0.047371  
       9A      0.051240    10A      0.058616    11A      0.078985  
      12A      0.103165    13A      0.111798    14A      0.114162  
      15A      0.121076    16A      0.132344    17A      0.140881  
      18A      0.161137    19A      0.172299    20A      0.180994  
      21A      0.190548    22A      0.214805    23A      0.230551  
      24A      0.263702    25A      0.271019    26A      0.280455  
      27A      0.292783    28A      0.294476    29A      0.301140  
      30A      0.310505    31A      0.314205    32A      0.319521  
      33A      0.326325    34A      0.331646    35A      0.355933  
      36A      0.376943    37A      0.388706    38A      0.401677  
      39A      0.412097    40A      0.419150    41A      0.424983  
      42A      0.444776    43A      0.454919    44A      0.461887  
      45A      0.474792    46A      0.493210    47A      0.512590  
      48A      0.524908    49A      0.535906    50A      0.563751  
      51A      0.578858    52A      0.600917    53A      0.605620  
      54A      0.635831    55A      0.645818    56A      0.659957  
      57A      0.666630    58A      0.678280    59A      0.691165  
      60A      0.710009    61A      0.723167    62A      0.742920  
      63A      0.748158    64A      0.783783    65A      0.806302  
      66A      0.855863    67A      0.873906    68A      0.899458  
      69A      0.929088    70A      0.946275    71A      0.953910  
      72A      0.959850    73A      0.972167    74A      0.985893  
      75A      1.010244    76A      1.026246    77A      1.029335  
      78A      1.040721    79A      1.057207    80A      1.065381  
      81A      1.071892    82A      1.079861    83A      1.091957  
      84A      1.097974    85A      1.118050    86A      1.133951  
      87A      1.142030    88A      1.150020    89A      1.163626  
      90A      1.184870    91A      1.194194    92A      1.195071  
      93A      1.221005    94A      1.240129    95A      1.256835  
      96A      1.261368    97A      1.279191    98A      1.295232  
      99A      1.318250   100A      1.331213   101A      1.378354  
     102A      1.391465   103A      1.407799   104A      1.414896  
     105A      1.421414   106A      1.444486   107A      1.460233  
     108A      1.511544   109A      1.516151   110A      1.531510  
     111A      1.537231   112A      1.554302   113A      1.570259  
     114A      1.574522   115A      1.600977   116A      1.607138  
     117A      1.633916   118A      1.654570   119A      1.748179  
     120A      1.768469   121A      1.787148   122A      1.846933  
     123A      1.876800   124A      1.902859   125A      1.906026  
     126A      1.952023   127A      1.967471   128A      1.994071  
     129A      2.027441   130A      2.057974   131A      2.077602  
     132A      2.108570   133A      2.112211   134A      2.136048  
     135A      2.150231   136A      2.160211   137A      2.198596  
     138A      2.308874   139A      2.319088   140A      2.334189  
     141A      2.366494   142A      2.400050   143A      2.460649  
     144A      2.474655   145A      2.486246   146A      2.501631  
     147A      2.517907   148A      2.521591   149A      2.539558  
     150A      2.587145   151A      2.699315   152A      2.707008  
     153A      2.739480   154A      2.804651   155A      2.810779  
     156A      2.898434   157A      2.937710   158A      2.974054  
     159A      3.679150   160A      3.780369   161A      3.807955  
     162A      3.914859   163A      3.934462   164A      3.955979  
     165A      3.970452   166A      3.981122   167A      3.997080  
     168A      4.029357   169A      4.074308   170A      4.078345  
     171A      4.084862   172A      4.116890   173A      4.159961  
     174A      4.167214   175A      4.176875   176A      4.230397  
     177A      4.232223   178A      4.242399   179A      4.258025  
     180A      4.309353   181A      4.359634   182A      4.405571  
     183A      4.408893   184A      4.412104   185A      4.449795  
     186A      4.460305   187A      4.471596   188A      4.517441  
     189A      4.537151   190A      4.547893   191A      4.578126  
     192A      4.592812   193A      4.596181   194A      4.692282  
     195A      4.737326   196A      4.748013   197A      4.770792  
     198A      4.794319   199A      4.814548   200A      4.834714  
     201A      4.878669   202A      4.886936   203A      4.896723  
     204A      4.972819   205A      5.084033   206A      5.096559  
     207A      5.145890   208A      5.179433   209A      5.190556  
     210A      5.242409   211A      5.324522   212A      5.338268  
     213A      5.342608   214A      5.358905   215A      5.392595  
     216A      5.479222   217A      5.481658   218A      5.505437  
     219A      5.520743   220A      5.708213   221A      5.726082  
     222A      5.767068   223A      6.035035   224A      6.146550  
     225A      6.153388   226A      6.169887   227A      6.212037  
     228A      6.229515   229A      6.565317   230A      6.667459  
     231A      6.690401   232A      6.757403   233A      6.875967  
     234A      7.138867   235A      7.160638   236A      7.288185  
     237A      7.319093   238A      7.334075   239A      7.392935  
     240A      7.422676   241A      7.594360   242A      7.750459  
     243A      7.768005   244A      7.851650   245A      7.919767  
     246A      7.979965   247A      8.134366   248A      8.176997  
     249A      8.806263   250A     10.237677   251A     15.964451  
     252A     16.182784   253A     28.035565   254A     28.173455  
     255A     28.955740   256A     51.205504   257A    161.014044  

    Final Occupation by Irrep:
              A 
    DOCC [     5 ]

  @DF-RHF Final Energy:   -76.06045855920141

   => Energetics <=

    Nuclear Repulsion Energy =              9.1787426162773418
    One-Electron Energy =                -123.0233190162047379
    Two-Electron Energy =                  37.7841178407259761
    Total Energy =                        -76.0604585592014075

Computation Completed


Properties will be evaluated at   0.000000,  -0.000000,  -0.000000 [a0]

Properties computed using the SCF density matrix

  Nuclear Dipole Moment: [e a0]
     X:    43.8829      Y:    23.2431      Z:    18.1197

  Electronic Dipole Moment: [e a0]
     X:   -43.6257      Y:   -23.2189      Z:   -18.8310

  Dipole Moment: [e a0]
     X:     0.2572      Y:     0.0242      Z:    -0.7113     Total:     0.7568

  Dipole Moment: [D]
     X:     0.6537      Y:     0.0615      Z:    -1.8080     Total:     1.9235


*** tstop() called on node37.bme.utexas.edu at Tue Feb 22 18:05:10 2022
Module time:
	user time   =      19.50 seconds =       0.33 minutes
	system time =       1.16 seconds =       0.02 minutes
	total time  =          8 seconds =       0.13 minutes
Total time:
	user time   =      40.87 seconds =       0.68 minutes
	system time =       2.78 seconds =       0.05 minutes
	total time  =         20 seconds =       0.33 minutes

*** tstart() called on node37.bme.utexas.edu
*** at Tue Feb 22 18:05:10 2022


  //>>>>>>>>>>>>>>>>>>>>>>>>>>>>>>>>>>>//
  //               DFMP2               //
  //<<<<<<<<<<<<<<<<<<<<<<<<<<<<<<<<<<<//

   => Loading Basis Set <=

    Name: (AUG-CC-PVTZ AUX)
    Role: RIFIT
    Keyword: DF_BASIS_MP2
    atoms 1        entry CL         line   742 file /home/bdw2292/miniconda3/envs/amoebamdpoltype/share/psi4/basis/aug-cc-pvtz-ri.gbs 
    atoms 2        entry C          line   148 file /home/bdw2292/miniconda3/envs/amoebamdpoltype/share/psi4/basis/aug-cc-pvtz-ri.gbs 
    atoms 3-5, 7-8 entry H          line    30 file /home/bdw2292/miniconda3/envs/amoebamdpoltype/share/psi4/basis/aug-cc-pvtz-ri.gbs 
    atoms 6        entry O          line   264 file /home/bdw2292/miniconda3/envs/amoebamdpoltype/share/psi4/basis/aug-cc-pvtz-ri.gbs 

	 --------------------------------------------------------
	                          DF-MP2                         
	      2nd-Order Density-Fitted Moller-Plesset Theory     
	              RMP2 Wavefunction,   4 Threads             
	                                                         
	        Rob Parrish, Justin Turney, Andy Simmonett,      
	           Ed Hohenstein, and C. David Sherrill          
	 --------------------------------------------------------

   => Auxiliary Basis Set <=

  Basis Set: (AUG-CC-PVTZ AUX)
    Blend: AUG-CC-PVTZ-RI
    Number of shells: 163
    Number of basis function: 589
    Number of Cartesian functions: 738
    Spherical Harmonics?: true
    Max angular momentum: 4

	 --------------------------------------------------------
	                 NBF =   257, NAUX =   589
	 --------------------------------------------------------
	   CLASS    FOCC     OCC    AOCC    AVIR     VIR    FVIR
	   PAIRS       1       5       4     252     252       0
	 --------------------------------------------------------

	-----------------------------------------------------------
	 ==================> DF-MP2 Energies <==================== 
	-----------------------------------------------------------
	 Reference Energy          =     -76.0604585592014075 [Eh]
	 Singles Energy            =      -0.0000000000000000 [Eh]
	 Same-Spin Energy          =      -0.0651169631210661 [Eh]
	 Opposite-Spin Energy      =      -0.2031163180909588 [Eh]
	 Correlation Energy        =      -0.2682332812120248 [Eh]
	 Total Energy              =     -76.3286918404134269 [Eh]
	-----------------------------------------------------------
	 ================> DF-SCS-MP2 Energies <================== 
	-----------------------------------------------------------
	 SCS Same-Spin Scale       =       0.3333333333333333 [-]
	 SCS Opposite-Spin Scale   =       1.2000000000000000 [-]
	 SCS Same-Spin Energy      =      -0.0217056543736887 [Eh]
	 SCS Opposite-Spin Energy  =      -0.2437395817091505 [Eh]
	 SCS Correlation Energy    =      -0.2654452360828392 [Eh]
	 SCS Total Energy          =     -76.3259037952842476 [Eh]
	-----------------------------------------------------------


*** tstop() called on node37.bme.utexas.edu at Tue Feb 22 18:05:13 2022
Module time:
	user time   =       7.39 seconds =       0.12 minutes
	system time =       0.50 seconds =       0.01 minutes
	total time  =          3 seconds =       0.05 minutes
Total time:
	user time   =      48.26 seconds =       0.80 minutes
	system time =       3.28 seconds =       0.05 minutes
	total time  =         23 seconds =       0.38 minutes

  //>>>>>>>>>>>>>>>>>>>>>>>>>>>>>>>>>>>>//
  // CBS Computation: MP2 / AUG-CC-PVQZ //
  //<<<<<<<<<<<<<<<<<<<<<<<<<<<<<<<<<<<<//

    SCF Algorithm Type (re)set to DF.

*** tstart() called on node37.bme.utexas.edu
*** at Tue Feb 22 18:05:13 2022

   => Loading Basis Set <=

    Name: AUG-CC-PVQZ
    Role: ORBITAL
    Keyword: BASIS
    atoms 1        entry CL         line  1218 file /home/bdw2292/miniconda3/envs/amoebamdpoltype/share/psi4/basis/aug-cc-pvqz.gbs 
    atoms 2        entry C          line   299 file /home/bdw2292/miniconda3/envs/amoebamdpoltype/share/psi4/basis/aug-cc-pvqz.gbs 
    atoms 3-5, 7-8 entry H          line    36 file /home/bdw2292/miniconda3/envs/amoebamdpoltype/share/psi4/basis/aug-cc-pvqz.gbs 
    atoms 6        entry O          line   419 file /home/bdw2292/miniconda3/envs/amoebamdpoltype/share/psi4/basis/aug-cc-pvqz.gbs 


         ---------------------------------------------------------
                                   SCF
               by Justin Turney, Rob Parrish, Andy Simmonett
                          and Daniel G. A. Smith
                              RHF Reference
                        4 Threads,  14305 MiB Core
         ---------------------------------------------------------

  ==> Geometry <==

    Molecular point group: c1
    Full point group: C1

    Geometry (in Angstrom), charge = 0, multiplicity = 1:

       Center              X                  Y                   Z               Mass       
    ------------   -----------------  -----------------  -----------------  -----------------
      Gh(CL)         -0.581812709721    -0.681736042194    -0.799514279455    34.968852682000
      Gh(C)          -1.378347309721     0.083160957806     0.599385520545    12.000000000000
      Gh(H)          -2.416582809721    -0.245146642194     0.647670820545     1.007825032230
      Gh(H)          -0.850178809721    -0.208767742194     1.507716020545     1.007825032230
      Gh(H)          -1.332646509721     1.165856757806     0.481235320545     1.007825032230
         O            2.283993390279     1.226393957806     1.064587920545    15.994914619570
         H            2.000944190279     0.661367957806     0.343209820545     1.007825032230
         H            2.948932890279     1.827174857806     0.728627120545     1.007825032230

  Running in c1 symmetry.

  Rotational constants: A =      0.44010  B =      0.08561  C =      0.07283 [cm^-1]
  Rotational constants: A =  13194.01068  B =   2566.39424  C =   2183.43686 [MHz]
  Nuclear repulsion =    9.178742616277342

  Charge       = 0
  Multiplicity = 1
  Electrons    = 10
  Nalpha       = 5
  Nbeta        = 5

  ==> Algorithm <==

  SCF Algorithm Type is DF.
  DIIS enabled.
  MOM disabled.
  Fractional occupation disabled.
  Guess Type is SAD.
  Energy threshold   = 1.00e-08
  Density threshold  = 1.00e-08
  Integral threshold = 0.00e+00

  ==> Primary Basis <==

  Basis Set: AUG-CC-PVQZ
    Blend: AUG-CC-PVQZ
    Number of shells: 132
    Number of basis function: 474
    Number of Cartesian functions: 594
    Spherical Harmonics?: true
    Max angular momentum: 4

   => Loading Basis Set <=

    Name: (AUG-CC-PVQZ AUX)
    Role: JKFIT
    Keyword: DF_BASIS_SCF
    atoms 1        entry CL         line   904 file /home/bdw2292/miniconda3/envs/amoebamdpoltype/share/psi4/basis/aug-cc-pvqz-jkfit.gbs 
    atoms 2        entry C          line   178 file /home/bdw2292/miniconda3/envs/amoebamdpoltype/share/psi4/basis/aug-cc-pvqz-jkfit.gbs 
    atoms 3-5, 7-8 entry H          line    70 file /home/bdw2292/miniconda3/envs/amoebamdpoltype/share/psi4/basis/aug-cc-pvqz-jkfit.gbs 
    atoms 6        entry O          line   318 file /home/bdw2292/miniconda3/envs/amoebamdpoltype/share/psi4/basis/aug-cc-pvqz-jkfit.gbs 

  ==> Pre-Iterations <==

   -------------------------------------------------------
    Irrep   Nso     Nmo     Nalpha   Nbeta   Ndocc  Nsocc
   -------------------------------------------------------
     A        474     474       0       0       0       0
   -------------------------------------------------------
    Total     474     474       5       5       5       0
   -------------------------------------------------------

  ==> Integral Setup <==

  DFHelper Memory: AOs need 1.383 GiB; user supplied 10.477 GiB. Using in-core AOs.

  ==> MemDFJK: Density-Fitted J/K Matrices <==

    J tasked:                   Yes
    K tasked:                   Yes
    wK tasked:                   No
    OpenMP threads:               4
    Memory [MiB]:             10728
    Algorithm:                 Core
    Schwarz Cutoff:           1E-12
    Mask sparsity (%):       7.2860
    Fitting Condition:        1E-10

   => Auxiliary Basis Set <=

  Basis Set: (AUG-CC-PVQZ AUX)
    Blend: AUG-CC-PVQZ-JKFIT
    Number of shells: 204
    Number of basis function: 848
    Number of Cartesian functions: 1148
    Spherical Harmonics?: true
    Max angular momentum: 5

  Minimum eigenvalue in the overlap matrix is 1.3520377770E-05.
  Using Symmetric Orthogonalization.

  SCF Guess: Superposition of Atomic Densities via on-the-fly atomic UHF.

  ==> Iterations <==

                           Total Energy        Delta E     RMS |[F,P]|

   @DF-RHF iter SAD:   -75.47874034132211   -7.54787e+01   0.00000e+00 
   @DF-RHF iter   1:   -75.98161814556944   -5.02878e-01   9.90710e-04 DIIS
   @DF-RHF iter   2:   -76.03413230795168   -5.25142e-02   6.73506e-04 DIIS
   @DF-RHF iter   3:   -76.06541212033019   -3.12798e-02   4.58772e-05 DIIS
   @DF-RHF iter   4:   -76.06580441091680   -3.92291e-04   1.12178e-05 DIIS
   @DF-RHF iter   5:   -76.06582936215827   -2.49512e-05   2.51799e-06 DIIS
   @DF-RHF iter   6:   -76.06583140977575   -2.04762e-06   5.74921e-07 DIIS
   @DF-RHF iter   7:   -76.06583152912614   -1.19350e-07   1.11896e-07 DIIS
   @DF-RHF iter   8:   -76.06583153314288   -4.01674e-09   1.79325e-08 DIIS
   @DF-RHF iter   9:   -76.06583153322762   -8.47393e-11   4.34543e-09 DIIS
  Energy and wave function converged.


  ==> Post-Iterations <==

    Orbital Energies [Eh]
    ---------------------

    Doubly Occupied:                                                      

       1A    -20.563258     2A     -1.349907     3A     -0.724176  
       4A     -0.577826     5A     -0.509349  

    Virtual:                                                              

       6A      0.020069     7A      0.032140     8A      0.042477  
       9A      0.046002    10A      0.053523    11A      0.070042  
      12A      0.091075    13A      0.095212    14A      0.097305  
      15A      0.103110    16A      0.116920    17A      0.119400  
      18A      0.138719    19A      0.147697    20A      0.154102  
      21A      0.162094    22A      0.180800    23A      0.194173  
      24A      0.220652    25A      0.224301    26A      0.227773  
      27A      0.243728    28A      0.245170    29A      0.255725  
      30A      0.257722    31A      0.258042    32A      0.270347  
      33A      0.271817    34A      0.278847    35A      0.287370  
      36A      0.297533    37A      0.305148    38A      0.325637  
      39A      0.336246    40A      0.341769    41A      0.349523  
      42A      0.359793    43A      0.362222    44A      0.375141  
      45A      0.382200    46A      0.391741    47A      0.404358  
      48A      0.418629    49A      0.422883    50A      0.430479  
      51A      0.433195    52A      0.468952    53A      0.477961  
      54A      0.496411    55A      0.505418    56A      0.520585  
      57A      0.524623    58A      0.532309    59A      0.550115  
      60A      0.555651    61A      0.564862    62A      0.585503  
      63A      0.595844    64A      0.603143    65A      0.625651  
      66A      0.643352    67A      0.666380    68A      0.674391  
      69A      0.682046    70A      0.690626    71A      0.700833  
      72A      0.706729    73A      0.717706    74A      0.720153  
      75A      0.732265    76A      0.749791    77A      0.752383  
      78A      0.776166    79A      0.780936    80A      0.795673  
      81A      0.796802    82A      0.813452    83A      0.824189  
      84A      0.827957    85A      0.838779    86A      0.855575  
      87A      0.862647    88A      0.870426    89A      0.888902  
      90A      0.895463    91A      0.904061    92A      0.912572  
      93A      0.924946    94A      0.928026    95A      0.960577  
      96A      0.963765    97A      0.981260    98A      0.992075  
      99A      0.995040   100A      1.007025   101A      1.021766  
     102A      1.037575   103A      1.041448   104A      1.050722  
     105A      1.074755   106A      1.076131   107A      1.085057  
     108A      1.098315   109A      1.104512   110A      1.114874  
     111A      1.121390   112A      1.145958   113A      1.167184  
     114A      1.179892   115A      1.184459   116A      1.191948  
     117A      1.206212   118A      1.231400   119A      1.235406  
     120A      1.286085   121A      1.318095   122A      1.326286  
     123A      1.353488   124A      1.396964   125A      1.402681  
     126A      1.433206   127A      1.447611   128A      1.472254  
     129A      1.475187   130A      1.500211   131A      1.532912  
     132A      1.541884   133A      1.547920   134A      1.551976  
     135A      1.570070   136A      1.591594   137A      1.602601  
     138A      1.605078   139A      1.621940   140A      1.635488  
     141A      1.650014   142A      1.652216   143A      1.675614  
     144A      1.680719   145A      1.710308   146A      1.714613  
     147A      1.725102   148A      1.749018   149A      1.753562  
     150A      1.772303   151A      1.789109   152A      1.796042  
     153A      1.803729   154A      1.821504   155A      1.838247  
     156A      1.840159   157A      1.853199   158A      1.880093  
     159A      1.888719   160A      1.894745   161A      1.909445  
     162A      1.919281   163A      1.924652   164A      1.937493  
     165A      1.943518   166A      1.957143   167A      1.967933  
     168A      1.974992   169A      2.007801   170A      2.018551  
     171A      2.036121   172A      2.047169   173A      2.049988  
     174A      2.062646   175A      2.083073   176A      2.092133  
     177A      2.107005   178A      2.117074   179A      2.136733  
     180A      2.154163   181A      2.162635   182A      2.183005  
     183A      2.198409   184A      2.208854   185A      2.229814  
     186A      2.245792   187A      2.249559   188A      2.269758  
     189A      2.273802   190A      2.289798   191A      2.293862  
     192A      2.316822   193A      2.329531   194A      2.367272  
     195A      2.374190   196A      2.408240   197A      2.434543  
     198A      2.452825   199A      2.470132   200A      2.497702  
     201A      2.500707   202A      2.526340   203A      2.531339  
     204A      2.549803   205A      2.557821   206A      2.583490  
     207A      2.594395   208A      2.601227   209A      2.642939  
     210A      2.682473   211A      2.701674   212A      2.739245  
     213A      2.743831   214A      2.763970   215A      2.802807  
     216A      2.811313   217A      2.819740   218A      2.848720  
     219A      2.873867   220A      2.885462   221A      2.928551  
     222A      2.942971   223A      2.963786   224A      2.985782  
     225A      3.007016   226A      3.016262   227A      3.042029  
     228A      3.047153   229A      3.060637   230A      3.073681  
     231A      3.092381   232A      3.121420   233A      3.154750  
     234A      3.185018   235A      3.204846   236A      3.222120  
     237A      3.232757   238A      3.269919   239A      3.272674  
     240A      3.307796   241A      3.338523   242A      3.364733  
     243A      3.383071   244A      3.393319   245A      3.403728  
     246A      3.411715   247A      3.439876   248A      3.475319  
     249A      3.492400   250A      3.504730   251A      3.513024  
     252A      3.594427   253A      3.650493   254A      3.654007  
     255A      3.692954   256A      3.709234   257A      3.758699  
     258A      3.765384   259A      3.789915   260A      3.799849  
     261A      3.824914   262A      3.833715   263A      3.851721  
     264A      3.919145   265A      3.928484   266A      3.987856  
     267A      4.032163   268A      4.070536   269A      4.112142  
     270A      4.137336   271A      4.140706   272A      4.184240  
     273A      4.194755   274A      4.216848   275A      4.219378  
     276A      4.243659   277A      4.248269   278A      4.268130  
     279A      4.331982   280A      4.392451   281A      4.413845  
     282A      4.446761   283A      4.463562   284A      4.507558  
     285A      4.598115   286A      4.609463   287A      4.706398  
     288A      4.725009   289A      4.792090   290A      4.813581  
     291A      4.841879   292A      4.866573   293A      4.877175  
     294A      4.891570   295A      4.937854   296A      4.951228  
     297A      4.970419   298A      5.016679   299A      5.049522  
     300A      5.137604   301A      5.167275   302A      5.252702  
     303A      5.338083   304A      5.371216   305A      5.434480  
     306A      5.461143   307A      5.484964   308A      5.507099  
     309A      5.511776   310A      5.573298   311A      5.597143  
     312A      5.614109   313A      5.666998   314A      5.790907  
     315A      5.824022   316A      5.836069   317A      5.866951  
     318A      5.923496   319A      5.959856   320A      6.035467  
     321A      6.132462   322A      6.298598   323A      6.346652  
     324A      6.350995   325A      6.386313   326A      6.440830  
     327A      6.487339   328A      6.510901   329A      6.610017  
     330A      6.758156   331A      6.765632   332A      6.814635  
     333A      6.863759   334A      6.898616   335A      6.922226  
     336A      6.951180   337A      6.963289   338A      6.991128  
     339A      7.020076   340A      7.034772   341A      7.130575  
     342A      7.159890   343A      7.227644   344A      7.229742  
     345A      7.290307   346A      7.360489   347A      7.374517  
     348A      7.395935   349A      7.629354   350A      7.646036  
     351A      7.661946   352A      7.665389   353A      7.693603  
     354A      7.728544   355A      7.753705   356A      7.809880  
     357A      7.850482   358A      7.855589   359A      7.864839  
     360A      7.869552   361A      7.888023   362A      7.907486  
     363A      7.916757   364A      7.941317   365A      7.964232  
     366A      7.988560   367A      8.012634   368A      8.036180  
     369A      8.051486   370A      8.144434   371A      8.173762  
     372A      8.221488   373A      8.326142   374A      8.330212  
     375A      8.349305   376A      8.398956   377A      8.520356  
     378A      8.549857   379A      8.564102   380A      8.588367  
     381A      8.665526   382A      8.739363   383A      8.802888  
     384A      8.830009   385A      8.843317   386A      8.862794  
     387A      8.873355   388A      8.889686   389A      8.912506  
     390A      8.916217   391A      9.012238   392A      9.091306  
     393A      9.178604   394A      9.214507   395A      9.312799  
     396A      9.324434   397A      9.386071   398A      9.523347  
     399A      9.531354   400A      9.563442   401A      9.591993  
     402A      9.698688   403A      9.702839   404A      9.770935  
     405A      9.781321   406A      9.840293   407A      9.842896  
     408A      9.880548   409A      9.884569   410A     10.003057  
     411A     10.021741   412A     10.041146   413A     10.063596  
     414A     10.076507   415A     10.302993   416A     10.315927  
     417A     10.464533   418A     10.501047   419A     10.503419  
     420A     10.607103   421A     10.624081   422A     10.730443  
     423A     10.752995   424A     10.764417   425A     10.772440  
     426A     10.783919   427A     10.913972   428A     11.029309  
     429A     11.053856   430A     11.148769   431A     11.182018  
     432A     11.198828   433A     11.309110   434A     11.334336  
     435A     11.384365   436A     11.385508   437A     11.470566  
     438A     11.735725   439A     11.832861   440A     11.888441  
     441A     12.021421   442A     12.030601   443A     12.107593  
     444A     12.150821   445A     12.215937   446A     12.254892  
     447A     12.333508   448A     12.562430   449A     12.756438  
     450A     12.886595   451A     12.916833   452A     13.117514  
     453A     13.158188   454A     13.227805   455A     13.563281  
     456A     14.002971   457A     14.089812   458A     14.491322  
     459A     14.805725   460A     14.848795   461A     14.888451  
     462A     15.313829   463A     16.472618   464A     16.996704  
     465A     17.283481   466A     17.316363   467A     17.336633  
     468A     31.098000   469A     31.112032   470A     31.344201  
     471A     43.029423   472A     45.606171   473A     71.628581  
     474A    160.378229  

    Final Occupation by Irrep:
              A 
    DOCC [     5 ]

  @DF-RHF Final Energy:   -76.06583153322762

   => Energetics <=

    Nuclear Repulsion Energy =              9.1787426162773418
    One-Electron Energy =                -123.0401170654492375
    Two-Electron Energy =                  37.7955429159442673
    Total Energy =                        -76.0658315332276231

Computation Completed


Properties will be evaluated at   0.000000,  -0.000000,  -0.000000 [a0]

Properties computed using the SCF density matrix

  Nuclear Dipole Moment: [e a0]
     X:    43.8829      Y:    23.2431      Z:    18.1197

  Electronic Dipole Moment: [e a0]
     X:   -43.6261      Y:   -23.2188      Z:   -18.8300

  Dipole Moment: [e a0]
     X:     0.2568      Y:     0.0242      Z:    -0.7103     Total:     0.7557

  Dipole Moment: [D]
     X:     0.6527      Y:     0.0615      Z:    -1.8054     Total:     1.9208


*** tstop() called on node37.bme.utexas.edu at Tue Feb 22 18:05:43 2022
Module time:
	user time   =      72.63 seconds =       1.21 minutes
	system time =       4.40 seconds =       0.07 minutes
	total time  =         30 seconds =       0.50 minutes
Total time:
	user time   =     120.94 seconds =       2.02 minutes
	system time =       7.69 seconds =       0.13 minutes
	total time  =         53 seconds =       0.88 minutes

*** tstart() called on node37.bme.utexas.edu
*** at Tue Feb 22 18:05:43 2022


  //>>>>>>>>>>>>>>>>>>>>>>>>>>>>>>>>>>>//
  //               DFMP2               //
  //<<<<<<<<<<<<<<<<<<<<<<<<<<<<<<<<<<<//

   => Loading Basis Set <=

    Name: (AUG-CC-PVQZ AUX)
    Role: RIFIT
    Keyword: DF_BASIS_MP2
    atoms 1        entry CL         line   914 file /home/bdw2292/miniconda3/envs/amoebamdpoltype/share/psi4/basis/aug-cc-pvqz-ri.gbs 
    atoms 2        entry C          line   184 file /home/bdw2292/miniconda3/envs/amoebamdpoltype/share/psi4/basis/aug-cc-pvqz-ri.gbs 
    atoms 3-5, 7-8 entry H          line    30 file /home/bdw2292/miniconda3/envs/amoebamdpoltype/share/psi4/basis/aug-cc-pvqz-ri.gbs 
    atoms 6        entry O          line   332 file /home/bdw2292/miniconda3/envs/amoebamdpoltype/share/psi4/basis/aug-cc-pvqz-ri.gbs 

	 --------------------------------------------------------
	                          DF-MP2                         
	      2nd-Order Density-Fitted Moller-Plesset Theory     
	              RMP2 Wavefunction,   4 Threads             
	                                                         
	        Rob Parrish, Justin Turney, Andy Simmonett,      
	           Ed Hohenstein, and C. David Sherrill          
	 --------------------------------------------------------

   => Auxiliary Basis Set <=

  Basis Set: (AUG-CC-PVQZ AUX)
    Blend: AUG-CC-PVQZ-RI
    Number of shells: 216
    Number of basis function: 930
    Number of Cartesian functions: 1267
    Spherical Harmonics?: true
    Max angular momentum: 5

	 --------------------------------------------------------
	                 NBF =   474, NAUX =   930
	 --------------------------------------------------------
	   CLASS    FOCC     OCC    AOCC    AVIR     VIR    FVIR
	   PAIRS       1       5       4     469     469       0
	 --------------------------------------------------------

	-----------------------------------------------------------
	 ==================> DF-MP2 Energies <==================== 
	-----------------------------------------------------------
	 Reference Energy          =     -76.0658315332276231 [Eh]
	 Singles Energy            =      -0.0000000000000000 [Eh]
	 Same-Spin Energy          =      -0.0671794103584123 [Eh]
	 Opposite-Spin Energy      =      -0.2186022792472176 [Eh]
	 Correlation Energy        =      -0.2857816896056299 [Eh]
	 Total Energy              =     -76.3516132228332509 [Eh]
	-----------------------------------------------------------
	 ================> DF-SCS-MP2 Energies <================== 
	-----------------------------------------------------------
	 SCS Same-Spin Scale       =       0.3333333333333333 [-]
	 SCS Opposite-Spin Scale   =       1.2000000000000000 [-]
	 SCS Same-Spin Energy      =      -0.0223931367861374 [Eh]
	 SCS Opposite-Spin Energy  =      -0.2623227350966612 [Eh]
	 SCS Correlation Energy    =      -0.2847158718827986 [Eh]
	 SCS Total Energy          =     -76.3505474051104187 [Eh]
	-----------------------------------------------------------


*** tstop() called on node37.bme.utexas.edu at Tue Feb 22 18:05:56 2022
Module time:
	user time   =      28.37 seconds =       0.47 minutes
	system time =       2.18 seconds =       0.04 minutes
	total time  =         13 seconds =       0.22 minutes
Total time:
	user time   =     149.31 seconds =       2.49 minutes
	system time =       9.87 seconds =       0.16 minutes
	total time  =         66 seconds =       1.10 minutes

  //>>>>>>>>>>>>>>>>>>>>>>>>>>>>>>>>>>>//
  //  CBS Results: mp2/aug-cc-pV[TQ]Z  //
  //<<<<<<<<<<<<<<<<<<<<<<<<<<<<<<<<<<<//


   ==> HF <==

   HI-zeta (4) Energy:               -76.065831533228


   ==> Helgaker 2-point correlated extrapolation for method: MP2 <==

   LO-zeta (3) Energy:               -76.328691840413
   HI-zeta (4) Energy:               -76.351613222833
   Alpha (exponent) Value:             3.000000000000
   Extrapolated Energy:              -76.368339637032

   @Extrapolated MP2/(T,Q):          -76.368339637032



   ==> Helgaker 2-point correlated extrapolation for method: HF <==

   LO-zeta (3) Energy:               -76.060458559201
   HI-zeta (4) Energy:               -76.065831533228
   Alpha (exponent) Value:             3.000000000000
   Extrapolated Energy:              -76.069752352112

   @Extrapolated HF/(T,Q):           -76.069752352112


   ==> Components <==

  ---------------------------------------------------------------------------------------------------------
                          Method / Basis                      Rqd      Energy [Eh]   Variable
  ---------------------------------------------------------------------------------------------------------
                              hf / aug-cc-pvtz                  *     -76.06045856   HF TOTAL ENERGY
                             mp2 / aug-cc-pvtz                  *     -76.32869184   MP2 TOTAL ENERGY
                              hf / aug-cc-pvqz                  *     -76.06583153   HF TOTAL ENERGY
                             mp2 / aug-cc-pvqz                  *     -76.35161322   MP2 TOTAL ENERGY
  ---------------------------------------------------------------------------------------------------------

   ==> Stages <==

  ---------------------------------------------------------------------------------------------------------
      Stage               Method / Basis                       Wt      Energy [Eh]   Scheme
  ---------------------------------------------------------------------------------------------------------
        scf                   hf / aug-cc-pvqz                  1     -76.06583153   xtpl_highest_1
       corl                  mp2 / aug-cc-pv[tq]z               1     -76.36833964   corl_xtpl_helgaker_2
       corl                   hf / aug-cc-pv[tq]z              -1     -76.06975235   corl_xtpl_helgaker_2
  ---------------------------------------------------------------------------------------------------------

   ==> CBS <==

  ---------------------------------------------------------------------------------------------------------
      Stage               Method / Basis                               Energy [Eh]   Scheme
  ---------------------------------------------------------------------------------------------------------
        scf                   hf / aug-cc-pvqz                        -76.06583153   xtpl_highest_1
       corl                  mp2 / aug-cc-pv[tq]z                      -0.29858728   corl_xtpl_helgaker_2
      total                  CBS                                      -76.36441882   
  ---------------------------------------------------------------------------------------------------------
   => Loading Basis Set <=

    Name: DEF2-SVP
    Role: ORBITAL
    Keyword: BASIS
    atoms 1        entry CL         line   356 file /home/bdw2292/miniconda3/envs/amoebamdpoltype/share/psi4/basis/def2-svp.gbs 
    atoms 2        entry C          line    90 file /home/bdw2292/miniconda3/envs/amoebamdpoltype/share/psi4/basis/def2-svp.gbs 
    atoms 3-5, 7-8 entry H          line    15 file /home/bdw2292/miniconda3/envs/amoebamdpoltype/share/psi4/basis/def2-svp.gbs 
    atoms 6        entry O          line   130 file /home/bdw2292/miniconda3/envs/amoebamdpoltype/share/psi4/basis/def2-svp.gbs 


       N-Body: Complex Energy (fragments = (2,), basis = (1, 2):   -76.36441881814751)

       N-Body: Computing complex (3/4) with fragments (1,) in the basis of fragments (1, 2).


  //>>>>>>>>>>>>>>>>>>>>>>>>>>>>>>>>>>>//
  //   CBS Setup: mp2/aug-cc-pV[TQ]Z   //
  //<<<<<<<<<<<<<<<<<<<<<<<<<<<<<<<<<<<//

    Naive listing of computations required.
             hf / aug-cc-pvqz              for  HF TOTAL ENERGY
            mp2 / aug-cc-pvtz              for  MP2 TOTAL ENERGY
            mp2 / aug-cc-pvqz              for  MP2 TOTAL ENERGY
             hf / aug-cc-pvtz              for  HF TOTAL ENERGY
             hf / aug-cc-pvqz              for  HF TOTAL ENERGY

    Enlightened listing of computations required.
            mp2 / aug-cc-pvtz              for  MP2 TOTAL ENERGY
            mp2 / aug-cc-pvqz              for  MP2 TOTAL ENERGY

    Full listing of computations to be obtained (required and bonus).
             hf / aug-cc-pvtz              for  HF TOTAL ENERGY
            mp2 / aug-cc-pvtz              for  MP2 TOTAL ENERGY
             hf / aug-cc-pvqz              for  HF TOTAL ENERGY
            mp2 / aug-cc-pvqz              for  MP2 TOTAL ENERGY

  //>>>>>>>>>>>>>>>>>>>>>>>>>>>>>>>>>>>>//
  // CBS Computation: MP2 / AUG-CC-PVTZ //
  //<<<<<<<<<<<<<<<<<<<<<<<<<<<<<<<<<<<<//

    SCF Algorithm Type (re)set to DF.

*** tstart() called on node37.bme.utexas.edu
*** at Tue Feb 22 18:05:58 2022

   => Loading Basis Set <=

    Name: AUG-CC-PVTZ
    Role: ORBITAL
    Keyword: BASIS
    atoms 1        entry CL         line   984 file /home/bdw2292/miniconda3/envs/amoebamdpoltype/share/psi4/basis/aug-cc-pvtz.gbs 
    atoms 2        entry C          line   235 file /home/bdw2292/miniconda3/envs/amoebamdpoltype/share/psi4/basis/aug-cc-pvtz.gbs 
    atoms 3-5, 7-8 entry H          line    36 file /home/bdw2292/miniconda3/envs/amoebamdpoltype/share/psi4/basis/aug-cc-pvtz.gbs 
    atoms 6        entry O          line   327 file /home/bdw2292/miniconda3/envs/amoebamdpoltype/share/psi4/basis/aug-cc-pvtz.gbs 


         ---------------------------------------------------------
                                   SCF
               by Justin Turney, Rob Parrish, Andy Simmonett
                          and Daniel G. A. Smith
                              RHF Reference
                        4 Threads,  14305 MiB Core
         ---------------------------------------------------------

  ==> Geometry <==

    Molecular point group: c1
    Full point group: C1

    Geometry (in Angstrom), charge = 0, multiplicity = 1:

       Center              X                  Y                   Z               Mass       
    ------------   -----------------  -----------------  -----------------  -----------------
         CL          -0.581812709721    -0.681736042194    -0.799514279455    34.968852682000
         C           -1.378347309721     0.083160957806     0.599385520545    12.000000000000
         H           -2.416582809721    -0.245146642194     0.647670820545     1.007825032230
         H           -0.850178809721    -0.208767742194     1.507716020545     1.007825032230
         H           -1.332646509721     1.165856757806     0.481235320545     1.007825032230
      Gh(O)           2.283993390279     1.226393957806     1.064587920545    15.994914619570
      Gh(H)           2.000944190279     0.661367957806     0.343209820545     1.007825032230
[...]
      28A      0.117412    29A      0.120304    30A      0.130870  
      31A      0.143381    32A      0.154531    33A      0.159143  
      34A      0.166525    35A      0.174241    36A      0.198493  
      37A      0.213224    38A      0.217212    39A      0.231885  
      40A      0.234761    41A      0.241367    42A      0.247206  
      43A      0.253749    44A      0.262066    45A      0.275400  
      46A      0.277772    47A      0.278667    48A      0.294427  
      49A      0.306327    50A      0.319487    51A      0.325662  
      52A      0.336231    53A      0.341122    54A      0.347712  
      55A      0.354513    56A      0.357800    57A      0.365595  
      58A      0.373883    59A      0.378934    60A      0.388132  
      61A      0.396539    62A      0.402136    63A      0.412963  
      64A      0.424302    65A      0.457801    66A      0.472556  
      67A      0.503859    68A      0.510603    69A      0.522360  
      70A      0.551715    71A      0.554873    72A      0.566862  
      73A      0.573447    74A      0.576640    75A      0.595845  
      76A      0.601281    77A      0.609209    78A      0.620344  
      79A      0.626332    80A      0.641301    81A      0.648539  
      82A      0.656683    83A      0.665515    84A      0.676980  
      85A      0.688128    86A      0.696119    87A      0.699559  
      88A      0.705361    89A      0.718612    90A      0.727806  
      91A      0.734404    92A      0.739781    93A      0.748897  
      94A      0.755615    95A      0.758675    96A      0.777407  
      97A      0.778236    98A      0.795579    99A      0.806039  
     100A      0.809649   101A      0.812082   102A      0.826208  
     103A      0.848896   104A      0.859214   105A      0.872423  
     106A      0.874361   107A      0.897496   108A      0.902425  
     109A      0.921715   110A      0.928287   111A      0.938549  
     112A      0.960762   113A      0.974493   114A      0.988509  
     115A      0.992340   116A      1.008436   117A      1.033612  
     118A      1.044337   119A      1.060585   120A      1.091995  
     121A      1.104848   122A      1.116655   123A      1.128269  
     124A      1.164040   125A      1.169263   126A      1.179854  
     127A      1.188526   128A      1.189926   129A      1.199342  
     130A      1.208070   131A      1.233021   132A      1.250545  
     133A      1.254119   134A      1.263883   135A      1.292602  
     136A      1.298681   137A      1.304705   138A      1.319268  
     139A      1.366541   140A      1.390404   141A      1.401363  
     142A      1.432869   143A      1.463786   144A      1.466574  
     145A      1.494528   146A      1.498381   147A      1.529205  
     148A      1.535899   149A      1.552320   150A      1.573382  
     151A      1.595622   152A      1.612770   153A      1.625964  
     154A      1.640564   155A      1.659192   156A      1.666407  
     157A      1.687414   158A      1.701980   159A      1.715517  
     160A      1.721170   161A      1.729638   162A      1.732562  
     163A      1.745219   164A      1.760134   165A      1.778591  
     166A      1.793525   167A      1.803471   168A      1.807513  
     169A      1.817448   170A      1.823075   171A      1.828095  
     172A      1.842615   173A      1.846280   174A      1.859044  
     175A      1.877420   176A      1.879995   177A      1.911440  
     178A      1.922258   179A      1.929558   180A      1.936898  
     181A      1.953334   182A      1.963796   183A      1.978491  
     184A      1.984514   185A      1.994613   186A      2.003956  
     187A      2.012864   188A      2.015495   189A      2.034715  
     190A      2.037969   191A      2.053889   192A      2.060291  
     193A      2.065509   194A      2.087030   195A      2.103167  
     196A      2.125479   197A      2.126984   198A      2.151247  
     199A      2.156827   200A      2.162915   201A      2.191843  
     202A      2.195960   203A      2.204566   204A      2.230255  
     205A      2.236415   206A      2.253625   207A      2.257562  
     208A      2.267871   209A      2.275164   210A      2.284038  
     211A      2.308826   212A      2.310511   213A      2.333584  
     214A      2.351197   215A      2.365654   216A      2.370569  
     217A      2.389458   218A      2.394750   219A      2.432882  
     220A      2.447742   221A      2.452902   222A      2.510926  
     223A      2.512946   224A      2.525758   225A      2.557003  
     226A      2.566754   227A      2.615882   228A      2.661452  
     229A      2.666325   230A      2.671559   231A      2.685051  
     232A      2.709862   233A      2.774564   234A      2.789587  
     235A      2.799383   236A      2.822730   237A      2.850248  
     238A      2.856149   239A      2.880009   240A      2.918406  
     241A      2.957606   242A      2.968612   243A      2.984451  
     244A      3.014058   245A      3.020675   246A      3.041875  
     247A      3.076526   248A      3.087742   249A      3.098989  
     250A      3.111212   251A      3.128303   252A      3.141854  
     253A      3.173688   254A      3.202957   255A      3.277220  
     256A      3.285516   257A      3.334516   258A      3.360238  
     259A      3.371888   260A      3.386793   261A      3.434404  
     262A      3.481990   263A      3.579526   264A      3.600055  
     265A      3.610616   266A      3.628436   267A      3.678697  
     268A      3.697643   269A      3.708142   270A      3.754085  
     271A      3.792058   272A      3.800242   273A      3.820508  
     274A      3.825404   275A      3.846833   276A      3.859665  
     277A      3.870025   278A      3.891764   279A      3.964404  
     280A      4.028344   281A      4.057769   282A      4.111693  
     283A      4.116690   284A      4.138957   285A      4.152738  
     286A      4.176067   287A      4.195460   288A      4.208227  
     289A      4.212002   290A      4.229341   291A      4.241491  
     292A      4.273524   293A      4.281819   294A      4.330359  
     295A      4.397609   296A      4.415016   297A      4.429781  
     298A      4.493757   299A      4.510304   300A      4.523144  
     301A      4.565047   302A      4.606233   303A      4.665575  
     304A      4.681734   305A      4.701428   306A      4.710156  
     307A      4.727261   308A      4.773371   309A      4.783103  
     310A      4.793771   311A      4.816394   312A      4.833372  
     313A      4.834013   314A      4.853291   315A      4.863382  
     316A      4.873285   317A      4.888575   318A      4.905008  
     319A      4.922523   320A      4.940065   321A      4.977864  
     322A      5.032196   323A      5.041027   324A      5.059479  
     325A      5.088638   326A      5.090716   327A      5.173946  
     328A      5.188376   329A      5.230128   330A      5.363435  
     331A      5.367850   332A      5.380297   333A      5.420442  
     334A      5.558407   335A      5.568507   336A      5.627768  
     337A      5.922221   338A      5.956586   339A      6.116483  
     340A      6.120830   341A      6.144425   342A      6.217438  
     343A      6.276217   344A      6.301429   345A      6.377555  
     346A      6.393639   347A      6.515496   348A      6.610594  
     349A      6.623361   350A      6.705088   351A      6.717475  
     352A      6.753322   353A      6.811240   354A      6.828180  
     355A      6.851356   356A      6.880995   357A      6.908250  
     358A      6.932101   359A      6.955770   360A      6.958898  
     361A      6.974594   362A      6.983329   363A      6.990423  
     364A      7.010783   365A      7.100662   366A      7.127325  
     367A      7.157458   368A      7.324443   369A      7.335179  
     370A      7.356418   371A      7.493371   372A      7.589806  
     373A      7.611280   374A      7.637410   375A      7.696573  
     376A      7.700900   377A      7.740233   378A      7.792526  
     379A      7.825612   380A      7.858008   381A      7.866092  
     382A      7.881772   383A      7.892036   384A      7.916925  
     385A      7.937474   386A      7.946372   387A      8.022971  
     388A      8.036902   389A      8.220451   390A      8.281937  
     391A      8.306094   392A      8.399236   393A      8.401709  
     394A      8.411039   395A      8.429077   396A      8.519801  
     397A      8.581845   398A      8.619685   399A      8.629405  
     400A      8.663438   401A      8.742131   402A      8.803759  
     403A      8.839640   404A      8.872586   405A      8.879244  
     406A      8.912134   407A      8.940223   408A      9.013330  
     409A      9.024409   410A      9.094532   411A      9.167868  
     412A      9.179234   413A      9.215275   414A      9.220759  
     415A      9.242470   416A      9.436618   417A      9.447194  
     418A      9.562961   419A      9.580176   420A      9.584006  
     421A      9.597339   422A      9.688652   423A      9.691115  
     424A      9.883873   425A      9.953311   426A     10.003809  
     427A     10.006721   428A     10.024892   429A     10.065710  
     430A     10.141988   431A     10.168625   432A     10.348565  
     433A     10.349500   434A     10.392450   435A     10.468857  
     436A     10.507838   437A     10.769747   438A     10.795295  
     439A     10.821831   440A     10.870841   441A     10.971118  
     442A     10.984130   443A     11.034891   444A     11.056576  
     445A     11.153148   446A     11.313666   447A     11.387010  
     448A     11.449327   449A     11.473247   450A     11.737243  
     451A     11.835507   452A     11.891310   453A     12.031160  
     454A     12.216923   455A     12.256976   456A     12.565052  
     457A     12.759328   458A     12.889877   459A     12.919351  
     460A     13.134728   461A     13.179644   462A     13.229249  
     463A     13.337451   464A     14.006382   465A     14.092449  
     466A     14.494326   467A     14.850843   468A     14.890191  
     469A     15.317141   470A     16.999767   471A     17.331941  
     472A     26.404917   473A     28.662634   474A     45.609235  

    Final Occupation by Irrep:
              A 
    DOCC [    18 ]

  @DF-RHF Final Energy:  -575.22296744068149

   => Energetics <=

    Nuclear Repulsion Energy =             95.8620625884568369
    One-Electron Energy =                -983.8507699444827495
    Two-Electron Energy =                 312.7657399153443976
    Total Energy =                       -575.2229674406814866

Computation Completed


Properties will be evaluated at   0.000000,  -0.000000,  -0.000000 [a0]

Properties computed using the SCF density matrix

  Nuclear Dipole Moment: [e a0]
     X:     0.8721      Y:     3.6303      Z:     4.2136

  Electronic Dipole Moment: [e a0]
     X:    -1.0386      Y:    -3.2501      Z:    -4.2454

  Dipole Moment: [e a0]
     X:    -0.1664      Y:     0.3802      Z:    -0.0318     Total:     0.4162

  Dipole Moment: [D]
     X:    -0.4230      Y:     0.9664      Z:    -0.0808     Total:     1.0580


*** tstop() called on node37.bme.utexas.edu at Tue Feb 22 18:08:19 2022
Module time:
	user time   =      78.35 seconds =       1.31 minutes
	system time =       4.64 seconds =       0.08 minutes
	total time  =         29 seconds =       0.48 minutes
Total time:
	user time   =     469.91 seconds =       7.83 minutes
	system time =      29.30 seconds =       0.49 minutes
	total time  =        209 seconds =       3.48 minutes

*** tstart() called on node37.bme.utexas.edu
*** at Tue Feb 22 18:08:19 2022


  //>>>>>>>>>>>>>>>>>>>>>>>>>>>>>>>>>>>//
  //               DFMP2               //
  //<<<<<<<<<<<<<<<<<<<<<<<<<<<<<<<<<<<//

   => Loading Basis Set <=

    Name: (AUG-CC-PVQZ AUX)
    Role: RIFIT
    Keyword: DF_BASIS_MP2
    atoms 1        entry CL         line   914 file /home/bdw2292/miniconda3/envs/amoebamdpoltype/share/psi4/basis/aug-cc-pvqz-ri.gbs 
    atoms 2        entry C          line   184 file /home/bdw2292/miniconda3/envs/amoebamdpoltype/share/psi4/basis/aug-cc-pvqz-ri.gbs 
    atoms 3-5, 7-8 entry H          line    30 file /home/bdw2292/miniconda3/envs/amoebamdpoltype/share/psi4/basis/aug-cc-pvqz-ri.gbs 
    atoms 6        entry O          line   332 file /home/bdw2292/miniconda3/envs/amoebamdpoltype/share/psi4/basis/aug-cc-pvqz-ri.gbs 

	 --------------------------------------------------------
	                          DF-MP2                         
	      2nd-Order Density-Fitted Moller-Plesset Theory     
	              RMP2 Wavefunction,   4 Threads             
	                                                         
	        Rob Parrish, Justin Turney, Andy Simmonett,      
	           Ed Hohenstein, and C. David Sherrill          
	 --------------------------------------------------------

   => Auxiliary Basis Set <=

  Basis Set: (AUG-CC-PVQZ AUX)
    Blend: AUG-CC-PVQZ-RI
    Number of shells: 216
    Number of basis function: 930
    Number of Cartesian functions: 1267
    Spherical Harmonics?: true
    Max angular momentum: 5

	 --------------------------------------------------------
	                 NBF =   474, NAUX =   930
	 --------------------------------------------------------
	   CLASS    FOCC     OCC    AOCC    AVIR     VIR    FVIR
	   PAIRS       7      18      11     456     456       0
	 --------------------------------------------------------

	-----------------------------------------------------------
	 ==================> DF-MP2 Energies <==================== 
	-----------------------------------------------------------
	 Reference Energy          =    -575.2229674406814866 [Eh]
	 Singles Energy            =      -0.0000000000000000 [Eh]
	 Same-Spin Energy          =      -0.1559980670833706 [Eh]
	 Opposite-Spin Energy      =      -0.5380922655384975 [Eh]
	 Correlation Energy        =      -0.6940903326218681 [Eh]
	 Total Energy              =    -575.9170577733033269 [Eh]
	-----------------------------------------------------------
	 ================> DF-SCS-MP2 Energies <================== 
	-----------------------------------------------------------
	 SCS Same-Spin Scale       =       0.3333333333333333 [-]
	 SCS Opposite-Spin Scale   =       1.2000000000000000 [-]
	 SCS Same-Spin Energy      =      -0.0519993556944569 [Eh]
	 SCS Opposite-Spin Energy  =      -0.6457107186461970 [Eh]
	 SCS Correlation Energy    =      -0.6977100743406539 [Eh]
	 SCS Total Energy          =    -575.9206775150221347 [Eh]
	-----------------------------------------------------------


*** tstop() called on node37.bme.utexas.edu at Tue Feb 22 18:08:32 2022
Module time:
	user time   =      33.27 seconds =       0.55 minutes
	system time =       2.37 seconds =       0.04 minutes
	total time  =         13 seconds =       0.22 minutes
Total time:
	user time   =     503.18 seconds =       8.39 minutes
	system time =      31.67 seconds =       0.53 minutes
	total time  =        222 seconds =       3.70 minutes

  //>>>>>>>>>>>>>>>>>>>>>>>>>>>>>>>>>>>//
  //  CBS Results: mp2/aug-cc-pV[TQ]Z  //
  //<<<<<<<<<<<<<<<<<<<<<<<<<<<<<<<<<<<//


   ==> HF <==

   HI-zeta (4) Energy:               -575.222967440681


   ==> Helgaker 2-point correlated extrapolation for method: MP2 <==

   LO-zeta (3) Energy:               -575.861418109857
   HI-zeta (4) Energy:               -575.917057773303
   Alpha (exponent) Value:             3.000000000000
   Extrapolated Energy:              -575.957659689872

   @Extrapolated MP2/(T,Q):          -575.957659689872



   ==> Helgaker 2-point correlated extrapolation for method: HF <==

   LO-zeta (3) Energy:               -575.211547517385
   HI-zeta (4) Energy:               -575.222967440681
   Alpha (exponent) Value:             3.000000000000
   Extrapolated Energy:              -575.231300898222

   @Extrapolated HF/(T,Q):           -575.231300898222


   ==> Components <==

  ---------------------------------------------------------------------------------------------------------
                          Method / Basis                      Rqd      Energy [Eh]   Variable
  ---------------------------------------------------------------------------------------------------------
                              hf / aug-cc-pvtz                  *    -575.21154752   HF TOTAL ENERGY
                             mp2 / aug-cc-pvtz                  *    -575.86141811   MP2 TOTAL ENERGY
                              hf / aug-cc-pvqz                  *    -575.22296744   HF TOTAL ENERGY
                             mp2 / aug-cc-pvqz                  *    -575.91705777   MP2 TOTAL ENERGY
  ---------------------------------------------------------------------------------------------------------

   ==> Stages <==

  ---------------------------------------------------------------------------------------------------------
      Stage               Method / Basis                       Wt      Energy [Eh]   Scheme
  ---------------------------------------------------------------------------------------------------------
        scf                   hf / aug-cc-pvqz                  1    -575.22296744   xtpl_highest_1
       corl                  mp2 / aug-cc-pv[tq]z               1    -575.95765969   corl_xtpl_helgaker_2
       corl                   hf / aug-cc-pv[tq]z              -1    -575.23130090   corl_xtpl_helgaker_2
  ---------------------------------------------------------------------------------------------------------

   ==> CBS <==

  ---------------------------------------------------------------------------------------------------------
      Stage               Method / Basis                               Energy [Eh]   Scheme
  ---------------------------------------------------------------------------------------------------------
        scf                   hf / aug-cc-pvqz                       -575.22296744   xtpl_highest_1
       corl                  mp2 / aug-cc-pv[tq]z                      -0.72635879   corl_xtpl_helgaker_2
      total                  CBS                                     -575.94932623   
  ---------------------------------------------------------------------------------------------------------
   => Loading Basis Set <=

    Name: DEF2-SVP
    Role: ORBITAL
    Keyword: BASIS
    atoms 1        entry CL         line   356 file /home/bdw2292/miniconda3/envs/amoebamdpoltype/share/psi4/basis/def2-svp.gbs 
    atoms 2        entry C          line    90 file /home/bdw2292/miniconda3/envs/amoebamdpoltype/share/psi4/basis/def2-svp.gbs 
    atoms 3-5, 7-8 entry H          line    15 file /home/bdw2292/miniconda3/envs/amoebamdpoltype/share/psi4/basis/def2-svp.gbs 
    atoms 6        entry O          line   130 file /home/bdw2292/miniconda3/envs/amoebamdpoltype/share/psi4/basis/def2-svp.gbs 


       N-Body: Complex Energy (fragments = (1, 2), basis = (1, 2):  -575.94932623233183)

   ==> N-Body: Counterpoise Corrected (CP) energies <==

   n-Body     Total Energy [Eh]       I.E. [kcal/mol]      Delta [kcal/mol]
        1     -575.945684149769        0.000000000000        0.000000000000
        2     -575.949289429462       -2.262347162925       -2.262347162925

   => Loading Basis Set <=

    Name: DEF2-SVP
    Role: ORBITAL
    Keyword: BASIS
    atoms 1        entry CL         line   356 file /home/bdw2292/miniconda3/envs/amoebamdpoltype/share/psi4/basis/def2-svp.gbs 
    atoms 2        entry C          line    90 file /home/bdw2292/miniconda3/envs/amoebamdpoltype/share/psi4/basis/def2-svp.gbs 
    atoms 3-5, 7-8 entry H          line    15 file /home/bdw2292/miniconda3/envs/amoebamdpoltype/share/psi4/basis/def2-svp.gbs 
    atoms 6        entry O          line   130 file /home/bdw2292/miniconda3/envs/amoebamdpoltype/share/psi4/basis/def2-svp.gbs 

CP Energy =  -0.003605
    Psi4 stopped on: Tuesday, 22 February 2022 06:08PM
    Psi4 wall time for execution: 0:03:43.78

*** Psi4 exiting successfully. Buy a developer a beer!
