
    -----------------------------------------------------------------------
          Psi4: An Open-Source Ab Initio Electronic Structure Package
                               Psi4 1.3.2 release

                         Git: Rev {HEAD} ecbda83 


    R. M. Parrish, L. A. Burns, D. G. A. Smith, A. C. Simmonett,
    A. E. DePrince III, E. G. Hohenstein, U. Bozkaya, A. Yu. Sokolov,
    R. Di Remigio, R. M. Richard, J. F. Gonthier, A. M. James,
    H. R. McAlexander, A. Kumar, M. Saitow, X. Wang, B. P. Pritchard,
    P. Verma, H. F. Schaefer III, K. Patkowski, R. A. King, E. F. Valeev,
    F. A. Evangelista, J. M. Turney, T. D. Crawford, and C. D. Sherrill,
    J. Chem. Theory Comput. 13(7) pp 3185--3197 (2017).
    (doi: 10.1021/acs.jctc.7b00174)


                         Additional Contributions by
    P. Kraus, H. Kruse, M. H. Lechner, M. C. Schieber, R. A. Shaw,
    A. Alenaizan, R. Galvelis, Z. L. Glick, S. Lehtola, and J. P. Misiewicz

    -----------------------------------------------------------------------


    Psi4 started on: Tuesday, 22 February 2022 05:50PM

    Process ID: 26131
    Host:       node37.bme.utexas.edu
    PSIDATADIR: /home/bdw2292/miniconda3/envs/amoebamdpoltype/share/psi4
    Memory:     500.0 MiB
    Threads:    1
    
  ==> Input File <==

--------------------------------------------------------------------------
molecule { 
0 1
 Cl                  0.2237841     0.8067207    -0.4751478
  C                 -1.3125540     0.0215805    -0.0346030
  H                 -1.4593911    -0.8497931    -0.6731564
  H                 -1.2619076    -0.2891343     1.0091662
  H                 -2.1297134     0.7295137    -0.1734769
--
0 1
  O                  3.0363865    -1.8946346     1.0956618
  H                  2.5147412    -2.5600835     1.5428260
  H                  2.4387055    -1.2474069     0.7169249
}
memory 15GB
set_num_threads(4)
psi4_io.set_default_path("/scratch/bdw2292/Psi4-CH3Cl")
set maxiter 500
set freeze_core True
set PROPERTIES_ORIGIN ["COM"]
e_dim= energy('mp2/aug-cc-pV[TQ]Z',bsse_type='cp')

psi4.print_out('CP Energy = %10.6f' % (e_dim))
clean()
--------------------------------------------------------------------------

  Memory set to  13.970 GiB by Python driver.
  Threads set to 4 by Python driver.


   ===> N-Body Interaction Abacus <===
        BSSE Treatment:                     cp
        Number of 1-body computations:     4
        Number of 2-body computations:     1

   ==> N-Body: Now computing 1-body complexes <==


       N-Body: Computing complex (1/4) with fragments (2,) in the basis of fragments (2,).


  //>>>>>>>>>>>>>>>>>>>>>>>>>>>>>>>>>>>//
  //   CBS Setup: mp2/aug-cc-pV[TQ]Z   //
  //<<<<<<<<<<<<<<<<<<<<<<<<<<<<<<<<<<<//

    Naive listing of computations required.
             hf / aug-cc-pvqz              for  HF TOTAL ENERGY
            mp2 / aug-cc-pvtz              for  MP2 TOTAL ENERGY
            mp2 / aug-cc-pvqz              for  MP2 TOTAL ENERGY
             hf / aug-cc-pvtz              for  HF TOTAL ENERGY
             hf / aug-cc-pvqz              for  HF TOTAL ENERGY

    Enlightened listing of computations required.
            mp2 / aug-cc-pvtz              for  MP2 TOTAL ENERGY
            mp2 / aug-cc-pvqz              for  MP2 TOTAL ENERGY

    Full listing of computations to be obtained (required and bonus).
             hf / aug-cc-pvtz              for  HF TOTAL ENERGY
            mp2 / aug-cc-pvtz              for  MP2 TOTAL ENERGY
             hf / aug-cc-pvqz              for  HF TOTAL ENERGY
            mp2 / aug-cc-pvqz              for  MP2 TOTAL ENERGY

  //>>>>>>>>>>>>>>>>>>>>>>>>>>>>>>>>>>>>//
  // CBS Computation: MP2 / AUG-CC-PVTZ //
  //<<<<<<<<<<<<<<<<<<<<<<<<<<<<<<<<<<<<//

    SCF Algorithm Type (re)set to DF.

*** tstart() called on node37.bme.utexas.edu
*** at Tue Feb 22 17:50:58 2022

   => Loading Basis Set <=

    Name: AUG-CC-PVTZ
    Role: ORBITAL
    Keyword: BASIS
    atoms 1   entry O          line   327 file /home/bdw2292/miniconda3/envs/amoebamdpoltype/share/psi4/basis/aug-cc-pvtz.gbs 
    atoms 2-3 entry H          line    36 file /home/bdw2292/miniconda3/envs/amoebamdpoltype/share/psi4/basis/aug-cc-pvtz.gbs 


         ---------------------------------------------------------
                                   SCF
               by Justin Turney, Rob Parrish, Andy Simmonett
                          and Daniel G. A. Smith
                              RHF Reference
                        4 Threads,  14305 MiB Core
         ---------------------------------------------------------

  ==> Geometry <==

    Molecular point group: c1
    Full point group: C1

    Geometry (in Angstrom), charge = 0, multiplicity = 1:

       Center              X                  Y                   Z               Mass       
    ------------   -----------------  -----------------  -----------------  -----------------
         O            2.437223689074    -1.805147864384     1.052492374921    15.994914619570
         H            1.915578389074    -2.470596764384     1.499656574921     1.007825032230
         H            1.839542689074    -1.157920164384     0.673755474921     1.007825032230

  Running in c1 symmetry.

  Rotational constants: A =     18.80597  B =      0.09299  C =      0.09253 [cm^-1]
  Rotational constants: A = 563788.92965  B =   2787.70598  C =   2773.99179 [MHz]
  Nuclear repulsion =    9.181428435004404

  Charge       = 0
  Multiplicity = 1
  Electrons    = 10
  Nalpha       = 5
  Nbeta        = 5

  ==> Algorithm <==

  SCF Algorithm Type is DF.
  DIIS enabled.
  MOM disabled.
  Fractional occupation disabled.
  Guess Type is SAD.
  Energy threshold   = 1.00e-08
  Density threshold  = 1.00e-08
  Integral threshold = 0.00e+00

  ==> Primary Basis <==

  Basis Set: AUG-CC-PVTZ
    Blend: AUG-CC-PVTZ
    Number of shells: 32
    Number of basis function: 92
    Number of Cartesian functions: 105
    Spherical Harmonics?: true
    Max angular momentum: 3

   => Loading Basis Set <=

    Name: (AUG-CC-PVTZ AUX)
    Role: JKFIT
    Keyword: DF_BASIS_SCF
    atoms 1   entry O          line   286 file /home/bdw2292/miniconda3/envs/amoebamdpoltype/share/psi4/basis/aug-cc-pvtz-jkfit.gbs 
    atoms 2-3 entry H          line    70 file /home/bdw2292/miniconda3/envs/amoebamdpoltype/share/psi4/basis/aug-cc-pvtz-jkfit.gbs 

  ==> Pre-Iterations <==

   -------------------------------------------------------
    Irrep   Nso     Nmo     Nalpha   Nbeta   Ndocc  Nsocc
   -------------------------------------------------------
     A         92      92       0       0       0       0
   -------------------------------------------------------
    Total      92      92       5       5       5       0
   -------------------------------------------------------

  ==> Integral Setup <==

  DFHelper Memory: AOs need 0.015 GiB; user supplied 10.477 GiB. Using in-core AOs.

  ==> MemDFJK: Density-Fitted J/K Matrices <==

    J tasked:                   Yes
    K tasked:                   Yes
    wK tasked:                   No
    OpenMP threads:               4
    Memory [MiB]:             10728
    Algorithm:                 Core
    Schwarz Cutoff:           1E-12
    Mask sparsity (%):       0.0000
    Fitting Condition:        1E-10

   => Auxiliary Basis Set <=

  Basis Set: (AUG-CC-PVTZ AUX)
    Blend: AUG-CC-PVTZ-JKFIT
    Number of shells: 58
    Number of basis function: 196
    Number of Cartesian functions: 241
    Spherical Harmonics?: true
    Max angular momentum: 4

  Minimum eigenvalue in the overlap matrix is 3.7758858836E-04.
  Using Symmetric Orthogonalization.

  SCF Guess: Superposition of Atomic Densities via on-the-fly atomic UHF.

  ==> Iterations <==

                           Total Energy        Delta E     RMS |[F,P]|

   @DF-RHF iter SAD:   -75.47376341588432   -7.54738e+01   0.00000e+00 
   @DF-RHF iter   1:   -75.97655858257939   -5.02795e-01   5.09380e-03 DIIS
   @DF-RHF iter   2:   -76.02897021082720   -5.24116e-02   3.45292e-03 DIIS
   @DF-RHF iter   3:   -76.06001550338426   -3.10453e-02   2.34507e-04 DIIS
   @DF-RHF iter   4:   -76.06040543282649   -3.89929e-04   5.60163e-05 DIIS
   @DF-RHF iter   5:   -76.06042942658600   -2.39938e-05   1.26138e-05 DIIS
   @DF-RHF iter   6:   -76.06043138664624   -1.96006e-06   2.80687e-06 DIIS
   @DF-RHF iter   7:   -76.06043149460839   -1.07962e-07   5.30033e-07 DIIS
   @DF-RHF iter   8:   -76.06043149802306   -3.41467e-09   8.79596e-08 DIIS
   @DF-RHF iter   9:   -76.06043149809747   -7.44080e-11   2.18700e-08 DIIS
   @DF-RHF iter  10:   -76.06043149810134   -3.86535e-12   2.98565e-09 DIIS
  Energy and wave function converged.


  ==> Post-Iterations <==

    Orbital Energies [Eh]
    ---------------------

    Doubly Occupied:                                                      

       1A    -20.565573     2A     -1.350667     3A     -0.724786  
       4A     -0.577443     5A     -0.509189  

    Virtual:                                                              

       6A      0.029663     7A      0.047448     8A      0.136469  
       9A      0.157889    10A      0.174282    11A      0.182057  
      12A      0.228798    13A      0.244462    14A      0.263875  
      15A      0.304621    16A      0.313151    17A      0.365234  
      18A      0.437910    19A      0.466763    20A      0.602165  
      21A      0.654335    22A      0.711081    23A      0.719358  
      24A      0.731277    25A      0.828006    26A      0.843780  
      27A      0.890066    28A      0.912869    29A      0.920664  
      30A      0.923821    31A      0.927973    32A      0.971094  
      33A      1.022888    34A      1.045246    35A      1.085085  
      36A      1.113965    37A      1.172781    38A      1.177388  
      39A      1.259665    40A      1.514328    41A      1.563119  
      42A      1.595601    43A      1.785633    44A      1.797397  
      45A      2.002886    46A      2.115795    47A      2.259714  
      48A      2.318546    49A      2.321115    50A      2.413477  
      51A      2.414572    52A      2.438633    53A      2.471652  
      54A      2.686748    55A      2.703129    56A      2.767854  
      57A      2.856425    58A      2.883799    59A      3.645127  
      60A      3.769237    61A      4.007335    62A      4.089946  
      63A      4.210860    64A      4.231441    65A      4.335047  
      66A      4.381756    67A      4.400687    68A      4.415755  
      69A      4.493726    70A      4.707822    71A      4.812997  
      72A      5.124408    73A      5.171909    74A      5.304923  
      75A      5.329917    76A      5.513214    77A      5.720447  
      78A      6.140310    79A      6.534213    80A      6.713386  
      81A      6.859323    82A      7.146117    83A      7.262241  
      84A      7.299408    85A      7.308017    86A      7.370812  
      87A      7.386307    88A      7.557806    89A      7.897594  
      90A      7.962946    91A      8.788904    92A     15.853655  

    Final Occupation by Irrep:
              A 
    DOCC [     5 ]

  @DF-RHF Final Energy:   -76.06043149810134

   => Energetics <=

    Nuclear Repulsion Energy =              9.1814284350044044
    One-Electron Energy =                -123.0284047543385384
    Two-Electron Energy =                  37.7865448212327948
    Total Energy =                        -76.0604314981013374

Computation Completed


Properties will be evaluated at   4.487323,  -3.413162,   1.996158 [a0]

Properties computed using the SCF density matrix

  Nuclear Dipole Moment: [e a0]
     X:    -0.9316      Y:    -0.0152      Z:     0.0570

  Electronic Dipole Moment: [e a0]
     X:     0.1781      Y:     0.0026      Z:    -0.0107

  Dipole Moment: [e a0]
     X:    -0.7535      Y:    -0.0126      Z:     0.0463     Total:     0.7550

  Dipole Moment: [D]
     X:    -1.9152      Y:    -0.0320      Z:     0.1176     Total:     1.9191


*** tstop() called on node37.bme.utexas.edu at Tue Feb 22 17:50:59 2022
Module time:
	user time   =       4.88 seconds =       0.08 minutes
	system time =       0.37 seconds =       0.01 minutes
	total time  =          1 seconds =       0.02 minutes
Total time:
	user time   =       4.88 seconds =       0.08 minutes
	system time =       0.37 seconds =       0.01 minutes
	total time  =          1 seconds =       0.02 minutes

*** tstart() called on node37.bme.utexas.edu
*** at Tue Feb 22 17:50:59 2022


  //>>>>>>>>>>>>>>>>>>>>>>>>>>>>>>>>>>>//
  //               DFMP2               //
  //<<<<<<<<<<<<<<<<<<<<<<<<<<<<<<<<<<<//

   => Loading Basis Set <=

    Name: (AUG-CC-PVTZ AUX)
    Role: RIFIT
    Keyword: DF_BASIS_MP2
    atoms 1   entry O          line   264 file /home/bdw2292/miniconda3/envs/amoebamdpoltype/share/psi4/basis/aug-cc-pvtz-ri.gbs 
    atoms 2-3 entry H          line    30 file /home/bdw2292/miniconda3/envs/amoebamdpoltype/share/psi4/basis/aug-cc-pvtz-ri.gbs 

	 --------------------------------------------------------
	                          DF-MP2                         
	      2nd-Order Density-Fitted Moller-Plesset Theory     
	              RMP2 Wavefunction,   4 Threads             
	                                                         
	        Rob Parrish, Justin Turney, Andy Simmonett,      
	           Ed Hohenstein, and C. David Sherrill          
	 --------------------------------------------------------

   => Auxiliary Basis Set <=

  Basis Set: (AUG-CC-PVTZ AUX)
    Blend: AUG-CC-PVTZ-RI
    Number of shells: 56
    Number of basis function: 198
    Number of Cartesian functions: 246
    Spherical Harmonics?: true
    Max angular momentum: 4

	 --------------------------------------------------------
	                 NBF =    92, NAUX =   198
	 --------------------------------------------------------
	   CLASS    FOCC     OCC    AOCC    AVIR     VIR    FVIR
	   PAIRS       1       5       4      87      87       0
	 --------------------------------------------------------

	-----------------------------------------------------------
	 ==================> DF-MP2 Energies <==================== 
	-----------------------------------------------------------
	 Reference Energy          =     -76.0604314981013374 [Eh]
	 Singles Energy            =      -0.0000000000000000 [Eh]
	 Same-Spin Energy          =      -0.0650987980525631 [Eh]
	 Opposite-Spin Energy      =      -0.2029916165419614 [Eh]
	 Correlation Energy        =      -0.2680904145945245 [Eh]
	 Total Energy              =     -76.3285219126958623 [Eh]
	-----------------------------------------------------------
	 ================> DF-SCS-MP2 Energies <================== 
	-----------------------------------------------------------
	 SCS Same-Spin Scale       =       0.3333333333333333 [-]
	 SCS Opposite-Spin Scale   =       1.2000000000000000 [-]
	 SCS Same-Spin Energy      =      -0.0216995993508544 [Eh]
	 SCS Opposite-Spin Energy  =      -0.2435899398503537 [Eh]
	 SCS Correlation Energy    =      -0.2652895392012081 [Eh]
	 SCS Total Energy          =     -76.3257210373025430 [Eh]
	-----------------------------------------------------------


*** tstop() called on node37.bme.utexas.edu at Tue Feb 22 17:51:01 2022
Module time:
	user time   =       1.59 seconds =       0.03 minutes
	system time =       0.10 seconds =       0.00 minutes
	total time  =          2 seconds =       0.03 minutes
Total time:
	user time   =       6.47 seconds =       0.11 minutes
	system time =       0.47 seconds =       0.01 minutes
	total time  =          3 seconds =       0.05 minutes

  //>>>>>>>>>>>>>>>>>>>>>>>>>>>>>>>>>>>>//
  // CBS Computation: MP2 / AUG-CC-PVQZ //
  //<<<<<<<<<<<<<<<<<<<<<<<<<<<<<<<<<<<<//

    SCF Algorithm Type (re)set to DF.

*** tstart() called on node37.bme.utexas.edu
*** at Tue Feb 22 17:51:01 2022

   => Loading Basis Set <=

    Name: AUG-CC-PVQZ
    Role: ORBITAL
    Keyword: BASIS
    atoms 1   entry O          line   419 file /home/bdw2292/miniconda3/envs/amoebamdpoltype/share/psi4/basis/aug-cc-pvqz.gbs 
    atoms 2-3 entry H          line    36 file /home/bdw2292/miniconda3/envs/amoebamdpoltype/share/psi4/basis/aug-cc-pvqz.gbs 


         ---------------------------------------------------------
                                   SCF
               by Justin Turney, Rob Parrish, Andy Simmonett
                          and Daniel G. A. Smith
                              RHF Reference
                        4 Threads,  14305 MiB Core
         ---------------------------------------------------------

  ==> Geometry <==

    Molecular point group: c1
    Full point group: C1

    Geometry (in Angstrom), charge = 0, multiplicity = 1:

       Center              X                  Y                   Z               Mass       
    ------------   -----------------  -----------------  -----------------  -----------------
         O            2.437223689074    -1.805147864384     1.052492374921    15.994914619570
         H            1.915578389074    -2.470596764384     1.499656574921     1.007825032230
         H            1.839542689074    -1.157920164384     0.673755474921     1.007825032230

  Running in c1 symmetry.

  Rotational constants: A =     18.80597  B =      0.09299  C =      0.09253 [cm^-1]
  Rotational constants: A = 563788.92965  B =   2787.70598  C =   2773.99179 [MHz]
  Nuclear repulsion =    9.181428435004404

  Charge       = 0
  Multiplicity = 1
  Electrons    = 10
  Nalpha       = 5
  Nbeta        = 5

  ==> Algorithm <==

  SCF Algorithm Type is DF.
  DIIS enabled.
  MOM disabled.
  Fractional occupation disabled.
  Guess Type is SAD.
  Energy threshold   = 1.00e-08
  Density threshold  = 1.00e-08
  Integral threshold = 0.00e+00

  ==> Primary Basis <==

  Basis Set: AUG-CC-PVQZ
    Blend: AUG-CC-PVQZ
    Number of shells: 48
    Number of basis function: 172
    Number of Cartesian functions: 215
    Spherical Harmonics?: true
    Max angular momentum: 4

   => Loading Basis Set <=

    Name: (AUG-CC-PVQZ AUX)
    Role: JKFIT
    Keyword: DF_BASIS_SCF
    atoms 1   entry O          line   318 file /home/bdw2292/miniconda3/envs/amoebamdpoltype/share/psi4/basis/aug-cc-pvqz-jkfit.gbs 
    atoms 2-3 entry H          line    70 file /home/bdw2292/miniconda3/envs/amoebamdpoltype/share/psi4/basis/aug-cc-pvqz-jkfit.gbs 

  ==> Pre-Iterations <==

   -------------------------------------------------------
    Irrep   Nso     Nmo     Nalpha   Nbeta   Ndocc  Nsocc
   -------------------------------------------------------
     A        172     172       0       0       0       0
   -------------------------------------------------------
    Total     172     172       5       5       5       0
   -------------------------------------------------------

  ==> Integral Setup <==

  DFHelper Memory: AOs need 0.074 GiB; user supplied 10.477 GiB. Using in-core AOs.

  ==> MemDFJK: Density-Fitted J/K Matrices <==

    J tasked:                   Yes
    K tasked:                   Yes
    wK tasked:                   No
    OpenMP threads:               4
    Memory [MiB]:             10728
    Algorithm:                 Core
    Schwarz Cutoff:           1E-12
    Mask sparsity (%):       0.0000
    Fitting Condition:        1E-10

   => Auxiliary Basis Set <=

  Basis Set: (AUG-CC-PVQZ AUX)
    Blend: AUG-CC-PVQZ-JKFIT
    Number of shells: 70
    Number of basis function: 294
    Number of Cartesian functions: 400
    Spherical Harmonics?: true
    Max angular momentum: 5

  Minimum eigenvalue in the overlap matrix is 8.5468013539E-05.
  Using Symmetric Orthogonalization.

  SCF Guess: Superposition of Atomic Densities via on-the-fly atomic UHF.

  ==> Iterations <==

                           Total Energy        Delta E     RMS |[F,P]|

   @DF-RHF iter SAD:   -75.47891908140791   -7.54789e+01   0.00000e+00 
   @DF-RHF iter   1:   -75.98163972049181   -5.02721e-01   2.73037e-03 DIIS
   @DF-RHF iter   2:   -76.03415553804665   -5.25158e-02   1.85514e-03 DIIS
   @DF-RHF iter   3:   -76.06539885564379   -3.12433e-02   1.26348e-04 DIIS
   @DF-RHF iter   4:   -76.06579084573939   -3.91990e-04   3.08809e-05 DIIS
   @DF-RHF iter   5:   -76.06581573981411   -2.48941e-05   6.92810e-06 DIIS
   @DF-RHF iter   6:   -76.06581778229616   -2.04248e-06   1.58299e-06 DIIS
   @DF-RHF iter   7:   -76.06581790152926   -1.19233e-07   3.08507e-07 DIIS
   @DF-RHF iter   8:   -76.06581790555306   -4.02380e-09   4.93899e-08 DIIS
   @DF-RHF iter   9:   -76.06581790563695   -8.38867e-11   1.19635e-08 DIIS
   @DF-RHF iter  10:   -76.06581790564121   -4.26326e-12   1.66472e-09 DIIS
  Energy and wave function converged.


  ==> Post-Iterations <==

    Orbital Energies [Eh]
    ---------------------

    Doubly Occupied:                                                      

       1A    -20.563117     2A     -1.349941     3A     -0.724752  
       4A     -0.577495     5A     -0.509318  

    Virtual:                                                              

       6A      0.027142     7A      0.042879     8A      0.114689  
       9A      0.132637    10A      0.150359    11A      0.157878  
      12A      0.185953    13A      0.197110    14A      0.208290  
      15A      0.241238    16A      0.258896    17A      0.290441  
      18A      0.358043    19A      0.390563    20A      0.471763  
      21A      0.506748    22A      0.542990    23A      0.545727  
      24A      0.554185    25A      0.613307    26A      0.634206  
      27A      0.649547    28A      0.662665    29A      0.665841  
      30A      0.690173    31A      0.705218    32A      0.714948  
      33A      0.769541    34A      0.787546    35A      0.803479  
      36A      0.809719    37A      0.846658    38A      0.855362  
      39A      0.967496    40A      1.134226    41A      1.140624  
      42A      1.216508    43A      1.329072    44A      1.418430  
      45A      1.480450    46A      1.506174    47A      1.521469  
      48A      1.525141    49A      1.555820    50A      1.595494  
      51A      1.618115    52A      1.636565    53A      1.659661  
      54A      1.672324    55A      1.686072    56A      1.702532  
      57A      1.720064    58A      1.763237    59A      1.781271  
      60A      1.793541    61A      1.828654    62A      1.862962  
      63A      1.881998    64A      1.900750    65A      1.954211  
      66A      2.013859    67A      2.021858    68A      2.029626  
      69A      2.099152    70A      2.218635    71A      2.225631  
      72A      2.307052    73A      2.491398    74A      2.641702  
      75A      2.643000    76A      2.890535    77A      2.961955  
      78A      3.009843    79A      3.023981    80A      3.061258  
      81A      3.088201    82A      3.253337    83A      3.283527  
      84A      3.309954    85A      3.529188    86A      3.591098  
      87A      3.657831    88A      3.682065    89A      3.739194  
      90A      3.742581    91A      3.920933    92A      4.066622  
      93A      4.159480    94A      4.170537    95A      4.174862  
      96A      4.181140    97A      4.250747    98A      4.343881  
      99A      4.419234   100A      4.566082   101A      4.664245  
     102A      4.760552   103A      4.802825   104A      4.806553  
     105A      4.838842   106A      4.875359   107A      4.998502  
     108A      5.275389   109A      5.315707   110A      5.512454  
     111A      5.546941   112A      5.877981   113A      5.881679  
     114A      6.079972   115A      6.230083   116A      6.836121  
     117A      6.858714   118A      6.861768   119A      6.955155  
     120A      7.713309   121A      7.780065   122A      7.828068  
     123A      7.844910   124A      7.876555   125A      7.918297  
     126A      7.946413   127A      8.006758   128A      8.197470  
     129A      8.338036   130A      8.536365   131A      8.591654  
     132A      8.704065   133A      8.757915   134A      8.798396  
     135A      8.875301   136A      8.982044   137A      9.062933  
     138A      9.142982   139A      9.530798   140A      9.842004  
     141A      9.960945   142A      9.964453   143A     10.012486  
     144A     10.437937   145A     10.477779   146A     10.655510  
     147A     10.993367   148A     11.038543   149A     11.079771  
     150A     11.260226   151A     11.367976   152A     11.438270  
     153A     11.696879   154A     11.796316   155A     11.834909  
     156A     12.012055   157A     12.175943   158A     12.224203  
     159A     12.532537   160A     12.735455   161A     12.873410  
     162A     12.896041   163A     13.210895   164A     13.997076  
     165A     14.038186   166A     14.487021   167A     14.844918  
     168A     14.875220   169A     15.299290   170A     16.925088  
     171A     17.265936   172A     45.490517  

    Final Occupation by Irrep:
              A 
    DOCC [     5 ]

  @DF-RHF Final Energy:   -76.06581790564121

   => Energetics <=

    Nuclear Repulsion Energy =              9.1814284350044044
    One-Electron Energy =                -123.0452472667559931
    Two-Electron Energy =                  37.7980009261103689
    Total Energy =                        -76.0658179056412109

Computation Completed


Properties will be evaluated at   4.487323,  -3.413162,   1.996158 [a0]

Properties computed using the SCF density matrix

  Nuclear Dipole Moment: [e a0]
     X:    -0.9316      Y:    -0.0152      Z:     0.0570

  Electronic Dipole Moment: [e a0]
     X:     0.1789      Y:     0.0026      Z:    -0.0107

  Dipole Moment: [e a0]
     X:    -0.7527      Y:    -0.0126      Z:     0.0462     Total:     0.7542

  Dipole Moment: [D]
     X:    -1.9131      Y:    -0.0319      Z:     0.1175     Total:     1.9169


*** tstop() called on node37.bme.utexas.edu at Tue Feb 22 17:51:09 2022
Module time:
	user time   =      11.54 seconds =       0.19 minutes
	system time =       0.96 seconds =       0.02 minutes
	total time  =          8 seconds =       0.13 minutes
Total time:
	user time   =      18.06 seconds =       0.30 minutes
	system time =       1.43 seconds =       0.02 minutes
	total time  =         11 seconds =       0.18 minutes

*** tstart() called on node37.bme.utexas.edu
*** at Tue Feb 22 17:51:09 2022


  //>>>>>>>>>>>>>>>>>>>>>>>>>>>>>>>>>>>//
  //               DFMP2               //
  //<<<<<<<<<<<<<<<<<<<<<<<<<<<<<<<<<<<//

   => Loading Basis Set <=

    Name: (AUG-CC-PVQZ AUX)
    Role: RIFIT
    Keyword: DF_BASIS_MP2
    atoms 1   entry O          line   332 file /home/bdw2292/miniconda3/envs/amoebamdpoltype/share/psi4/basis/aug-cc-pvqz-ri.gbs 
    atoms 2-3 entry H          line    30 file /home/bdw2292/miniconda3/envs/amoebamdpoltype/share/psi4/basis/aug-cc-pvqz-ri.gbs 

	 --------------------------------------------------------
	                          DF-MP2                         
	      2nd-Order Density-Fitted Moller-Plesset Theory     
	              RMP2 Wavefunction,   4 Threads             
	                                                         
	        Rob Parrish, Justin Turney, Andy Simmonett,      
	           Ed Hohenstein, and C. David Sherrill          
	 --------------------------------------------------------

   => Auxiliary Basis Set <=

  Basis Set: (AUG-CC-PVQZ AUX)
    Blend: AUG-CC-PVQZ-RI
    Number of shells: 76
    Number of basis function: 328
    Number of Cartesian functions: 447
    Spherical Harmonics?: true
    Max angular momentum: 5

	 --------------------------------------------------------
	                 NBF =   172, NAUX =   328
	 --------------------------------------------------------
	   CLASS    FOCC     OCC    AOCC    AVIR     VIR    FVIR
	   PAIRS       1       5       4     167     167       0
	 --------------------------------------------------------

	-----------------------------------------------------------
	 ==================> DF-MP2 Energies <==================== 
	-----------------------------------------------------------
	 Reference Energy          =     -76.0658179056412109 [Eh]
	 Singles Energy            =      -0.0000000000000000 [Eh]
	 Same-Spin Energy          =      -0.0671681175336305 [Eh]
	 Opposite-Spin Energy      =      -0.2185301826067971 [Eh]
	 Correlation Energy        =      -0.2856983001404275 [Eh]
	 Total Energy              =     -76.3515162057816354 [Eh]
	-----------------------------------------------------------
	 ================> DF-SCS-MP2 Energies <================== 
	-----------------------------------------------------------
	 SCS Same-Spin Scale       =       0.3333333333333333 [-]
	 SCS Opposite-Spin Scale   =       1.2000000000000000 [-]
	 SCS Same-Spin Energy      =      -0.0223893725112102 [Eh]
	 SCS Opposite-Spin Energy  =      -0.2622362191281565 [Eh]
	 SCS Correlation Energy    =      -0.2846255916393666 [Eh]
	 SCS Total Energy          =     -76.3504434972805797 [Eh]
	-----------------------------------------------------------


*** tstop() called on node37.bme.utexas.edu at Tue Feb 22 17:51:11 2022
Module time:
	user time   =       2.24 seconds =       0.04 minutes
	system time =       0.16 seconds =       0.00 minutes
	total time  =          2 seconds =       0.03 minutes
Total time:
	user time   =      20.30 seconds =       0.34 minutes
	system time =       1.59 seconds =       0.03 minutes
	total time  =         13 seconds =       0.22 minutes

  //>>>>>>>>>>>>>>>>>>>>>>>>>>>>>>>>>>>//
  //  CBS Results: mp2/aug-cc-pV[TQ]Z  //
  //<<<<<<<<<<<<<<<<<<<<<<<<<<<<<<<<<<<//


   ==> HF <==

   HI-zeta (4) Energy:               -76.065817905641


   ==> Helgaker 2-point correlated extrapolation for method: MP2 <==

   LO-zeta (3) Energy:               -76.328521912696
   HI-zeta (4) Energy:               -76.351516205782
   Alpha (exponent) Value:             3.000000000000
   Extrapolated Energy:              -76.368295825060

   @Extrapolated MP2/(T,Q):          -76.368295825060



   ==> Helgaker 2-point correlated extrapolation for method: HF <==

   LO-zeta (3) Energy:               -76.060431498101
   HI-zeta (4) Energy:               -76.065817905641
   Alpha (exponent) Value:             3.000000000000
   Extrapolated Energy:              -76.069748527359

   @Extrapolated HF/(T,Q):           -76.069748527359


   ==> Components <==

  ---------------------------------------------------------------------------------------------------------
                          Method / Basis                      Rqd      Energy [Eh]   Variable
  ---------------------------------------------------------------------------------------------------------
                              hf / aug-cc-pvtz                  *     -76.06043150   HF TOTAL ENERGY
                             mp2 / aug-cc-pvtz                  *     -76.32852191   MP2 TOTAL ENERGY
                              hf / aug-cc-pvqz                  *     -76.06581791   HF TOTAL ENERGY
                             mp2 / aug-cc-pvqz                  *     -76.35151621   MP2 TOTAL ENERGY
  ---------------------------------------------------------------------------------------------------------

   ==> Stages <==

  ---------------------------------------------------------------------------------------------------------
      Stage               Method / Basis                       Wt      Energy [Eh]   Scheme
  ---------------------------------------------------------------------------------------------------------
        scf                   hf / aug-cc-pvqz                  1     -76.06581791   xtpl_highest_1
       corl                  mp2 / aug-cc-pv[tq]z               1     -76.36829583   corl_xtpl_helgaker_2
       corl                   hf / aug-cc-pv[tq]z              -1     -76.06974853   corl_xtpl_helgaker_2
  ---------------------------------------------------------------------------------------------------------

   ==> CBS <==

  ---------------------------------------------------------------------------------------------------------
      Stage               Method / Basis                               Energy [Eh]   Scheme
  ---------------------------------------------------------------------------------------------------------
        scf                   hf / aug-cc-pvqz                        -76.06581791   xtpl_highest_1
       corl                  mp2 / aug-cc-pv[tq]z                      -0.29854730   corl_xtpl_helgaker_2
      total                  CBS                                      -76.36436520   
  ---------------------------------------------------------------------------------------------------------
   => Loading Basis Set <=

    Name: DEF2-SVP
    Role: ORBITAL
    Keyword: BASIS
    atoms 1   entry O          line   130 file /home/bdw2292/miniconda3/envs/amoebamdpoltype/share/psi4/basis/def2-svp.gbs 
    atoms 2-3 entry H          line    15 file /home/bdw2292/miniconda3/envs/amoebamdpoltype/share/psi4/basis/def2-svp.gbs 


       N-Body: Complex Energy (fragments = (2,), basis = (2,):   -76.36436520334216)

       N-Body: Computing complex (2/4) with fragments (2,) in the basis of fragments (1, 2).


  //>>>>>>>>>>>>>>>>>>>>>>>>>>>>>>>>>>>//
  //   CBS Setup: mp2/aug-cc-pV[TQ]Z   //
  //<<<<<<<<<<<<<<<<<<<<<<<<<<<<<<<<<<<//

    Naive listing of computations required.
             hf / aug-cc-pvqz              for  HF TOTAL ENERGY
            mp2 / aug-cc-pvtz              for  MP2 TOTAL ENERGY
            mp2 / aug-cc-pvqz              for  MP2 TOTAL ENERGY
             hf / aug-cc-pvtz              for  HF TOTAL ENERGY
             hf / aug-cc-pvqz              for  HF TOTAL ENERGY

    Enlightened listing of computations required.
            mp2 / aug-cc-pvtz              for  MP2 TOTAL ENERGY
            mp2 / aug-cc-pvqz              for  MP2 TOTAL ENERGY

    Full listing of computations to be obtained (required and bonus).
             hf / aug-cc-pvtz              for  HF TOTAL ENERGY
            mp2 / aug-cc-pvtz              for  MP2 TOTAL ENERGY
             hf / aug-cc-pvqz              for  HF TOTAL ENERGY
            mp2 / aug-cc-pvqz              for  MP2 TOTAL ENERGY

  //>>>>>>>>>>>>>>>>>>>>>>>>>>>>>>>>>>>>//
  // CBS Computation: MP2 / AUG-CC-PVTZ //
  //<<<<<<<<<<<<<<<<<<<<<<<<<<<<<<<<<<<<//

    SCF Algorithm Type (re)set to DF.

*** tstart() called on node37.bme.utexas.edu
*** at Tue Feb 22 17:51:13 2022

   => Loading Basis Set <=

    Name: AUG-CC-PVTZ
    Role: ORBITAL
    Keyword: BASIS
    atoms 1        entry CL         line   984 file /home/bdw2292/miniconda3/envs/amoebamdpoltype/share/psi4/basis/aug-cc-pvtz.gbs 
    atoms 2        entry C          line   235 file /home/bdw2292/miniconda3/envs/amoebamdpoltype/share/psi4/basis/aug-cc-pvtz.gbs 
    atoms 3-5, 7-8 entry H          line    36 file /home/bdw2292/miniconda3/envs/amoebamdpoltype/share/psi4/basis/aug-cc-pvtz.gbs 
    atoms 6        entry O          line   327 file /home/bdw2292/miniconda3/envs/amoebamdpoltype/share/psi4/basis/aug-cc-pvtz.gbs 


         ---------------------------------------------------------
                                   SCF
               by Justin Turney, Rob Parrish, Andy Simmonett
                          and Daniel G. A. Smith
                              RHF Reference
                        4 Threads,  14305 MiB Core
         ---------------------------------------------------------

  ==> Geometry <==

    Molecular point group: c1
    Full point group: C1

    Geometry (in Angstrom), charge = 0, multiplicity = 1:

       Center              X                  Y                   Z               Mass       
    ------------   -----------------  -----------------  -----------------  -----------------
      Gh(CL)         -0.375378710926     0.896207435616    -0.518317225079    34.968852682000
      Gh(C)          -1.911716810926     0.111067235616    -0.077772425079    12.000000000000
      Gh(H)          -2.058553910926    -0.760306364384    -0.716325825079     1.007825032230
      Gh(H)          -1.861070410926    -0.199647564384     0.965996774921     1.007825032230
      Gh(H)          -2.728876210926     0.819000435616    -0.216646325079     1.007825032230
         O            2.437223689074    -1.805147864384     1.052492374921    15.994914619570
         H            1.915578389074    -2.470596764384     1.499656574921     1.007825032230
         H            1.839542689074    -1.157920164384     0.673755474921     1.007825032230

  Running in c1 symmetry.

  Rotational constants: A =      0.48183  B =      0.06654  C =      0.05912 [cm^-1]
  Rotational constants: A =  14444.77885  B =   1994.69694  C =   1772.44014 [MHz]
  Nuclear repulsion =    9.181428435004404

  Charge       = 0
  Multiplicity = 1
  Electrons    = 10
  Nalpha       = 5
  Nbeta        = 5

  ==> Algorithm <==

  SCF Algorithm Type is DF.
  DIIS enabled.
  MOM disabled.
  Fractional occupation disabled.
  Guess Type is SAD.
  Energy threshold   = 1.00e-08
  Density threshold  = 1.00e-08
  Integral threshold = 0.00e+00

  ==> Primary Basis <==

  Basis Set: AUG-CC-PVTZ
    Blend: AUG-CC-PVTZ
    Number of shells: 89
    Number of basis function: 257
    Number of Cartesian functions: 294
    Spherical Harmonics?: true
    Max angular momentum: 3

   => Loading Basis Set <=

    Name: (AUG-CC-PVTZ AUX)
    Role: JKFIT
    Keyword: DF_BASIS_SCF
    atoms 1        entry CL         line   816 file /home/bdw2292/miniconda3/envs/amoebamdpoltype/share/psi4/basis/aug-cc-pvtz-jkfit.gbs 
    atoms 2        entry C          line   162 file /home/bdw2292/miniconda3/envs/amoebamdpoltype/share/psi4/basis/aug-cc-pvtz-jkfit.gbs 
    atoms 3-5, 7-8 entry H          line    70 file /home/bdw2292/miniconda3/envs/amoebamdpoltype/share/psi4/basis/aug-cc-pvtz-jkfit.gbs 
    atoms 6        entry O          line   286 file /home/bdw2292/miniconda3/envs/amoebamdpoltype/share/psi4/basis/aug-cc-pvtz-jkfit.gbs 

  ==> Pre-Iterations <==

   -------------------------------------------------------
    Irrep   Nso     Nmo     Nalpha   Nbeta   Ndocc  Nsocc
   -------------------------------------------------------
     A        257     257       0       0       0       0
   -------------------------------------------------------
    Total     257     257       5       5       5       0
   -------------------------------------------------------

  ==> Integral Setup <==

  DFHelper Memory: AOs need 0.287 GiB; user supplied 10.477 GiB. Using in-core AOs.

  ==> MemDFJK: Density-Fitted J/K Matrices <==

    J tasked:                   Yes
    K tasked:                   Yes
    wK tasked:                   No
    OpenMP threads:               4
    Memory [MiB]:             10728
    Algorithm:                 Core
    Schwarz Cutoff:           1E-12
    Mask sparsity (%):       6.4437
    Fitting Condition:        1E-10

   => Auxiliary Basis Set <=

  Basis Set: (AUG-CC-PVTZ AUX)
    Blend: AUG-CC-PVTZ-JKFIT
    Number of shells: 172
    Number of basis function: 584
    Number of Cartesian functions: 717
    Spherical Harmonics?: true
    Max angular momentum: 4

  Minimum eigenvalue in the overlap matrix is 7.1036662165E-05.
  Using Symmetric Orthogonalization.

  SCF Guess: Superposition of Atomic Densities via on-the-fly atomic UHF.

  ==> Iterations <==

                           Total Energy        Delta E     RMS |[F,P]|

   @DF-RHF iter SAD:   -75.47376341263680   -7.54738e+01   0.00000e+00 
   @DF-RHF iter   1:   -75.97656314286436   -5.02800e-01   1.82352e-03 DIIS
   @DF-RHF iter   2:   -76.02897966966641   -5.24165e-02   1.23621e-03 DIIS
   @DF-RHF iter   3:   -76.06002898019335   -3.10493e-02   8.39534e-05 DIIS
   @DF-RHF iter   4:   -76.06041897169966   -3.89992e-04   2.00570e-05 DIIS
   @DF-RHF iter   5:   -76.06044298029919   -2.40086e-05   4.51617e-06 DIIS
   @DF-RHF iter   6:   -76.06044494125071   -1.96095e-06   1.00516e-06 DIIS
   @DF-RHF iter   7:   -76.06044504930695   -1.08056e-07   1.89911e-07 DIIS
   @DF-RHF iter   8:   -76.06044505273022   -3.42327e-09   3.15190e-08 DIIS
   @DF-RHF iter   9:   -76.06044505280445   -7.42375e-11   7.83291e-09 DIIS
  Energy and wave function converged.


  ==> Post-Iterations <==

    Orbital Energies [Eh]
    ---------------------

    Doubly Occupied:                                                      

       1A    -20.565592     2A     -1.350669     3A     -0.724787  
       4A     -0.577443     5A     -0.509186  

    Virtual:                                                              

       6A      0.017049     7A      0.035798     8A      0.042974  
       9A      0.046507    10A      0.056522    11A      0.078753  
      12A      0.094100    13A      0.107874    14A      0.110894  
      15A      0.114395    16A      0.123002    17A      0.133921  
      18A      0.165033    19A      0.171703    20A      0.175008  
      21A      0.193566    22A      0.210118    23A      0.220136  
      24A      0.246213    25A      0.260629    26A      0.263048  
      27A      0.270270    28A      0.274847    29A      0.286385  
      30A      0.293413    31A      0.303228    32A      0.310570  
      33A      0.320469    34A      0.323940    35A      0.337176  
      36A      0.356867    37A      0.376763    38A      0.387010  
      39A      0.395032    40A      0.396430    41A      0.424147  
      42A      0.431617    43A      0.443914    44A      0.449524  
      45A      0.458630    46A      0.472966    47A      0.493470  
      48A      0.514923    49A      0.555973    50A      0.566177  
      51A      0.575197    52A      0.584723    53A      0.602269  
      54A      0.618077    55A      0.651728    56A      0.654004  
      57A      0.663425    58A      0.665567    59A      0.689815  
      60A      0.707927    61A      0.727244    62A      0.729287  
      63A      0.731524    64A      0.741091    65A      0.791373  
      66A      0.866287    67A      0.891934    68A      0.914860  
      69A      0.917872    70A      0.931489    71A      0.935278  
      72A      0.950588    73A      0.956074    74A      0.968579  
      75A      0.983714    76A      0.990659    77A      1.032202  
      78A      1.035565    79A      1.039026    80A      1.046939  
      81A      1.057728    82A      1.069365    83A      1.082273  
      84A      1.089817    85A      1.093761    86A      1.110262  
      87A      1.122910    88A      1.132784    89A      1.145956  
      90A      1.158278    91A      1.172436    92A      1.181387  
      93A      1.191313    94A      1.207502    95A      1.217303  
      96A      1.230124    97A      1.244118    98A      1.271242  
      99A      1.289445   100A      1.315723   101A      1.341925  
     102A      1.356120   103A      1.375969   104A      1.382350  
     105A      1.396983   106A      1.400845   107A      1.407954  
     108A      1.478556   109A      1.504648   110A      1.516596  
     111A      1.531993   112A      1.547952   113A      1.548147  
     114A      1.575496   115A      1.584851   116A      1.613118  
     117A      1.621910   118A      1.626309   119A      1.670001  
     120A      1.732217   121A      1.775544   122A      1.818696  
     123A      1.831625   124A      1.894617   125A      1.896912  
     126A      1.924691   127A      1.955265   128A      1.974346  
     129A      2.042114   130A      2.054636   131A      2.059558  
     132A      2.071633   133A      2.104823   134A      2.117128  
     135A      2.120896   136A      2.148242   137A      2.268951  
     138A      2.302477   139A      2.315365   140A      2.325291  
     141A      2.348786   142A      2.357019   143A      2.435069  
     144A      2.459722   145A      2.473459   146A      2.495846  
     147A      2.503290   148A      2.522728   149A      2.545584  
     150A      2.572978   151A      2.687269   152A      2.702751  
     153A      2.708556   154A      2.723467   155A      2.828323  
     156A      2.894204   157A      2.900360   158A      2.955346  
     159A      3.658411   160A      3.712234   161A      3.793392  
     162A      3.907379   163A      3.929334   164A      3.942030  
     165A      3.965685   166A      3.970019   167A      3.990451  
     168A      4.011881   169A      4.023065   170A      4.068531  
     171A      4.076742   172A      4.127978   173A      4.138059  
     174A      4.158525   175A      4.171315   176A      4.195586  
     177A      4.214936   178A      4.223859   179A      4.232408  
     180A      4.250566   181A      4.337044   182A      4.384720  
     183A      4.389748   184A      4.409395   185A      4.439691  
     186A      4.440611   187A      4.450912   188A      4.464998  
     189A      4.523781   190A      4.530713   191A      4.558215  
     192A      4.574497   193A      4.586616   194A      4.682401  
     195A      4.730515   196A      4.742187   197A      4.754802  
     198A      4.799677   199A      4.807900   200A      4.824005  
     201A      4.864391   202A      4.874095   203A      4.889123  
     204A      4.961684   205A      5.077260   206A      5.091088  
     207A      5.142831   208A      5.155789   209A      5.174128  
     210A      5.231795   211A      5.319670   212A      5.326806  
     213A      5.349604   214A      5.359690   215A      5.373301  
     216A      5.465468   217A      5.469446   218A      5.473000  
     219A      5.514183   220A      5.699021   221A      5.704245  
     222A      5.742112   223A      6.027829   224A      6.135292  
     225A      6.142659   226A      6.153077   227A      6.203165  
     228A      6.214575   229A      6.546923   230A      6.652364  
     231A      6.662821   232A      6.726326   233A      6.885579  
     234A      7.121297   235A      7.148754   236A      7.269016  
     237A      7.313653   238A      7.319311   239A      7.382440  
     240A      7.399170   241A      7.653219   242A      7.732612  
     243A      7.750631   244A      7.845253   245A      7.929287  
     246A      7.976983   247A      8.113850   248A      8.137631  
     249A      8.802955   250A     10.218084   251A     16.118595  
     252A     16.230071   253A     28.031859   254A     28.122773  
     255A     28.929165   256A     51.101772   257A    161.011728  

    Final Occupation by Irrep:
              A 
    DOCC [     5 ]

  @DF-RHF Final Energy:   -76.06044505280445

   => Energetics <=

    Nuclear Repulsion Energy =              9.1814284350044044
    One-Electron Energy =                -123.0283903747927781
    Two-Electron Energy =                  37.7865168869839181
    Total Energy =                        -76.0604450528044538

Computation Completed


Properties will be evaluated at   0.000000,   0.000000,   0.000000 [a0]

Properties computed using the SCF density matrix

  Nuclear Dipole Moment: [e a0]
     X:    43.9416      Y:   -34.1468      Z:    20.0185

  Electronic Dipole Moment: [e a0]
     X:   -44.6954      Y:    34.1342      Z:   -19.9723

  Dipole Moment: [e a0]
     X:    -0.7538      Y:    -0.0126      Z:     0.0463     Total:     0.7553

  Dipole Moment: [D]
     X:    -1.9159      Y:    -0.0319      Z:     0.1176     Total:     1.9198


*** tstop() called on node37.bme.utexas.edu at Tue Feb 22 17:51:23 2022
Module time:
	user time   =      18.90 seconds =       0.32 minutes
	system time =       1.16 seconds =       0.02 minutes
	total time  =         10 seconds =       0.17 minutes
Total time:
	user time   =      41.01 seconds =       0.68 minutes
	system time =       2.80 seconds =       0.05 minutes
	total time  =         25 seconds =       0.42 minutes

*** tstart() called on node37.bme.utexas.edu
*** at Tue Feb 22 17:51:23 2022


  //>>>>>>>>>>>>>>>>>>>>>>>>>>>>>>>>>>>//
  //               DFMP2               //
  //<<<<<<<<<<<<<<<<<<<<<<<<<<<<<<<<<<<//

   => Loading Basis Set <=

    Name: (AUG-CC-PVTZ AUX)
    Role: RIFIT
    Keyword: DF_BASIS_MP2
    atoms 1        entry CL         line   742 file /home/bdw2292/miniconda3/envs/amoebamdpoltype/share/psi4/basis/aug-cc-pvtz-ri.gbs 
    atoms 2        entry C          line   148 file /home/bdw2292/miniconda3/envs/amoebamdpoltype/share/psi4/basis/aug-cc-pvtz-ri.gbs 
    atoms 3-5, 7-8 entry H          line    30 file /home/bdw2292/miniconda3/envs/amoebamdpoltype/share/psi4/basis/aug-cc-pvtz-ri.gbs 
    atoms 6        entry O          line   264 file /home/bdw2292/miniconda3/envs/amoebamdpoltype/share/psi4/basis/aug-cc-pvtz-ri.gbs 

	 --------------------------------------------------------
	                          DF-MP2                         
	      2nd-Order Density-Fitted Moller-Plesset Theory     
	              RMP2 Wavefunction,   4 Threads             
	                                                         
	        Rob Parrish, Justin Turney, Andy Simmonett,      
	           Ed Hohenstein, and C. David Sherrill          
	 --------------------------------------------------------

   => Auxiliary Basis Set <=

  Basis Set: (AUG-CC-PVTZ AUX)
    Blend: AUG-CC-PVTZ-RI
    Number of shells: 163
    Number of basis function: 589
    Number of Cartesian functions: 738
    Spherical Harmonics?: true
    Max angular momentum: 4

	 --------------------------------------------------------
	                 NBF =   257, NAUX =   589
	 --------------------------------------------------------
	   CLASS    FOCC     OCC    AOCC    AVIR     VIR    FVIR
	   PAIRS       1       5       4     252     252       0
	 --------------------------------------------------------

	-----------------------------------------------------------
	 ==================> DF-MP2 Energies <==================== 
	-----------------------------------------------------------
	 Reference Energy          =     -76.0604450528044538 [Eh]
	 Singles Energy            =      -0.0000000000000000 [Eh]
	 Same-Spin Energy          =      -0.0651058762408762 [Eh]
	 Opposite-Spin Energy      =      -0.2030580215815908 [Eh]
	 Correlation Energy        =      -0.2681638978224670 [Eh]
	 Total Energy              =     -76.3286089506269150 [Eh]
	-----------------------------------------------------------
	 ================> DF-SCS-MP2 Energies <================== 
	-----------------------------------------------------------
	 SCS Same-Spin Scale       =       0.3333333333333333 [-]
	 SCS Opposite-Spin Scale   =       1.2000000000000000 [-]
	 SCS Same-Spin Energy      =      -0.0217019587469587 [Eh]
	 SCS Opposite-Spin Energy  =      -0.2436696258979090 [Eh]
	 SCS Correlation Energy    =      -0.2653715846448677 [Eh]
	 SCS Total Energy          =     -76.3258166374493214 [Eh]
	-----------------------------------------------------------


*** tstop() called on node37.bme.utexas.edu at Tue Feb 22 17:51:27 2022
Module time:
	user time   =       7.28 seconds =       0.12 minutes
	system time =       0.49 seconds =       0.01 minutes
	total time  =          4 seconds =       0.07 minutes
Total time:
	user time   =      48.30 seconds =       0.80 minutes
	system time =       3.29 seconds =       0.05 minutes
	total time  =         29 seconds =       0.48 minutes

  //>>>>>>>>>>>>>>>>>>>>>>>>>>>>>>>>>>>>//
  // CBS Computation: MP2 / AUG-CC-PVQZ //
  //<<<<<<<<<<<<<<<<<<<<<<<<<<<<<<<<<<<<//

    SCF Algorithm Type (re)set to DF.

*** tstart() called on node37.bme.utexas.edu
*** at Tue Feb 22 17:51:27 2022

   => Loading Basis Set <=

    Name: AUG-CC-PVQZ
    Role: ORBITAL
    Keyword: BASIS
    atoms 1        entry CL         line  1218 file /home/bdw2292/miniconda3/envs/amoebamdpoltype/share/psi4/basis/aug-cc-pvqz.gbs 
    atoms 2        entry C          line   299 file /home/bdw2292/miniconda3/envs/amoebamdpoltype/share/psi4/basis/aug-cc-pvqz.gbs 
    atoms 3-5, 7-8 entry H          line    36 file /home/bdw2292/miniconda3/envs/amoebamdpoltype/share/psi4/basis/aug-cc-pvqz.gbs 
    atoms 6        entry O          line   419 file /home/bdw2292/miniconda3/envs/amoebamdpoltype/share/psi4/basis/aug-cc-pvqz.gbs 


         ---------------------------------------------------------
                                   SCF
               by Justin Turney, Rob Parrish, Andy Simmonett
                          and Daniel G. A. Smith
                              RHF Reference
                        4 Threads,  14305 MiB Core
         ---------------------------------------------------------

  ==> Geometry <==

    Molecular point group: c1
    Full point group: C1

    Geometry (in Angstrom), charge = 0, multiplicity = 1:

       Center              X                  Y                   Z               Mass       
    ------------   -----------------  -----------------  -----------------  -----------------
      Gh(CL)         -0.375378710926     0.896207435616    -0.518317225079    34.968852682000
      Gh(C)          -1.911716810926     0.111067235616    -0.077772425079    12.000000000000
      Gh(H)          -2.058553910926    -0.760306364384    -0.716325825079     1.007825032230
      Gh(H)          -1.861070410926    -0.199647564384     0.965996774921     1.007825032230
      Gh(H)          -2.728876210926     0.819000435616    -0.216646325079     1.007825032230
         O            2.437223689074    -1.805147864384     1.052492374921    15.994914619570
         H            1.915578389074    -2.470596764384     1.499656574921     1.007825032230
         H            1.839542689074    -1.157920164384     0.673755474921     1.007825032230

  Running in c1 symmetry.

  Rotational constants: A =      0.48183  B =      0.06654  C =      0.05912 [cm^-1]
  Rotational constants: A =  14444.77885  B =   1994.69694  C =   1772.44014 [MHz]
  Nuclear repulsion =    9.181428435004404

  Charge       = 0
  Multiplicity = 1
  Electrons    = 10
  Nalpha       = 5
  Nbeta        = 5

  ==> Algorithm <==

  SCF Algorithm Type is DF.
  DIIS enabled.
  MOM disabled.
  Fractional occupation disabled.
  Guess Type is SAD.
  Energy threshold   = 1.00e-08
  Density threshold  = 1.00e-08
  Integral threshold = 0.00e+00

  ==> Primary Basis <==

  Basis Set: AUG-CC-PVQZ
    Blend: AUG-CC-PVQZ
    Number of shells: 132
    Number of basis function: 474
    Number of Cartesian functions: 594
    Spherical Harmonics?: true
    Max angular momentum: 4

   => Loading Basis Set <=

    Name: (AUG-CC-PVQZ AUX)
    Role: JKFIT
    Keyword: DF_BASIS_SCF
    atoms 1        entry CL         line   904 file /home/bdw2292/miniconda3/envs/amoebamdpoltype/share/psi4/basis/aug-cc-pvqz-jkfit.gbs 
    atoms 2        entry C          line   178 file /home/bdw2292/miniconda3/envs/amoebamdpoltype/share/psi4/basis/aug-cc-pvqz-jkfit.gbs 
    atoms 3-5, 7-8 entry H          line    70 file /home/bdw2292/miniconda3/envs/amoebamdpoltype/share/psi4/basis/aug-cc-pvqz-jkfit.gbs 
    atoms 6        entry O          line   318 file /home/bdw2292/miniconda3/envs/amoebamdpoltype/share/psi4/basis/aug-cc-pvqz-jkfit.gbs 

  ==> Pre-Iterations <==

   -------------------------------------------------------
    Irrep   Nso     Nmo     Nalpha   Nbeta   Ndocc  Nsocc
   -------------------------------------------------------
     A        474     474       0       0       0       0
   -------------------------------------------------------
    Total     474     474       5       5       5       0
   -------------------------------------------------------

  ==> Integral Setup <==

  DFHelper Memory: AOs need 1.331 GiB; user supplied 10.477 GiB. Using in-core AOs.

  ==> MemDFJK: Density-Fitted J/K Matrices <==

    J tasked:                   Yes
    K tasked:                   Yes
    wK tasked:                   No
    OpenMP threads:               4
    Memory [MiB]:             10728
    Algorithm:                 Core
    Schwarz Cutoff:           1E-12
    Mask sparsity (%):      10.9972
    Fitting Condition:        1E-10

   => Auxiliary Basis Set <=

  Basis Set: (AUG-CC-PVQZ AUX)
    Blend: AUG-CC-PVQZ-JKFIT
    Number of shells: 204
    Number of basis function: 848
    Number of Cartesian functions: 1148
    Spherical Harmonics?: true
    Max angular momentum: 5

  Minimum eigenvalue in the overlap matrix is 1.5082582544E-05.
  Using Symmetric Orthogonalization.

  SCF Guess: Superposition of Atomic Densities via on-the-fly atomic UHF.

  ==> Iterations <==

                           Total Energy        Delta E     RMS |[F,P]|

   @DF-RHF iter SAD:   -75.47891907801309   -7.54789e+01   0.00000e+00 
   @DF-RHF iter   1:   -75.98164280268855   -5.02724e-01   9.90785e-04 DIIS
   @DF-RHF iter   2:   -76.03416001023513   -5.25172e-02   6.73208e-04 DIIS
   @DF-RHF iter   3:   -76.06540485011519   -3.12448e-02   4.58491e-05 DIIS
   @DF-RHF iter   4:   -76.06579686112752   -3.92011e-04   1.12059e-05 DIIS
   @DF-RHF iter   5:   -76.06582175617169   -2.48950e-05   2.51410e-06 DIIS
   @DF-RHF iter   6:   -76.06582379889899   -2.04273e-06   5.74431e-07 DIIS
   @DF-RHF iter   7:   -76.06582391815593   -1.19257e-07   1.11998e-07 DIIS
   @DF-RHF iter   8:   -76.06582392218512   -4.02919e-09   1.79368e-08 DIIS
   @DF-RHF iter   9:   -76.06582392226956   -8.44409e-11   4.34473e-09 DIIS
  Energy and wave function converged.


  ==> Post-Iterations <==

    Orbital Energies [Eh]
    ---------------------

    Doubly Occupied:                                                      

       1A    -20.563109     2A     -1.349935     3A     -0.724746  
       4A     -0.577491     5A     -0.509314  

    Virtual:                                                              

       6A      0.015337     7A      0.032610     8A      0.038890  
       9A      0.041735    10A      0.051707    11A      0.070507  
      12A      0.082651    13A      0.092471    14A      0.094720  
      15A      0.099766    16A      0.105907    17A      0.116472  
      18A      0.142998    19A      0.147183    20A      0.148550  
      21A      0.166607    22A      0.174240    23A      0.186248  
      24A      0.207274    25A      0.212277    26A      0.217413  
      27A      0.225653    28A      0.230660    29A      0.239413  
      30A      0.251395    31A      0.253522    32A      0.255317  
      33A      0.266762    34A      0.272347    35A      0.277421  
      36A      0.285921    37A      0.294811    38A      0.299966  
      39A      0.315297    40A      0.333771    41A      0.336063  
      42A      0.345679    43A      0.354379    44A      0.370784  
      45A      0.378331    46A      0.382650    47A      0.397739  
      48A      0.405566    49A      0.420315    50A      0.427805  
      51A      0.447885    52A      0.475818    53A      0.477307  
      54A      0.491576    55A      0.504386    56A      0.519119  
      57A      0.524619    58A      0.533188    59A      0.546089  
      60A      0.551158    61A      0.553925    62A      0.562754  
      63A      0.566320    64A      0.591116    65A      0.615696  
      66A      0.638896    67A      0.659703    68A      0.668293  
      69A      0.671392    70A      0.675152    71A      0.686944  
      72A      0.698592    73A      0.706991    74A      0.713993  
      75A      0.724670    76A      0.732964    77A      0.738550  
      78A      0.758089    79A      0.762778    80A      0.774901  
      81A      0.781162    82A      0.792445    83A      0.799785  
      84A      0.813384    85A      0.823489    86A      0.826978  
      87A      0.852569    88A      0.854139    89A      0.866889  
      90A      0.872987    91A      0.879622    92A      0.886512  
      93A      0.895596    94A      0.901739    95A      0.918735  
      96A      0.935099    97A      0.944141    98A      0.964145  
      99A      0.976817   100A      0.988326   101A      1.002593  
     102A      1.009056   103A      1.027745   104A      1.029469  
     105A      1.032880   106A      1.056620   107A      1.066083  
     108A      1.079351   109A      1.084958   110A      1.100045  
     111A      1.112530   112A      1.120217   113A      1.143127  
     114A      1.151685   115A      1.162094   116A      1.185798  
     117A      1.208052   118A      1.212147   119A      1.221154  
     120A      1.260976   121A      1.283723   122A      1.309054  
     123A      1.317862   124A      1.344221   125A      1.414626  
     126A      1.425624   127A      1.439682   128A      1.460815  
     129A      1.473523   130A      1.491275   131A      1.511440  
     132A      1.520550   133A      1.527270   134A      1.545299  
     135A      1.565170   136A      1.588251   137A      1.597293  
     138A      1.606966   139A      1.610890   140A      1.637669  
     141A      1.645842   142A      1.650951   143A      1.667157  
     144A      1.678557   145A      1.681798   146A      1.690149  
     147A      1.690308   148A      1.706298   149A      1.720912  
     150A      1.758677   151A      1.762543   152A      1.778834  
     153A      1.785920   154A      1.798601   155A      1.810076  
     156A      1.824560   157A      1.849597   158A      1.864485  
     159A      1.867944   160A      1.880057   161A      1.887608  
     162A      1.894475   163A      1.897140   164A      1.923397  
     165A      1.927759   166A      1.936520   167A      1.942548  
     168A      1.961098   169A      1.966410   170A      1.988759  
     171A      1.998299   172A      2.011588   173A      2.027389  
     174A      2.033138   175A      2.039386   176A      2.055582  
     177A      2.073516   178A      2.084585   179A      2.092586  
     180A      2.112790   181A      2.128588   182A      2.144234  
     183A      2.149743   184A      2.164942   185A      2.169309  
     186A      2.199110   187A      2.209654   188A      2.212470  
     189A      2.224221   190A      2.239392   191A      2.255902  
     192A      2.274296   193A      2.287286   194A      2.305672  
     195A      2.327009   196A      2.364251   197A      2.378381  
     198A      2.397489   199A      2.404245   200A      2.480592  
     201A      2.491160   202A      2.503258   203A      2.510122  
     204A      2.528520   205A      2.547143   206A      2.557011  
     207A      2.579470   208A      2.595354   209A      2.628087  
     210A      2.650198   211A      2.690798   212A      2.712212  
     213A      2.729182   214A      2.742764   215A      2.794768  
     216A      2.798897   217A      2.804721   218A      2.824311  
     219A      2.847100   220A      2.860173   221A      2.895737  
     222A      2.915339   223A      2.947010   224A      2.964409  
     225A      2.992653   226A      2.999937   227A      3.006955  
     228A      3.017307   229A      3.028579   230A      3.048855  
     231A      3.069703   232A      3.097691   233A      3.104057  
     234A      3.131182   235A      3.188671   236A      3.206829  
     237A      3.237217   238A      3.257510   239A      3.260976  
     240A      3.265603   241A      3.272921   242A      3.321745  
     243A      3.357580   244A      3.370766   245A      3.377219  
     246A      3.395239   247A      3.396123   248A      3.413697  
     249A      3.477566   250A      3.479465   251A      3.483111  
     252A      3.584802   253A      3.626977   254A      3.632274  
     255A      3.643287   256A      3.671617   257A      3.712891  
     258A      3.755198   259A      3.760375   260A      3.795730  
     261A      3.810429   262A      3.818816   263A      3.882830  
     264A      3.900272   265A      3.903200   266A      3.938378  
     267A      3.967685   268A      4.052125   269A      4.097824  
     270A      4.104817   271A      4.122467   272A      4.164661  
     273A      4.185856   274A      4.206484   275A      4.217404  
     276A      4.227722   277A      4.242400   278A      4.254412  
     279A      4.306657   280A      4.373368   281A      4.425695  
     282A      4.433200   283A      4.468871   284A      4.571420  
     285A      4.576447   286A      4.600906   287A      4.673619  
     288A      4.705447   289A      4.718819   290A      4.803759  
     291A      4.825522   292A      4.826002   293A      4.841831  
     294A      4.871023   295A      4.892528   296A      4.913840  
     297A      4.937641   298A      4.968866   299A      5.045462  
     300A      5.127378   301A      5.145276   302A      5.235167  
     303A      5.313183   304A      5.414953   305A      5.429427  
     306A      5.437454   307A      5.460968   308A      5.472742  
     309A      5.502224   310A      5.544290   311A      5.572141  
     312A      5.608238   313A      5.644832   314A      5.785556  
     315A      5.795287   316A      5.828559   317A      5.879382  
     318A      5.887984   319A      5.905866   320A      6.008290  
     321A      6.122324   322A      6.251634   323A      6.335577  
     324A      6.356164   325A      6.388835   326A      6.429672  
     327A      6.483629   328A      6.501990   329A      6.608162  
     330A      6.750801   331A      6.756577   332A      6.797097  
     333A      6.843178   334A      6.860939   335A      6.866723  
     336A      6.916617   337A      6.936227   338A      6.942533  
     339A      6.976688   340A      7.006815   341A      7.120220  
     342A      7.131362   343A      7.208378   344A      7.213210  
     345A      7.277798   346A      7.345196   347A      7.362562  
     348A      7.375063   349A      7.617282   350A      7.627518  
     351A      7.640733   352A      7.648488   353A      7.660499  
     354A      7.727454   355A      7.747157   356A      7.796620  
     357A      7.833396   358A      7.842464   359A      7.860196  
     360A      7.861915   361A      7.881236   362A      7.889515  
     363A      7.901161   364A      7.905950   365A      7.937381  
     366A      7.972067   367A      7.977717   368A      8.018770  
     369A      8.049045   370A      8.129085   371A      8.155031  
     372A      8.201213   373A      8.317940   374A      8.319912  
     375A      8.331253   376A      8.374351   377A      8.495707  
     378A      8.535549   379A      8.539036   380A      8.567431  
     381A      8.600519   382A      8.738358   383A      8.776699  
     384A      8.826896   385A      8.837148   386A      8.845395  
     387A      8.864346   388A      8.872435   389A      8.881654  
     390A      8.897885   391A      8.987898   392A      9.090414  
     393A      9.167322   394A      9.195159   395A      9.295710  
     396A      9.300850   397A      9.375625   398A      9.513532  
     399A      9.515290   400A      9.552115   401A      9.576924  
     402A      9.683626   403A      9.689204   404A      9.759859  
     405A      9.765986   406A      9.828336   407A      9.830704  
     408A      9.863523   409A      9.869912   410A      9.978647  
     411A     10.005604   412A     10.020276   413A     10.032924  
     414A     10.041479   415A     10.285425   416A     10.297225  
     417A     10.451358   418A     10.487314   419A     10.520393  
     420A     10.589710   421A     10.602255   422A     10.714935  
     423A     10.731604   424A     10.738119   425A     10.747423  
     426A     10.761743   427A     10.905238   428A     11.006668  
     429A     11.049700   430A     11.142217   431A     11.169434  
     432A     11.172308   433A     11.275365   434A     11.320356  
     435A     11.339764   436A     11.387380   437A     11.458393  
     438A     11.705433   439A     11.820254   440A     11.858886  
     441A     12.004967   442A     12.044359   443A     12.093929  
     444A     12.118042   445A     12.187096   446A     12.259816  
     447A     12.319341   448A     12.562217   449A     12.756437  
     450A     12.879188   451A     12.899705   452A     13.106178  
     453A     13.125645   454A     13.223055   455A     13.540236  
     456A     14.001694   457A     14.119339   458A     14.490419  
     459A     14.779729   460A     14.846358   461A     14.891414  
     462A     15.319368   463A     16.447330   464A     16.956971  
     465A     17.266747   466A     17.281386   467A     17.283292  
     468A     31.092261   469A     31.104256   470A     31.341360  
     471A     42.927818   472A     45.608965   473A     71.590472  
     474A    160.363813  

    Final Occupation by Irrep:
              A 
    DOCC [     5 ]

  @DF-RHF Final Energy:   -76.06582392226956

   => Energetics <=

    Nuclear Repulsion Energy =              9.1814284350044044
    One-Electron Energy =                -123.0453134356883993
    Two-Electron Energy =                  37.7980610784144417
    Total Energy =                        -76.0658239222695443

Computation Completed


Properties will be evaluated at   0.000000,   0.000000,   0.000000 [a0]

Properties computed using the SCF density matrix

  Nuclear Dipole Moment: [e a0]
     X:    43.9416      Y:   -34.1468      Z:    20.0185

  Electronic Dipole Moment: [e a0]
     X:   -44.6943      Y:    34.1342      Z:   -19.9723

  Dipole Moment: [e a0]
     X:    -0.7527      Y:    -0.0126      Z:     0.0462     Total:     0.7542

  Dipole Moment: [D]
     X:    -1.9131      Y:    -0.0319      Z:     0.1174     Total:     1.9169


*** tstop() called on node37.bme.utexas.edu at Tue Feb 22 17:51:56 2022
Module time:
	user time   =      67.93 seconds =       1.13 minutes
	system time =       3.57 seconds =       0.06 minutes
	total time  =         29 seconds =       0.48 minutes
Total time:
	user time   =     116.28 seconds =       1.94 minutes
	system time =       6.87 seconds =       0.11 minutes
	total time  =         58 seconds =       0.97 minutes

*** tstart() called on node37.bme.utexas.edu
*** at Tue Feb 22 17:51:56 2022


  //>>>>>>>>>>>>>>>>>>>>>>>>>>>>>>>>>>>//
  //               DFMP2               //
  //<<<<<<<<<<<<<<<<<<<<<<<<<<<<<<<<<<<//

   => Loading Basis Set <=

    Name: (AUG-CC-PVQZ AUX)
    Role: RIFIT
    Keyword: DF_BASIS_MP2
    atoms 1        entry CL         line   914 file /home/bdw2292/miniconda3/envs/amoebamdpoltype/share/psi4/basis/aug-cc-pvqz-ri.gbs 
    atoms 2        entry C          line   184 file /home/bdw2292/miniconda3/envs/amoebamdpoltype/share/psi4/basis/aug-cc-pvqz-ri.gbs 
    atoms 3-5, 7-8 entry H          line    30 file /home/bdw2292/miniconda3/envs/amoebamdpoltype/share/psi4/basis/aug-cc-pvqz-ri.gbs 
    atoms 6        entry O          line   332 file /home/bdw2292/miniconda3/envs/amoebamdpoltype/share/psi4/basis/aug-cc-pvqz-ri.gbs 

	 --------------------------------------------------------
	                          DF-MP2                         
	      2nd-Order Density-Fitted Moller-Plesset Theory     
	              RMP2 Wavefunction,   4 Threads             
	                                                         
	        Rob Parrish, Justin Turney, Andy Simmonett,      
	           Ed Hohenstein, and C. David Sherrill          
	 --------------------------------------------------------

   => Auxiliary Basis Set <=

  Basis Set: (AUG-CC-PVQZ AUX)
    Blend: AUG-CC-PVQZ-RI
    Number of shells: 216
    Number of basis function: 930
    Number of Cartesian functions: 1267
    Spherical Harmonics?: true
    Max angular momentum: 5

	 --------------------------------------------------------
	                 NBF =   474, NAUX =   930
	 --------------------------------------------------------
	   CLASS    FOCC     OCC    AOCC    AVIR     VIR    FVIR
	   PAIRS       1       5       4     469     469       0
	 --------------------------------------------------------

	-----------------------------------------------------------
	 ==================> DF-MP2 Energies <==================== 
	-----------------------------------------------------------
	 Reference Energy          =     -76.0658239222695585 [Eh]
	 Singles Energy            =      -0.0000000000000000 [Eh]
	 Same-Spin Energy          =      -0.0671705730517755 [Eh]
	 Opposite-Spin Energy      =      -0.2185634887851837 [Eh]
	 Correlation Energy        =      -0.2857340618369592 [Eh]
	 Total Energy              =     -76.3515579841065204 [Eh]
	-----------------------------------------------------------
	 ================> DF-SCS-MP2 Energies <================== 
	-----------------------------------------------------------
	 SCS Same-Spin Scale       =       0.3333333333333333 [-]
	 SCS Opposite-Spin Scale   =       1.2000000000000000 [-]
	 SCS Same-Spin Energy      =      -0.0223901910172585 [Eh]
	 SCS Opposite-Spin Energy  =      -0.2622761865422205 [Eh]
	 SCS Correlation Energy    =      -0.2846663775594789 [Eh]
	 SCS Total Energy          =     -76.3504902998290333 [Eh]
	-----------------------------------------------------------


*** tstop() called on node37.bme.utexas.edu at Tue Feb 22 17:52:07 2022
Module time:
	user time   =      27.93 seconds =       0.47 minutes
	system time =       1.94 seconds =       0.03 minutes
	total time  =         11 seconds =       0.18 minutes
Total time:
	user time   =     144.21 seconds =       2.40 minutes
	system time =       8.81 seconds =       0.15 minutes
	total time  =         69 seconds =       1.15 minutes

  //>>>>>>>>>>>>>>>>>>>>>>>>>>>>>>>>>>>//
  //  CBS Results: mp2/aug-cc-pV[TQ]Z  //
  //<<<<<<<<<<<<<<<<<<<<<<<<<<<<<<<<<<<//


   ==> HF <==

   HI-zeta (4) Energy:               -76.065823922270


   ==> Helgaker 2-point correlated extrapolation for method: MP2 <==

   LO-zeta (3) Energy:               -76.328608950627
   HI-zeta (4) Energy:               -76.351557984107
   Alpha (exponent) Value:             3.000000000000
   Extrapolated Energy:              -76.368304576105

   @Extrapolated MP2/(T,Q):          -76.368304576105



   ==> Helgaker 2-point correlated extrapolation for method: HF <==

   LO-zeta (3) Energy:               -76.060445052804
   HI-zeta (4) Energy:               -76.065823922270
   Alpha (exponent) Value:             3.000000000000
   Extrapolated Energy:              -76.069749043231

   @Extrapolated HF/(T,Q):           -76.069749043231


   ==> Components <==

  ---------------------------------------------------------------------------------------------------------
                          Method / Basis                      Rqd      Energy [Eh]   Variable
  ---------------------------------------------------------------------------------------------------------
                              hf / aug-cc-pvtz                  *     -76.06044505   HF TOTAL ENERGY
                             mp2 / aug-cc-pvtz                  *     -76.32860895   MP2 TOTAL ENERGY
                              hf / aug-cc-pvqz                  *     -76.06582392   HF TOTAL ENERGY
                             mp2 / aug-cc-pvqz                  *     -76.35155798   MP2 TOTAL ENERGY
  ---------------------------------------------------------------------------------------------------------

   ==> Stages <==

  ---------------------------------------------------------------------------------------------------------
      Stage               Method / Basis                       Wt      Energy [Eh]   Scheme
  ---------------------------------------------------------------------------------------------------------
        scf                   hf / aug-cc-pvqz                  1     -76.06582392   xtpl_highest_1
       corl                  mp2 / aug-cc-pv[tq]z               1     -76.36830458   corl_xtpl_helgaker_2
       corl                   hf / aug-cc-pv[tq]z              -1     -76.06974904   corl_xtpl_helgaker_2
  ---------------------------------------------------------------------------------------------------------

   ==> CBS <==

  ---------------------------------------------------------------------------------------------------------
      Stage               Method / Basis                               Energy [Eh]   Scheme
  ---------------------------------------------------------------------------------------------------------
        scf                   hf / aug-cc-pvqz                        -76.06582392   xtpl_highest_1
       corl                  mp2 / aug-cc-pv[tq]z                      -0.29855553   corl_xtpl_helgaker_2
      total                  CBS                                      -76.36437946   
  ---------------------------------------------------------------------------------------------------------
   => Loading Basis Set <=

    Name: DEF2-SVP
    Role: ORBITAL
    Keyword: BASIS
    atoms 1        entry CL         line   356 file /home/bdw2292/miniconda3/envs/amoebamdpoltype/share/psi4/basis/def2-svp.gbs 
    atoms 2        entry C          line    90 file /home/bdw2292/miniconda3/envs/amoebamdpoltype/share/psi4/basis/def2-svp.gbs 
    atoms 3-5, 7-8 entry H          line    15 file /home/bdw2292/miniconda3/envs/amoebamdpoltype/share/psi4/basis/def2-svp.gbs 
    atoms 6        entry O          line   130 file /home/bdw2292/miniconda3/envs/amoebamdpoltype/share/psi4/basis/def2-svp.gbs 


       N-Body: Complex Energy (fragments = (2,), basis = (1, 2):   -76.36437945514416)

       N-Body: Computing complex (3/4) with fragments (1,) in the basis of fragments (1, 2).


  //>>>>>>>>>>>>>>>>>>>>>>>>>>>>>>>>>>>//
  //   CBS Setup: mp2/aug-cc-pV[TQ]Z   //
  //<<<<<<<<<<<<<<<<<<<<<<<<<<<<<<<<<<<//

    Naive listing of computations required.
             hf / aug-cc-pvqz              for  HF TOTAL ENERGY
            mp2 / aug-cc-pvtz              for  MP2 TOTAL ENERGY
            mp2 / aug-cc-pvqz              for  MP2 TOTAL ENERGY
             hf / aug-cc-pvtz              for  HF TOTAL ENERGY
             hf / aug-cc-pvqz              for  HF TOTAL ENERGY

    Enlightened listing of computations required.
            mp2 / aug-cc-pvtz              for  MP2 TOTAL ENERGY
            mp2 / aug-cc-pvqz              for  MP2 TOTAL ENERGY

    Full listing of computations to be obtained (required and bonus).
             hf / aug-cc-pvtz              for  HF TOTAL ENERGY
            mp2 / aug-cc-pvtz              for  MP2 TOTAL ENERGY
             hf / aug-cc-pvqz              for  HF TOTAL ENERGY
            mp2 / aug-cc-pvqz              for  MP2 TOTAL ENERGY

  //>>>>>>>>>>>>>>>>>>>>>>>>>>>>>>>>>>>>//
  // CBS Computation: MP2 / AUG-CC-PVTZ //
  //<<<<<<<<<<<<<<<<<<<<<<<<<<<<<<<<<<<<//

    SCF Algorithm Type (re)set to DF.

*** tstart() called on node37.bme.utexas.edu
*** at Tue Feb 22 17:52:09 2022

   => Loading Basis Set <=

    Name: AUG-CC-PVTZ
    Role: ORBITAL
    Keyword: BASIS
    atoms 1        entry CL         line   984 file /home/bdw2292/miniconda3/envs/amoebamdpoltype/share/psi4/basis/aug-cc-pvtz.gbs 
    atoms 2        entry C          line   235 file /home/bdw2292/miniconda3/envs/amoebamdpoltype/share/psi4/basis/aug-cc-pvtz.gbs 
    atoms 3-5, 7-8 entry H          line    36 file /home/bdw2292/miniconda3/envs/amoebamdpoltype/share/psi4/basis/aug-cc-pvtz.gbs 
    atoms 6        entry O          line   327 file /home/bdw2292/miniconda3/envs/amoebamdpoltype/share/psi4/basis/aug-cc-pvtz.gbs 


         ---------------------------------------------------------
                                   SCF
               by Justin Turney, Rob Parrish, Andy Simmonett
                          and Daniel G. A. Smith
                              RHF Reference
                        4 Threads,  14305 MiB Core
         ---------------------------------------------------------

  ==> Geometry <==

    Molecular point group: c1
    Full point group: C1

    Geometry (in Angstrom), charge = 0, multiplicity = 1:

       Center              X                  Y                   Z               Mass       
    ------------   -----------------  -----------------  -----------------  -----------------
         CL          -0.375378710926     0.896207435616    -0.518317225079    34.968852682000
         C           -1.911716810926     0.111067235616    -0.077772425079    12.000000000000
         H           -2.058553910926    -0.760306364384    -0.716325825079     1.007825032230
         H           -1.861070410926    -0.199647564384     0.965996774921     1.007825032230
         H           -2.728876210926     0.819000435616    -0.216646325079     1.007825032230
      Gh(O)           2.437223689074    -1.805147864384     1.052492374921    15.994914619570
      Gh(H)           1.915578389074    -2.470596764384     1.499656574921     1.007825032230
[...]
      28A      0.108799    29A      0.115943    30A      0.128667  
      31A      0.148640    32A      0.150743    33A      0.162196  
      34A      0.164974    35A      0.169908    36A      0.190942  
      37A      0.200365    38A      0.206198    39A      0.215754  
      40A      0.225546    41A      0.231898    42A      0.238152  
      43A      0.246502    44A      0.248585    45A      0.258366  
      46A      0.269272    47A      0.276762    48A      0.280038  
      49A      0.293396    50A      0.302182    51A      0.308152  
      52A      0.325241    53A      0.328697    54A      0.330674  
      55A      0.343137    56A      0.344231    57A      0.367503  
      58A      0.367909    59A      0.375662    60A      0.382289  
      61A      0.392897    62A      0.400831    63A      0.406337  
      64A      0.427372    65A      0.458314    66A      0.481658  
      67A      0.501691    68A      0.517602    69A      0.533391  
      70A      0.542419    71A      0.550111    72A      0.562889  
      73A      0.568800    74A      0.569332    75A      0.571821  
      76A      0.587938    77A      0.600577    78A      0.604382  
      79A      0.608413    80A      0.628873    81A      0.643448  
      82A      0.648989    83A      0.662630    84A      0.678031  
      85A      0.686167    86A      0.686689    87A      0.689105  
      88A      0.698165    89A      0.704949    90A      0.712624  
      91A      0.722878    92A      0.729458    93A      0.737920  
      94A      0.751349    95A      0.753610    96A      0.763602  
      97A      0.768242    98A      0.770201    99A      0.786215  
     100A      0.789367   101A      0.803347   102A      0.806605  
     103A      0.818100   104A      0.837883   105A      0.859082  
     106A      0.864822   107A      0.871499   108A      0.882146  
     109A      0.887343   110A      0.902427   111A      0.907725  
     112A      0.927254   113A      0.940128   114A      0.954658  
     115A      0.983679   116A      0.991649   117A      0.996025  
     118A      1.007171   119A      1.036056   120A      1.053619  
     121A      1.077075   122A      1.102340   123A      1.111093  
     124A      1.134085   125A      1.143709   126A      1.156177  
     127A      1.168070   128A      1.173278   129A      1.183832  
     130A      1.190131   131A      1.214284   132A      1.237335  
     133A      1.242083   134A      1.246417   135A      1.259342  
     136A      1.268034   137A      1.290322   138A      1.302270  
     139A      1.330134   140A      1.392679   141A      1.407228  
     142A      1.433583   143A      1.439353   144A      1.456826  
     145A      1.490975   146A      1.502293   147A      1.510778  
     148A      1.525415   149A      1.526279   150A      1.584739  
     151A      1.598704   152A      1.623795   153A      1.638045  
     154A      1.645951   155A      1.655829   156A      1.664963  
     157A      1.682566   158A      1.691397   159A      1.697634  
     160A      1.699085   161A      1.708397   162A      1.733114  
     163A      1.738179   164A      1.739688   165A      1.761744  
     166A      1.763964   167A      1.771867   168A      1.786315  
     169A      1.792663   170A      1.802379   171A      1.820332  
     172A      1.828382   173A      1.846874   174A      1.861855  
     175A      1.867739   176A      1.876017   177A      1.885774  
     178A      1.899553   179A      1.903694   180A      1.918096  
     181A      1.931821   182A      1.932671   183A      1.949150  
     184A      1.962017   185A      1.969344   186A      1.977462  
     187A      1.990455   188A      1.995889   189A      1.996967  
     190A      2.005525   191A      2.018667   192A      2.023949  
     193A      2.031409   194A      2.053598   195A      2.067133  
     196A      2.073810   197A      2.089240   198A      2.102454  
     199A      2.115606   200A      2.126202   201A      2.144786  
     202A      2.152140   203A      2.164563   204A      2.180901  
     205A      2.185592   206A      2.212196   207A      2.212531  
     208A      2.225543   209A      2.249762   210A      2.261556  
     211A      2.281766   212A      2.287891   213A      2.294871  
     214A      2.313596   215A      2.326303   216A      2.343274  
     217A      2.352018   218A      2.367369   219A      2.381958  
     220A      2.413075   221A      2.428266   222A      2.432992  
     223A      2.473709   224A      2.503956   225A      2.513083  
     226A      2.545382   227A      2.577747   228A      2.649529  
     229A      2.651480   230A      2.653510   231A      2.664445  
     232A      2.729465   233A      2.738382   234A      2.753609  
     235A      2.762027   236A      2.778566   237A      2.790937  
     238A      2.837219   239A      2.862373   240A      2.892537  
     241A      2.904341   242A      2.953995   243A      2.965650  
     244A      2.987582   245A      3.010490   246A      3.030158  
     247A      3.034221   248A      3.069585   249A      3.086675  
     250A      3.089606   251A      3.106879   252A      3.112965  
     253A      3.148393   254A      3.242394   255A      3.262651  
     256A      3.272703   257A      3.283517   258A      3.328493  
     259A      3.329262   260A      3.381774   261A      3.426816  
     262A      3.444931   263A      3.565525   264A      3.581775  
     265A      3.585013   266A      3.617895   267A      3.641438  
     268A      3.669805   269A      3.678805   270A      3.719792  
     271A      3.773420   272A      3.785826   273A      3.807143  
     274A      3.823463   275A      3.830453   276A      3.843426  
     277A      3.862406   278A      3.869535   279A      3.933059  
     280A      3.946053   281A      4.040320   282A      4.080658  
     283A      4.092010   284A      4.115392   285A      4.139156  
     286A      4.149580   287A      4.170492   288A      4.171724  
     289A      4.196366   290A      4.220832   291A      4.243862  
     292A      4.245752   293A      4.260028   294A      4.315440  
     295A      4.377251   296A      4.413353   297A      4.448133  
     298A      4.493324   299A      4.504658   300A      4.537324  
     301A      4.588778   302A      4.599191   303A      4.646821  
     304A      4.660884   305A      4.673925   306A      4.698640  
     307A      4.714664   308A      4.753797   309A      4.765414  
     310A      4.769708   311A      4.789721   312A      4.807447  
     313A      4.830596   314A      4.842515   315A      4.848914  
     316A      4.853935   317A      4.865674   318A      4.883526  
     319A      4.925440   320A      4.950698   321A      4.958944  
     322A      4.996267   323A      5.011956   324A      5.023608  
     325A      5.060048   326A      5.063622   327A      5.154987  
     328A      5.185804   329A      5.219466   330A      5.327710  
     331A      5.364572   332A      5.392267   333A      5.442505  
     334A      5.551218   335A      5.558925   336A      5.597417  
     337A      5.894250   338A      5.907077   339A      6.109869  
     340A      6.116713   341A      6.126924   342A      6.200753  
     343A      6.259791   344A      6.276240   345A      6.366680  
     346A      6.374344   347A      6.432456   348A      6.603632  
     349A      6.618009   350A      6.692286   351A      6.697141  
     352A      6.731564   353A      6.792895   354A      6.811267  
     355A      6.829602   356A      6.851604   357A      6.868172  
     358A      6.875311   359A      6.946704   360A      6.949795  
     361A      6.958067   362A      6.963487   363A      6.972223  
     364A      6.984923   365A      7.077327   366A      7.090130  
     367A      7.144512   368A      7.304819   369A      7.323346  
     370A      7.342915   371A      7.438644   372A      7.573648  
     373A      7.596202   374A      7.608977   375A      7.685529  
     376A      7.689576   377A      7.755802   378A      7.784682  
     379A      7.803649   380A      7.850940   381A      7.869792  
     382A      7.872464   383A      7.887083   384A      7.891619  
     385A      7.920791   386A      7.940691   387A      7.985627  
     388A      8.055076   389A      8.208901   390A      8.270809  
     391A      8.277633   392A      8.380679   393A      8.388632  
     394A      8.403755   395A      8.411749   396A      8.510562  
     397A      8.569869   398A      8.594671   399A      8.600633  
     400A      8.610312   401A      8.746738   402A      8.783924  
     403A      8.847293   404A      8.863972   405A      8.867015  
     406A      8.888681   407A      8.934924   408A      8.995533  
     409A      9.011068   410A      9.093590   411A      9.157194  
     412A      9.170781   413A      9.189796   414A      9.205283  
     415A      9.223491   416A      9.411059   417A      9.425555  
     418A      9.555696   419A      9.563519   420A      9.563826  
     421A      9.568758   422A      9.673594   423A      9.680644  
     424A      9.874941   425A      9.942230   426A      9.980115  
     427A      9.986741   428A     10.014551   429A     10.027913  
     430A     10.129362   431A     10.132530   432A     10.332716  
     433A     10.335153   434A     10.377462   435A     10.458954  
     436A     10.528141   437A     10.742064   438A     10.785379  
     439A     10.797265   440A     10.847763   441A     10.960966  
     442A     10.971219   443A     11.014753   444A     11.057955  
     445A     11.151107   446A     11.282822   447A     11.392343  
     448A     11.435937   449A     11.465609   450A     11.712761  
     451A     11.827360   452A     11.866058   453A     12.052152  
     454A     12.192281   455A     12.266093   456A     12.569294  
     457A     12.763564   458A     12.887050   459A     12.906847  
     460A     13.120846   461A     13.138509   462A     13.230491  
     463A     13.320273   464A     14.009383   465A     14.126390  
     466A     14.497933   467A     14.853869   468A     14.898791  
     469A     15.327002   470A     16.964678   471A     17.288763  
     472A     26.330979   473A     28.620642   474A     45.616299  

    Final Occupation by Irrep:
              A 
    DOCC [    18 ]

  @DF-RHF Final Energy:  -575.22157473275990

   => Energetics <=

    Nuclear Repulsion Energy =             92.1882172376937206
    One-Electron Energy =                -976.3645893856534030
    Two-Electron Energy =                 308.9547974151997778
    Total Energy =                       -575.2215747327599047

Computation Completed


Properties will be evaluated at   0.000000,   0.000000,   0.000000 [a0]

Properties computed using the SCF density matrix

  Nuclear Dipole Moment: [e a0]
     X:    -2.3571      Y:    -4.3629      Z:     2.5480

  Electronic Dipole Moment: [e a0]
     X:     0.8312      Y:     4.0435      Z:    -2.3330

  Dipole Moment: [e a0]
     X:    -1.5260      Y:    -0.3194      Z:     0.2150     Total:     1.5738

  Dipole Moment: [D]
     X:    -3.8786      Y:    -0.8117      Z:     0.5466     Total:     4.0001


*** tstop() called on node37.bme.utexas.edu at Tue Feb 22 17:54:14 2022
Module time:
	user time   =      80.25 seconds =       1.34 minutes
	system time =       4.74 seconds =       0.08 minutes
	total time  =         31 seconds =       0.52 minutes
Total time:
	user time   =     443.14 seconds =       7.39 minutes
	system time =      27.19 seconds =       0.45 minutes
	total time  =        196 seconds =       3.27 minutes

*** tstart() called on node37.bme.utexas.edu
*** at Tue Feb 22 17:54:14 2022


  //>>>>>>>>>>>>>>>>>>>>>>>>>>>>>>>>>>>//
  //               DFMP2               //
  //<<<<<<<<<<<<<<<<<<<<<<<<<<<<<<<<<<<//

   => Loading Basis Set <=

    Name: (AUG-CC-PVQZ AUX)
    Role: RIFIT
    Keyword: DF_BASIS_MP2
    atoms 1        entry CL         line   914 file /home/bdw2292/miniconda3/envs/amoebamdpoltype/share/psi4/basis/aug-cc-pvqz-ri.gbs 
    atoms 2        entry C          line   184 file /home/bdw2292/miniconda3/envs/amoebamdpoltype/share/psi4/basis/aug-cc-pvqz-ri.gbs 
    atoms 3-5, 7-8 entry H          line    30 file /home/bdw2292/miniconda3/envs/amoebamdpoltype/share/psi4/basis/aug-cc-pvqz-ri.gbs 
    atoms 6        entry O          line   332 file /home/bdw2292/miniconda3/envs/amoebamdpoltype/share/psi4/basis/aug-cc-pvqz-ri.gbs 

	 --------------------------------------------------------
	                          DF-MP2                         
	      2nd-Order Density-Fitted Moller-Plesset Theory     
	              RMP2 Wavefunction,   4 Threads             
	                                                         
	        Rob Parrish, Justin Turney, Andy Simmonett,      
	           Ed Hohenstein, and C. David Sherrill          
	 --------------------------------------------------------

   => Auxiliary Basis Set <=

  Basis Set: (AUG-CC-PVQZ AUX)
    Blend: AUG-CC-PVQZ-RI
    Number of shells: 216
    Number of basis function: 930
    Number of Cartesian functions: 1267
    Spherical Harmonics?: true
    Max angular momentum: 5

	 --------------------------------------------------------
	                 NBF =   474, NAUX =   930
	 --------------------------------------------------------
	   CLASS    FOCC     OCC    AOCC    AVIR     VIR    FVIR
	   PAIRS       7      18      11     456     456       0
	 --------------------------------------------------------

	-----------------------------------------------------------
	 ==================> DF-MP2 Energies <==================== 
	-----------------------------------------------------------
	 Reference Energy          =    -575.2215747327599047 [Eh]
	 Singles Energy            =      -0.0000000000000000 [Eh]
	 Same-Spin Energy          =      -0.1557718022697519 [Eh]
	 Opposite-Spin Energy      =      -0.5379038643256830 [Eh]
	 Correlation Energy        =      -0.6936756665954349 [Eh]
	 Total Energy              =    -575.9152503993553864 [Eh]
	-----------------------------------------------------------
	 ================> DF-SCS-MP2 Energies <================== 
	-----------------------------------------------------------
	 SCS Same-Spin Scale       =       0.3333333333333333 [-]
	 SCS Opposite-Spin Scale   =       1.2000000000000000 [-]
	 SCS Same-Spin Energy      =      -0.0519239340899173 [Eh]
	 SCS Opposite-Spin Energy  =      -0.6454846371908196 [Eh]
	 SCS Correlation Energy    =      -0.6974085712807370 [Eh]
	 SCS Total Energy          =    -575.9189833040406938 [Eh]
	-----------------------------------------------------------


*** tstop() called on node37.bme.utexas.edu at Tue Feb 22 17:54:26 2022
Module time:
	user time   =      29.30 seconds =       0.49 minutes
	system time =       2.26 seconds =       0.04 minutes
	total time  =         12 seconds =       0.20 minutes
Total time:
	user time   =     472.44 seconds =       7.87 minutes
	system time =      29.45 seconds =       0.49 minutes
	total time  =        208 seconds =       3.47 minutes

  //>>>>>>>>>>>>>>>>>>>>>>>>>>>>>>>>>>>//
  //  CBS Results: mp2/aug-cc-pV[TQ]Z  //
  //<<<<<<<<<<<<<<<<<<<<<<<<<<<<<<<<<<<//


   ==> HF <==

   HI-zeta (4) Energy:               -575.221574732760


   ==> Helgaker 2-point correlated extrapolation for method: MP2 <==

   LO-zeta (3) Energy:               -575.859569972253
   HI-zeta (4) Energy:               -575.915250399355
   Alpha (exponent) Value:             3.000000000000
   Extrapolated Energy:              -575.955882062376

   @Extrapolated MP2/(T,Q):          -575.955882062376



   ==> Helgaker 2-point correlated extrapolation for method: HF <==

   LO-zeta (3) Energy:               -575.210131122801
   HI-zeta (4) Energy:               -575.221574732760
   Alpha (exponent) Value:             3.000000000000
   Extrapolated Energy:              -575.229925475163

   @Extrapolated HF/(T,Q):           -575.229925475163


   ==> Components <==

  ---------------------------------------------------------------------------------------------------------
                          Method / Basis                      Rqd      Energy [Eh]   Variable
  ---------------------------------------------------------------------------------------------------------
                              hf / aug-cc-pvtz                  *    -575.21013112   HF TOTAL ENERGY
                             mp2 / aug-cc-pvtz                  *    -575.85956997   MP2 TOTAL ENERGY
                              hf / aug-cc-pvqz                  *    -575.22157473   HF TOTAL ENERGY
                             mp2 / aug-cc-pvqz                  *    -575.91525040   MP2 TOTAL ENERGY
  ---------------------------------------------------------------------------------------------------------

   ==> Stages <==

  ---------------------------------------------------------------------------------------------------------
      Stage               Method / Basis                       Wt      Energy [Eh]   Scheme
  ---------------------------------------------------------------------------------------------------------
        scf                   hf / aug-cc-pvqz                  1    -575.22157473   xtpl_highest_1
       corl                  mp2 / aug-cc-pv[tq]z               1    -575.95588206   corl_xtpl_helgaker_2
       corl                   hf / aug-cc-pv[tq]z              -1    -575.22992548   corl_xtpl_helgaker_2
  ---------------------------------------------------------------------------------------------------------

   ==> CBS <==

  ---------------------------------------------------------------------------------------------------------
      Stage               Method / Basis                               Energy [Eh]   Scheme
  ---------------------------------------------------------------------------------------------------------
        scf                   hf / aug-cc-pvqz                       -575.22157473   xtpl_highest_1
       corl                  mp2 / aug-cc-pv[tq]z                      -0.72595659   corl_xtpl_helgaker_2
      total                  CBS                                     -575.94753132   
  ---------------------------------------------------------------------------------------------------------
   => Loading Basis Set <=

    Name: DEF2-SVP
    Role: ORBITAL
    Keyword: BASIS
    atoms 1        entry CL         line   356 file /home/bdw2292/miniconda3/envs/amoebamdpoltype/share/psi4/basis/def2-svp.gbs 
    atoms 2        entry C          line    90 file /home/bdw2292/miniconda3/envs/amoebamdpoltype/share/psi4/basis/def2-svp.gbs 
    atoms 3-5, 7-8 entry H          line    15 file /home/bdw2292/miniconda3/envs/amoebamdpoltype/share/psi4/basis/def2-svp.gbs 
    atoms 6        entry O          line   130 file /home/bdw2292/miniconda3/envs/amoebamdpoltype/share/psi4/basis/def2-svp.gbs 


       N-Body: Complex Energy (fragments = (1, 2), basis = (1, 2):  -575.94753131997334)

   ==> N-Body: Counterpoise Corrected (CP) energies <==

   n-Body     Total Energy [Eh]       I.E. [kcal/mol]      Delta [kcal/mol]
        1     -575.945672469222        0.000000000000        0.000000000000
        2     -575.947501605461       -1.147800318550       -1.147800318550

   => Loading Basis Set <=

    Name: DEF2-SVP
    Role: ORBITAL
    Keyword: BASIS
    atoms 1        entry CL         line   356 file /home/bdw2292/miniconda3/envs/amoebamdpoltype/share/psi4/basis/def2-svp.gbs 
    atoms 2        entry C          line    90 file /home/bdw2292/miniconda3/envs/amoebamdpoltype/share/psi4/basis/def2-svp.gbs 
    atoms 3-5, 7-8 entry H          line    15 file /home/bdw2292/miniconda3/envs/amoebamdpoltype/share/psi4/basis/def2-svp.gbs 
    atoms 6        entry O          line   130 file /home/bdw2292/miniconda3/envs/amoebamdpoltype/share/psi4/basis/def2-svp.gbs 

CP Energy =  -0.001829
    Psi4 stopped on: Tuesday, 22 February 2022 05:54PM
    Psi4 wall time for execution: 0:03:29.88

*** Psi4 exiting successfully. Buy a developer a beer!
