
    -----------------------------------------------------------------------
          Psi4: An Open-Source Ab Initio Electronic Structure Package
                               Psi4 1.3.2 release

                         Git: Rev {HEAD} ecbda83 


    R. M. Parrish, L. A. Burns, D. G. A. Smith, A. C. Simmonett,
    A. E. DePrince III, E. G. Hohenstein, U. Bozkaya, A. Yu. Sokolov,
    R. Di Remigio, R. M. Richard, J. F. Gonthier, A. M. James,
    H. R. McAlexander, A. Kumar, M. Saitow, X. Wang, B. P. Pritchard,
    P. Verma, H. F. Schaefer III, K. Patkowski, R. A. King, E. F. Valeev,
    F. A. Evangelista, J. M. Turney, T. D. Crawford, and C. D. Sherrill,
    J. Chem. Theory Comput. 13(7) pp 3185--3197 (2017).
    (doi: 10.1021/acs.jctc.7b00174)


                         Additional Contributions by
    P. Kraus, H. Kruse, M. H. Lechner, M. C. Schieber, R. A. Shaw,
    A. Alenaizan, R. Galvelis, Z. L. Glick, S. Lehtola, and J. P. Misiewicz

    -----------------------------------------------------------------------


    Psi4 started on: Tuesday, 22 February 2022 06:01PM

    Process ID: 27953
    Host:       node37.bme.utexas.edu
    PSIDATADIR: /home/bdw2292/miniconda3/envs/amoebamdpoltype/share/psi4
    Memory:     500.0 MiB
    Threads:    1
    
  ==> Input File <==

--------------------------------------------------------------------------
molecule { 
0 1
 Cl                 -0.0649832    -0.8758863    -1.3634788
  C                 -0.8615178    -0.1109893     0.0354210
  H                 -1.8997533    -0.4392969     0.0837063
  H                 -0.3333493    -0.4029180     0.9437515
  H                 -0.8158170     0.9717065    -0.0827292
--
0 1
  O                  2.3703634     0.8083931     0.3101694
  H                  2.0873142     0.2433671    -0.4112088
  H                  3.0353029     1.4091739    -0.0257915
}
memory 15GB
set_num_threads(4)
psi4_io.set_default_path("/scratch/bdw2292/Psi4-CH3Cl")
set maxiter 500
set freeze_core True
set PROPERTIES_ORIGIN ["COM"]
e_dim= energy('mp2/aug-cc-pV[TQ]Z',bsse_type='cp')

psi4.print_out('CP Energy = %10.6f' % (e_dim))
clean()
--------------------------------------------------------------------------

  Memory set to  13.970 GiB by Python driver.
  Threads set to 4 by Python driver.


   ===> N-Body Interaction Abacus <===
        BSSE Treatment:                     cp
        Number of 1-body computations:     4
        Number of 2-body computations:     1

   ==> N-Body: Now computing 1-body complexes <==


       N-Body: Computing complex (1/4) with fragments (2,) in the basis of fragments (2,).


  //>>>>>>>>>>>>>>>>>>>>>>>>>>>>>>>>>>>//
  //   CBS Setup: mp2/aug-cc-pV[TQ]Z   //
  //<<<<<<<<<<<<<<<<<<<<<<<<<<<<<<<<<<<//

    Naive listing of computations required.
             hf / aug-cc-pvqz              for  HF TOTAL ENERGY
            mp2 / aug-cc-pvtz              for  MP2 TOTAL ENERGY
            mp2 / aug-cc-pvqz              for  MP2 TOTAL ENERGY
             hf / aug-cc-pvtz              for  HF TOTAL ENERGY
             hf / aug-cc-pvqz              for  HF TOTAL ENERGY

    Enlightened listing of computations required.
            mp2 / aug-cc-pvtz              for  MP2 TOTAL ENERGY
            mp2 / aug-cc-pvqz              for  MP2 TOTAL ENERGY

    Full listing of computations to be obtained (required and bonus).
             hf / aug-cc-pvtz              for  HF TOTAL ENERGY
            mp2 / aug-cc-pvtz              for  MP2 TOTAL ENERGY
             hf / aug-cc-pvqz              for  HF TOTAL ENERGY
            mp2 / aug-cc-pvqz              for  MP2 TOTAL ENERGY

  //>>>>>>>>>>>>>>>>>>>>>>>>>>>>>>>>>>>>//
  // CBS Computation: MP2 / AUG-CC-PVTZ //
  //<<<<<<<<<<<<<<<<<<<<<<<<<<<<<<<<<<<<//

    SCF Algorithm Type (re)set to DF.

*** tstart() called on node37.bme.utexas.edu
*** at Tue Feb 22 18:01:30 2022

   => Loading Basis Set <=

    Name: AUG-CC-PVTZ
    Role: ORBITAL
    Keyword: BASIS
    atoms 1   entry O          line   327 file /home/bdw2292/miniconda3/envs/amoebamdpoltype/share/psi4/basis/aug-cc-pvtz.gbs 
    atoms 2-3 entry H          line    36 file /home/bdw2292/miniconda3/envs/amoebamdpoltype/share/psi4/basis/aug-cc-pvtz.gbs 


         ---------------------------------------------------------
                                   SCF
               by Justin Turney, Rob Parrish, Andy Simmonett
                          and Daniel G. A. Smith
                              RHF Reference
                        4 Threads,  14305 MiB Core
         ---------------------------------------------------------

  ==> Geometry <==

    Molecular point group: c1
    Full point group: C1

    Geometry (in Angstrom), charge = 0, multiplicity = 1:

       Center              X                  Y                   Z               Mass       
    ------------   -----------------  -----------------  -----------------  -----------------
         O            1.967541080089     1.061830186139     0.924575661531    15.994914619570
         H            1.684491880089     0.496804186139     0.203197461531     1.007825032230
         H            2.632480580089     1.662610986139     0.588614761531     1.007825032230

  Running in c1 symmetry.

  Rotational constants: A =     22.69535  B =      0.15854  C =      0.15796 [cm^-1]
  Rotational constants: A = 680389.32628  B =   4752.99031  C =   4735.51393 [MHz]
  Nuclear repulsion =    9.178742414479768

  Charge       = 0
  Multiplicity = 1
  Electrons    = 10
  Nalpha       = 5
  Nbeta        = 5

  ==> Algorithm <==

  SCF Algorithm Type is DF.
  DIIS enabled.
  MOM disabled.
  Fractional occupation disabled.
  Guess Type is SAD.
  Energy threshold   = 1.00e-08
  Density threshold  = 1.00e-08
  Integral threshold = 0.00e+00

  ==> Primary Basis <==

  Basis Set: AUG-CC-PVTZ
    Blend: AUG-CC-PVTZ
    Number of shells: 32
    Number of basis function: 92
    Number of Cartesian functions: 105
    Spherical Harmonics?: true
    Max angular momentum: 3

   => Loading Basis Set <=

    Name: (AUG-CC-PVTZ AUX)
    Role: JKFIT
    Keyword: DF_BASIS_SCF
    atoms 1   entry O          line   286 file /home/bdw2292/miniconda3/envs/amoebamdpoltype/share/psi4/basis/aug-cc-pvtz-jkfit.gbs 
    atoms 2-3 entry H          line    70 file /home/bdw2292/miniconda3/envs/amoebamdpoltype/share/psi4/basis/aug-cc-pvtz-jkfit.gbs 

  ==> Pre-Iterations <==

   -------------------------------------------------------
    Irrep   Nso     Nmo     Nalpha   Nbeta   Ndocc  Nsocc
   -------------------------------------------------------
     A         92      92       0       0       0       0
   -------------------------------------------------------
    Total      92      92       5       5       5       0
   -------------------------------------------------------

  ==> Integral Setup <==

  DFHelper Memory: AOs need 0.015 GiB; user supplied 10.477 GiB. Using in-core AOs.

  ==> MemDFJK: Density-Fitted J/K Matrices <==

    J tasked:                   Yes
    K tasked:                   Yes
    wK tasked:                   No
    OpenMP threads:               4
    Memory [MiB]:             10728
    Algorithm:                 Core
    Schwarz Cutoff:           1E-12
    Mask sparsity (%):       0.0000
    Fitting Condition:        1E-10

   => Auxiliary Basis Set <=

  Basis Set: (AUG-CC-PVTZ AUX)
    Blend: AUG-CC-PVTZ-JKFIT
    Number of shells: 58
    Number of basis function: 196
    Number of Cartesian functions: 241
    Spherical Harmonics?: true
    Max angular momentum: 4

  Minimum eigenvalue in the overlap matrix is 3.7831927026E-04.
  Using Symmetric Orthogonalization.

  SCF Guess: Superposition of Atomic Densities via on-the-fly atomic UHF.

  ==> Iterations <==

                           Total Energy        Delta E     RMS |[F,P]|

   @DF-RHF iter SAD:   -75.47358572429111   -7.54736e+01   0.00000e+00 
   @DF-RHF iter   1:   -75.97652929687926   -5.02944e-01   5.09341e-03 DIIS
   @DF-RHF iter   2:   -76.02893783441058   -5.24085e-02   3.45451e-03 DIIS
   @DF-RHF iter   3:   -76.06001873210948   -3.10809e-02   2.34643e-04 DIIS
   @DF-RHF iter   4:   -76.06040894136221   -3.90209e-04   5.60768e-05 DIIS
   @DF-RHF iter   5:   -76.06043299048335   -2.40491e-05   1.26329e-05 DIIS
   @DF-RHF iter   6:   -76.06043495516285   -1.96468e-06   2.80891e-06 DIIS
   @DF-RHF iter   7:   -76.06043506314890   -1.07986e-07   5.29240e-07 DIIS
   @DF-RHF iter   8:   -76.06043506654787   -3.39897e-09   8.79265e-08 DIIS
   @DF-RHF iter   9:   -76.06043506662189   -7.40243e-11   2.18708e-08 DIIS
   @DF-RHF iter  10:   -76.06043506662590   -4.00746e-12   2.99458e-09 DIIS
  Energy and wave function converged.


  ==> Post-Iterations <==

    Orbital Energies [Eh]
    ---------------------

    Doubly Occupied:                                                      

       1A    -20.565726     2A     -1.350644     3A     -0.724219  
       4A     -0.577784     5A     -0.509223  

    Virtual:                                                              

       6A      0.029647     7A      0.047459     8A      0.136442  
       9A      0.157942    10A      0.174323    11A      0.182106  
      12A      0.228703    13A      0.244480    14A      0.263948  
      15A      0.304382    16A      0.312986    17A      0.365256  
      18A      0.437862    19A      0.466707    20A      0.602004  
      21A      0.654530    22A      0.710942    23A      0.719520  
      24A      0.731335    25A      0.828062    26A      0.843850  
      27A      0.890184    28A      0.912839    29A      0.920743  
      30A      0.923565    31A      0.928078    32A      0.970583  
      33A      1.022734    34A      1.045089    35A      1.084937  
      36A      1.113603    37A      1.172928    38A      1.177531  
      39A      1.259745    40A      1.514028    41A      1.561870  
      42A      1.594873    43A      1.787278    44A      1.797844  
      45A      2.001711    46A      2.115640    47A      2.259872  
      48A      2.318349    49A      2.321430    50A      2.413921  
      51A      2.414844    52A      2.438917    53A      2.472037  
      54A      2.686316    55A      2.702861    56A      2.767606  
      57A      2.854325    58A      2.883784    59A      3.645219  
      60A      3.767917    61A      4.007538    62A      4.089440  
      63A      4.208878    64A      4.231936    65A      4.332843  
      66A      4.381409    67A      4.400787    68A      4.413359  
      69A      4.494871    70A      4.708534    71A      4.814530  
      72A      5.124352    73A      5.170307    74A      5.301821  
      75A      5.329154    76A      5.513137    77A      5.717358  
      78A      6.142116    79A      6.533427    80A      6.713474  
      81A      6.861117    82A      7.145576    83A      7.261615  
      84A      7.301099    85A      7.308216    86A      7.370267  
      87A      7.381718    88A      7.556032    89A      7.898602  
      90A      7.959664    91A      8.788930    92A     15.841031  

    Final Occupation by Irrep:
              A 
    DOCC [     5 ]

  @DF-RHF Final Energy:   -76.06043506662590

   => Energetics <=

    Nuclear Repulsion Energy =              9.1787424144797676
    One-Electron Energy =                -123.0231631341530800
    Two-Electron Energy =                  37.7839856530474165
    Total Energy =                        -76.0604350666258995

Computation Completed


Properties will be evaluated at   3.758496,   2.010349,   1.635387 [a0]

Properties computed using the SCF density matrix

  Nuclear Dipole Moment: [e a0]
     X:     0.3178      Y:     0.0298      Z:    -0.8800

  Electronic Dipole Moment: [e a0]
     X:    -0.0608      Y:    -0.0055      Z:     0.1689

  Dipole Moment: [e a0]
     X:     0.2571      Y:     0.0243      Z:    -0.7111     Total:     0.7565

  Dipole Moment: [D]
     X:     0.6534      Y:     0.0617      Z:    -1.8075     Total:     1.9229


*** tstop() called on node37.bme.utexas.edu at Tue Feb 22 18:01:33 2022
Module time:
	user time   =       5.07 seconds =       0.08 minutes
	system time =       0.36 seconds =       0.01 minutes
	total time  =          3 seconds =       0.05 minutes
Total time:
	user time   =       5.07 seconds =       0.08 minutes
	system time =       0.36 seconds =       0.01 minutes
	total time  =          3 seconds =       0.05 minutes

*** tstart() called on node37.bme.utexas.edu
*** at Tue Feb 22 18:01:33 2022


  //>>>>>>>>>>>>>>>>>>>>>>>>>>>>>>>>>>>//
  //               DFMP2               //
  //<<<<<<<<<<<<<<<<<<<<<<<<<<<<<<<<<<<//

   => Loading Basis Set <=

    Name: (AUG-CC-PVTZ AUX)
    Role: RIFIT
    Keyword: DF_BASIS_MP2
    atoms 1   entry O          line   264 file /home/bdw2292/miniconda3/envs/amoebamdpoltype/share/psi4/basis/aug-cc-pvtz-ri.gbs 
    atoms 2-3 entry H          line    30 file /home/bdw2292/miniconda3/envs/amoebamdpoltype/share/psi4/basis/aug-cc-pvtz-ri.gbs 

	 --------------------------------------------------------
	                          DF-MP2                         
	      2nd-Order Density-Fitted Moller-Plesset Theory     
	              RMP2 Wavefunction,   4 Threads             
	                                                         
	        Rob Parrish, Justin Turney, Andy Simmonett,      
	           Ed Hohenstein, and C. David Sherrill          
	 --------------------------------------------------------

   => Auxiliary Basis Set <=

  Basis Set: (AUG-CC-PVTZ AUX)
    Blend: AUG-CC-PVTZ-RI
    Number of shells: 56
    Number of basis function: 198
    Number of Cartesian functions: 246
    Spherical Harmonics?: true
    Max angular momentum: 4

	 --------------------------------------------------------
	                 NBF =    92, NAUX =   198
	 --------------------------------------------------------
	   CLASS    FOCC     OCC    AOCC    AVIR     VIR    FVIR
	   PAIRS       1       5       4      87      87       0
	 --------------------------------------------------------

	-----------------------------------------------------------
	 ==================> DF-MP2 Energies <==================== 
	-----------------------------------------------------------
	 Reference Energy          =     -76.0604350666258995 [Eh]
	 Singles Energy            =      -0.0000000000000000 [Eh]
	 Same-Spin Energy          =      -0.0651071399834676 [Eh]
	 Opposite-Spin Energy      =      -0.2030207664019951 [Eh]
	 Correlation Energy        =      -0.2681279063854627 [Eh]
	 Total Energy              =     -76.3285629730113584 [Eh]
	-----------------------------------------------------------
	 ================> DF-SCS-MP2 Energies <================== 
	-----------------------------------------------------------
	 SCS Same-Spin Scale       =       0.3333333333333333 [-]
	 SCS Opposite-Spin Scale   =       1.2000000000000000 [-]
	 SCS Same-Spin Energy      =      -0.0217023799944892 [Eh]
	 SCS Opposite-Spin Energy  =      -0.2436249196823941 [Eh]
	 SCS Correlation Energy    =      -0.2653272996768833 [Eh]
	 SCS Total Energy          =     -76.3257623663027829 [Eh]
	-----------------------------------------------------------


*** tstop() called on node37.bme.utexas.edu at Tue Feb 22 18:01:34 2022
Module time:
	user time   =       1.86 seconds =       0.03 minutes
	system time =       0.12 seconds =       0.00 minutes
	total time  =          1 seconds =       0.02 minutes
Total time:
	user time   =       6.94 seconds =       0.12 minutes
	system time =       0.49 seconds =       0.01 minutes
	total time  =          4 seconds =       0.07 minutes

  //>>>>>>>>>>>>>>>>>>>>>>>>>>>>>>>>>>>>//
  // CBS Computation: MP2 / AUG-CC-PVQZ //
  //<<<<<<<<<<<<<<<<<<<<<<<<<<<<<<<<<<<<//

    SCF Algorithm Type (re)set to DF.

*** tstart() called on node37.bme.utexas.edu
*** at Tue Feb 22 18:01:34 2022

   => Loading Basis Set <=

    Name: AUG-CC-PVQZ
    Role: ORBITAL
    Keyword: BASIS
    atoms 1   entry O          line   419 file /home/bdw2292/miniconda3/envs/amoebamdpoltype/share/psi4/basis/aug-cc-pvqz.gbs 
    atoms 2-3 entry H          line    36 file /home/bdw2292/miniconda3/envs/amoebamdpoltype/share/psi4/basis/aug-cc-pvqz.gbs 


         ---------------------------------------------------------
                                   SCF
               by Justin Turney, Rob Parrish, Andy Simmonett
                          and Daniel G. A. Smith
                              RHF Reference
                        4 Threads,  14305 MiB Core
         ---------------------------------------------------------

  ==> Geometry <==

    Molecular point group: c1
    Full point group: C1

    Geometry (in Angstrom), charge = 0, multiplicity = 1:

       Center              X                  Y                   Z               Mass       
    ------------   -----------------  -----------------  -----------------  -----------------
         O            1.967541080089     1.061830186139     0.924575661531    15.994914619570
         H            1.684491880089     0.496804186139     0.203197461531     1.007825032230
         H            2.632480580089     1.662610986139     0.588614761531     1.007825032230

  Running in c1 symmetry.

  Rotational constants: A =     22.69535  B =      0.15854  C =      0.15796 [cm^-1]
  Rotational constants: A = 680389.32628  B =   4752.99031  C =   4735.51393 [MHz]
  Nuclear repulsion =    9.178742414479768

  Charge       = 0
  Multiplicity = 1
  Electrons    = 10
  Nalpha       = 5
  Nbeta        = 5

  ==> Algorithm <==

  SCF Algorithm Type is DF.
  DIIS enabled.
  MOM disabled.
  Fractional occupation disabled.
  Guess Type is SAD.
  Energy threshold   = 1.00e-08
  Density threshold  = 1.00e-08
  Integral threshold = 0.00e+00

  ==> Primary Basis <==

  Basis Set: AUG-CC-PVQZ
    Blend: AUG-CC-PVQZ
    Number of shells: 48
    Number of basis function: 172
    Number of Cartesian functions: 215
    Spherical Harmonics?: true
    Max angular momentum: 4

   => Loading Basis Set <=

    Name: (AUG-CC-PVQZ AUX)
    Role: JKFIT
    Keyword: DF_BASIS_SCF
    atoms 1   entry O          line   318 file /home/bdw2292/miniconda3/envs/amoebamdpoltype/share/psi4/basis/aug-cc-pvqz-jkfit.gbs 
    atoms 2-3 entry H          line    70 file /home/bdw2292/miniconda3/envs/amoebamdpoltype/share/psi4/basis/aug-cc-pvqz-jkfit.gbs 

  ==> Pre-Iterations <==

   -------------------------------------------------------
    Irrep   Nso     Nmo     Nalpha   Nbeta   Ndocc  Nsocc
   -------------------------------------------------------
     A        172     172       0       0       0       0
   -------------------------------------------------------
    Total     172     172       5       5       5       0
   -------------------------------------------------------

  ==> Integral Setup <==

  DFHelper Memory: AOs need 0.074 GiB; user supplied 10.477 GiB. Using in-core AOs.

  ==> MemDFJK: Density-Fitted J/K Matrices <==

    J tasked:                   Yes
    K tasked:                   Yes
    wK tasked:                   No
    OpenMP threads:               4
    Memory [MiB]:             10728
    Algorithm:                 Core
    Schwarz Cutoff:           1E-12
    Mask sparsity (%):       0.0000
    Fitting Condition:        1E-10

   => Auxiliary Basis Set <=

  Basis Set: (AUG-CC-PVQZ AUX)
    Blend: AUG-CC-PVQZ-JKFIT
    Number of shells: 70
    Number of basis function: 294
    Number of Cartesian functions: 400
    Spherical Harmonics?: true
    Max angular momentum: 5

  Minimum eigenvalue in the overlap matrix is 8.5630443042E-05.
  Using Symmetric Orthogonalization.

  SCF Guess: Superposition of Atomic Densities via on-the-fly atomic UHF.

  ==> Iterations <==

                           Total Energy        Delta E     RMS |[F,P]|

   @DF-RHF iter SAD:   -75.47874032775223   -7.54787e+01   0.00000e+00 
   @DF-RHF iter   1:   -75.98160923647249   -5.02869e-01   2.73017e-03 DIIS
   @DF-RHF iter   2:   -76.03412167626193   -5.25124e-02   1.85599e-03 DIIS
   @DF-RHF iter   3:   -76.06540064332570   -3.12790e-02   1.26424e-04 DIIS
   @DF-RHF iter   4:   -76.06579291679859   -3.92273e-04   3.09137e-05 DIIS
   @DF-RHF iter   5:   -76.06581786773492   -2.49509e-05   6.93848e-06 DIIS
   @DF-RHF iter   6:   -76.06581991493772   -2.04720e-06   1.58417e-06 DIIS
   @DF-RHF iter   7:   -76.06582003422253   -1.19285e-07   3.08078e-07 DIIS
   @DF-RHF iter   8:   -76.06582003822855   -4.00603e-09   4.93680e-08 DIIS
   @DF-RHF iter   9:   -76.06582003831249   -8.39435e-11   1.19637e-08 DIIS
   @DF-RHF iter  10:   -76.06582003831639   -3.89377e-12   1.66962e-09 DIIS
  Energy and wave function converged.


  ==> Post-Iterations <==

    Orbital Energies [Eh]
    ---------------------

    Doubly Occupied:                                                      

       1A    -20.563270     2A     -1.349918     3A     -0.724185  
       4A     -0.577836     5A     -0.509353  

    Virtual:                                                              

       6A      0.027128     7A      0.042889     8A      0.114662  
       9A      0.132688    10A      0.150394    11A      0.157915  
      12A      0.185898    13A      0.197103    14A      0.208336  
      15A      0.241041    16A      0.258802    17A      0.290489  
      18A      0.357995    19A      0.390504    20A      0.471647  
      21A      0.506839    22A      0.542960    23A      0.545802  
      24A      0.554312    25A      0.613322    26A      0.634128  
      27A      0.649413    28A      0.662723    29A      0.665883  
      30A      0.689916    31A      0.705271    32A      0.715113  
      33A      0.769520    34A      0.787578    35A      0.803440  
      36A      0.809263    37A      0.846469    38A      0.855350  
      39A      0.967531    40A      1.134264    41A      1.139870  
      42A      1.216056    43A      1.329192    44A      1.419406  
      45A      1.480446    46A      1.506335    47A      1.520982  
      48A      1.525220    49A      1.555718    50A      1.595342  
      51A      1.618225    52A      1.636558    53A      1.659871  
      54A      1.671851    55A      1.686259    56A      1.702563  
      57A      1.720777    58A      1.762711    59A      1.780500  
      60A      1.792638    61A      1.829164    62A      1.863085  
      63A      1.882519    64A      1.901349    65A      1.955387  
      66A      2.013772    67A      2.022636    68A      2.029838  
      69A      2.099282    70A      2.217970    71A      2.225332  
      72A      2.307284    73A      2.488630    74A      2.640868  
      75A      2.642176    76A      2.889988    77A      2.961699  
      78A      3.009052    79A      3.024662    80A      3.060905  
      81A      3.087861    82A      3.255122    83A      3.284449  
      84A      3.307896    85A      3.527185    86A      3.591080  
      87A      3.657007    88A      3.683136    89A      3.738714  
      90A      3.742032    91A      3.921076    92A      4.067310  
      93A      4.159907    94A      4.170501    95A      4.175021  
      96A      4.181092    97A      4.250057    98A      4.343099  
      99A      4.420045   100A      4.566431   101A      4.667127  
     102A      4.759685   103A      4.802588   104A      4.805158  
     105A      4.835944   106A      4.875288   107A      4.998481  
     108A      5.273381   109A      5.315716   110A      5.512548  
     111A      5.545193   112A      5.878000   113A      5.880201  
     114A      6.079115   115A      6.229736   116A      6.837779  
     117A      6.857156   118A      6.862611   119A      6.953160  
     120A      7.712974   121A      7.780263   122A      7.826819  
     123A      7.843967   124A      7.871812   125A      7.917152  
     126A      7.944833   127A      8.007591   128A      8.198392  
     129A      8.331002   130A      8.535534   131A      8.593801  
     132A      8.699077   133A      8.755239   134A      8.797064  
     135A      8.873204   136A      8.982384   137A      9.061357  
     138A      9.145967   139A      9.537805   140A      9.842320  
     141A      9.959206   142A      9.960823   143A     10.010372  
     144A     10.431879   145A     10.477162   146A     10.656611  
     147A     10.994302   148A     11.040403   149A     11.080916  
     150A     11.260697   151A     11.365135   152A     11.436895  
     153A     11.697107   154A     11.795965   155A     11.835001  
     156A     12.010550   157A     12.177129   158A     12.222438  
     159A     12.536481   160A     12.733928   161A     12.870765  
     162A     12.895228   163A     13.210137   164A     13.996154  
     165A     14.036127   166A     14.486327   167A     14.841139  
     168A     14.873752   169A     15.294387   170A     16.919518  
     171A     17.265153   172A     45.488744  

    Final Occupation by Irrep:
              A 
    DOCC [     5 ]

  @DF-RHF Final Energy:   -76.06582003831639

   => Energetics <=

    Nuclear Repulsion Energy =              9.1787424144797676
    One-Electron Energy =                -123.0400039367852969
    Two-Electron Energy =                  37.7954414839891371
    Total Energy =                        -76.0658200383163887

Computation Completed


Properties will be evaluated at   3.758496,   2.010349,   1.635387 [a0]

Properties computed using the SCF density matrix

  Nuclear Dipole Moment: [e a0]
     X:     0.3178      Y:     0.0298      Z:    -0.8800

  Electronic Dipole Moment: [e a0]
     X:    -0.0611      Y:    -0.0055      Z:     0.1697

  Dipole Moment: [e a0]
     X:     0.2568      Y:     0.0243      Z:    -0.7103     Total:     0.7557

  Dipole Moment: [D]
     X:     0.6526      Y:     0.0616      Z:    -1.8054     Total:     1.9207


*** tstop() called on node37.bme.utexas.edu at Tue Feb 22 18:01:38 2022
Module time:
	user time   =      10.62 seconds =       0.18 minutes
	system time =       0.75 seconds =       0.01 minutes
	total time  =          4 seconds =       0.07 minutes
Total time:
	user time   =      17.58 seconds =       0.29 minutes
	system time =       1.24 seconds =       0.02 minutes
	total time  =          8 seconds =       0.13 minutes

*** tstart() called on node37.bme.utexas.edu
*** at Tue Feb 22 18:01:38 2022


  //>>>>>>>>>>>>>>>>>>>>>>>>>>>>>>>>>>>//
  //               DFMP2               //
  //<<<<<<<<<<<<<<<<<<<<<<<<<<<<<<<<<<<//

   => Loading Basis Set <=

    Name: (AUG-CC-PVQZ AUX)
    Role: RIFIT
    Keyword: DF_BASIS_MP2
    atoms 1   entry O          line   332 file /home/bdw2292/miniconda3/envs/amoebamdpoltype/share/psi4/basis/aug-cc-pvqz-ri.gbs 
    atoms 2-3 entry H          line    30 file /home/bdw2292/miniconda3/envs/amoebamdpoltype/share/psi4/basis/aug-cc-pvqz-ri.gbs 

	 --------------------------------------------------------
	                          DF-MP2                         
	      2nd-Order Density-Fitted Moller-Plesset Theory     
	              RMP2 Wavefunction,   4 Threads             
	                                                         
	        Rob Parrish, Justin Turney, Andy Simmonett,      
	           Ed Hohenstein, and C. David Sherrill          
	 --------------------------------------------------------

   => Auxiliary Basis Set <=

  Basis Set: (AUG-CC-PVQZ AUX)
    Blend: AUG-CC-PVQZ-RI
    Number of shells: 76
    Number of basis function: 328
    Number of Cartesian functions: 447
    Spherical Harmonics?: true
    Max angular momentum: 5

	 --------------------------------------------------------
	                 NBF =   172, NAUX =   328
	 --------------------------------------------------------
	   CLASS    FOCC     OCC    AOCC    AVIR     VIR    FVIR
	   PAIRS       1       5       4     167     167       0
	 --------------------------------------------------------

	-----------------------------------------------------------
	 ==================> DF-MP2 Energies <==================== 
	-----------------------------------------------------------
	 Reference Energy          =     -76.0658200383163887 [Eh]
	 Singles Energy            =      -0.0000000000000000 [Eh]
	 Same-Spin Energy          =      -0.0671761954792703 [Eh]
	 Opposite-Spin Energy      =      -0.2185574022924256 [Eh]
	 Correlation Energy        =      -0.2857335977716959 [Eh]
	 Total Energy              =     -76.3515536360880844 [Eh]
	-----------------------------------------------------------
	 ================> DF-SCS-MP2 Energies <================== 
	-----------------------------------------------------------
	 SCS Same-Spin Scale       =       0.3333333333333333 [-]
	 SCS Opposite-Spin Scale   =       1.2000000000000000 [-]
	 SCS Same-Spin Energy      =      -0.0223920651597568 [Eh]
	 SCS Opposite-Spin Energy  =      -0.2622688827509107 [Eh]
	 SCS Correlation Energy    =      -0.2846609479106675 [Eh]
	 SCS Total Energy          =     -76.3504809862270548 [Eh]
	-----------------------------------------------------------


*** tstop() called on node37.bme.utexas.edu at Tue Feb 22 18:01:39 2022
Module time:
	user time   =       3.22 seconds =       0.05 minutes
	system time =       0.24 seconds =       0.00 minutes
	total time  =          1 seconds =       0.02 minutes
Total time:
	user time   =      20.80 seconds =       0.35 minutes
	system time =       1.48 seconds =       0.02 minutes
	total time  =          9 seconds =       0.15 minutes

  //>>>>>>>>>>>>>>>>>>>>>>>>>>>>>>>>>>>//
  //  CBS Results: mp2/aug-cc-pV[TQ]Z  //
  //<<<<<<<<<<<<<<<<<<<<<<<<<<<<<<<<<<<//


   ==> HF <==

   HI-zeta (4) Energy:               -76.065820038316


   ==> Helgaker 2-point correlated extrapolation for method: MP2 <==

   LO-zeta (3) Energy:               -76.328562973011
   HI-zeta (4) Energy:               -76.351553636088
   Alpha (exponent) Value:             3.000000000000
   Extrapolated Energy:              -76.368330606441

   @Extrapolated MP2/(T,Q):          -76.368330606441



   ==> Helgaker 2-point correlated extrapolation for method: HF <==

   LO-zeta (3) Energy:               -76.060435066626
   HI-zeta (4) Energy:               -76.065820038316
   Alpha (exponent) Value:             3.000000000000
   Extrapolated Energy:              -76.069749612253

   @Extrapolated HF/(T,Q):           -76.069749612253


   ==> Components <==

  ---------------------------------------------------------------------------------------------------------
                          Method / Basis                      Rqd      Energy [Eh]   Variable
  ---------------------------------------------------------------------------------------------------------
                              hf / aug-cc-pvtz                  *     -76.06043507   HF TOTAL ENERGY
                             mp2 / aug-cc-pvtz                  *     -76.32856297   MP2 TOTAL ENERGY
                              hf / aug-cc-pvqz                  *     -76.06582004   HF TOTAL ENERGY
                             mp2 / aug-cc-pvqz                  *     -76.35155364   MP2 TOTAL ENERGY
  ---------------------------------------------------------------------------------------------------------

   ==> Stages <==

  ---------------------------------------------------------------------------------------------------------
      Stage               Method / Basis                       Wt      Energy [Eh]   Scheme
  ---------------------------------------------------------------------------------------------------------
        scf                   hf / aug-cc-pvqz                  1     -76.06582004   xtpl_highest_1
       corl                  mp2 / aug-cc-pv[tq]z               1     -76.36833061   corl_xtpl_helgaker_2
       corl                   hf / aug-cc-pv[tq]z              -1     -76.06974961   corl_xtpl_helgaker_2
  ---------------------------------------------------------------------------------------------------------

   ==> CBS <==

  ---------------------------------------------------------------------------------------------------------
      Stage               Method / Basis                               Energy [Eh]   Scheme
  ---------------------------------------------------------------------------------------------------------
        scf                   hf / aug-cc-pvqz                        -76.06582004   xtpl_highest_1
       corl                  mp2 / aug-cc-pv[tq]z                      -0.29858099   corl_xtpl_helgaker_2
      total                  CBS                                      -76.36440103   
  ---------------------------------------------------------------------------------------------------------
   => Loading Basis Set <=

    Name: DEF2-SVP
    Role: ORBITAL
    Keyword: BASIS
    atoms 1   entry O          line   130 file /home/bdw2292/miniconda3/envs/amoebamdpoltype/share/psi4/basis/def2-svp.gbs 
    atoms 2-3 entry H          line    15 file /home/bdw2292/miniconda3/envs/amoebamdpoltype/share/psi4/basis/def2-svp.gbs 


       N-Body: Complex Energy (fragments = (2,), basis = (2,):   -76.36440103250506)

       N-Body: Computing complex (2/4) with fragments (2,) in the basis of fragments (1, 2).


  //>>>>>>>>>>>>>>>>>>>>>>>>>>>>>>>>>>>//
  //   CBS Setup: mp2/aug-cc-pV[TQ]Z   //
  //<<<<<<<<<<<<<<<<<<<<<<<<<<<<<<<<<<<//

    Naive listing of computations required.
             hf / aug-cc-pvqz              for  HF TOTAL ENERGY
            mp2 / aug-cc-pvtz              for  MP2 TOTAL ENERGY
            mp2 / aug-cc-pvqz              for  MP2 TOTAL ENERGY
             hf / aug-cc-pvtz              for  HF TOTAL ENERGY
             hf / aug-cc-pvqz              for  HF TOTAL ENERGY

    Enlightened listing of computations required.
            mp2 / aug-cc-pvtz              for  MP2 TOTAL ENERGY
            mp2 / aug-cc-pvqz              for  MP2 TOTAL ENERGY

    Full listing of computations to be obtained (required and bonus).
             hf / aug-cc-pvtz              for  HF TOTAL ENERGY
            mp2 / aug-cc-pvtz              for  MP2 TOTAL ENERGY
             hf / aug-cc-pvqz              for  HF TOTAL ENERGY
            mp2 / aug-cc-pvqz              for  MP2 TOTAL ENERGY

  //>>>>>>>>>>>>>>>>>>>>>>>>>>>>>>>>>>>>//
  // CBS Computation: MP2 / AUG-CC-PVTZ //
  //<<<<<<<<<<<<<<<<<<<<<<<<<<<<<<<<<<<<//

    SCF Algorithm Type (re)set to DF.

*** tstart() called on node37.bme.utexas.edu
*** at Tue Feb 22 18:01:41 2022

   => Loading Basis Set <=

    Name: AUG-CC-PVTZ
    Role: ORBITAL
    Keyword: BASIS
    atoms 1        entry CL         line   984 file /home/bdw2292/miniconda3/envs/amoebamdpoltype/share/psi4/basis/aug-cc-pvtz.gbs 
    atoms 2        entry C          line   235 file /home/bdw2292/miniconda3/envs/amoebamdpoltype/share/psi4/basis/aug-cc-pvtz.gbs 
    atoms 3-5, 7-8 entry H          line    36 file /home/bdw2292/miniconda3/envs/amoebamdpoltype/share/psi4/basis/aug-cc-pvtz.gbs 
    atoms 6        entry O          line   327 file /home/bdw2292/miniconda3/envs/amoebamdpoltype/share/psi4/basis/aug-cc-pvtz.gbs 


         ---------------------------------------------------------
                                   SCF
               by Justin Turney, Rob Parrish, Andy Simmonett
                          and Daniel G. A. Smith
                              RHF Reference
                        4 Threads,  14305 MiB Core
         ---------------------------------------------------------

  ==> Geometry <==

    Molecular point group: c1
    Full point group: C1

    Geometry (in Angstrom), charge = 0, multiplicity = 1:

       Center              X                  Y                   Z               Mass       
    ------------   -----------------  -----------------  -----------------  -----------------
      Gh(CL)         -0.467805519911    -0.622449213861    -0.749072538469    34.968852682000
      Gh(C)          -1.264340119911     0.142447786139     0.649827261531    12.000000000000
      Gh(H)          -2.302575619911    -0.185859813861     0.698112561531     1.007825032230
      Gh(H)          -0.736171619911    -0.149480913861     1.558157761531     1.007825032230
      Gh(H)          -1.218639319911     1.225143586139     0.531677061531     1.007825032230
         O            1.967541080089     1.061830186139     0.924575661531    15.994914619570
         H            1.684491880089     0.496804186139     0.203197461531     1.007825032230
         H            2.632480580089     1.662610986139     0.588614761531     1.007825032230

  Running in c1 symmetry.

  Rotational constants: A =      0.44058  B =      0.11390  C =      0.09237 [cm^-1]
  Rotational constants: A =  13208.22146  B =   3414.49838  C =   2769.04000 [MHz]
  Nuclear repulsion =    9.178742414479768

  Charge       = 0
  Multiplicity = 1
  Electrons    = 10
  Nalpha       = 5
  Nbeta        = 5

  ==> Algorithm <==

  SCF Algorithm Type is DF.
  DIIS enabled.
  MOM disabled.
  Fractional occupation disabled.
  Guess Type is SAD.
  Energy threshold   = 1.00e-08
  Density threshold  = 1.00e-08
  Integral threshold = 0.00e+00

  ==> Primary Basis <==

  Basis Set: AUG-CC-PVTZ
    Blend: AUG-CC-PVTZ
    Number of shells: 89
    Number of basis function: 257
    Number of Cartesian functions: 294
    Spherical Harmonics?: true
    Max angular momentum: 3

   => Loading Basis Set <=

    Name: (AUG-CC-PVTZ AUX)
    Role: JKFIT
    Keyword: DF_BASIS_SCF
    atoms 1        entry CL         line   816 file /home/bdw2292/miniconda3/envs/amoebamdpoltype/share/psi4/basis/aug-cc-pvtz-jkfit.gbs 
    atoms 2        entry C          line   162 file /home/bdw2292/miniconda3/envs/amoebamdpoltype/share/psi4/basis/aug-cc-pvtz-jkfit.gbs 
    atoms 3-5, 7-8 entry H          line    70 file /home/bdw2292/miniconda3/envs/amoebamdpoltype/share/psi4/basis/aug-cc-pvtz-jkfit.gbs 
    atoms 6        entry O          line   286 file /home/bdw2292/miniconda3/envs/amoebamdpoltype/share/psi4/basis/aug-cc-pvtz-jkfit.gbs 

  ==> Pre-Iterations <==

   -------------------------------------------------------
    Irrep   Nso     Nmo     Nalpha   Nbeta   Ndocc  Nsocc
   -------------------------------------------------------
     A        257     257       0       0       0       0
   -------------------------------------------------------
    Total     257     257       5       5       5       0
   -------------------------------------------------------

  ==> Integral Setup <==

  DFHelper Memory: AOs need 0.300 GiB; user supplied 10.477 GiB. Using in-core AOs.

  ==> MemDFJK: Density-Fitted J/K Matrices <==

    J tasked:                   Yes
    K tasked:                   Yes
    wK tasked:                   No
    OpenMP threads:               4
    Memory [MiB]:             10728
    Algorithm:                 Core
    Schwarz Cutoff:           1E-12
    Mask sparsity (%):       1.7018
    Fitting Condition:        1E-10

   => Auxiliary Basis Set <=

  Basis Set: (AUG-CC-PVTZ AUX)
    Blend: AUG-CC-PVTZ-JKFIT
    Number of shells: 172
    Number of basis function: 584
    Number of Cartesian functions: 717
    Spherical Harmonics?: true
    Max angular momentum: 4

  Minimum eigenvalue in the overlap matrix is 5.7932648301E-05.
  Using Symmetric Orthogonalization.

  SCF Guess: Superposition of Atomic Densities via on-the-fly atomic UHF.

  ==> Iterations <==

                           Total Energy        Delta E     RMS |[F,P]|

   @DF-RHF iter SAD:   -75.47358571808917   -7.54736e+01   0.00000e+00 
   @DF-RHF iter   1:   -75.97656582743360   -5.02980e-01   1.82343e-03 DIIS
   @DF-RHF iter   2:   -76.02898114388583   -5.24153e-02   1.23675e-03 DIIS
   @DF-RHF iter   3:   -76.06006306626801   -3.10819e-02   8.40081e-05 DIIS
   @DF-RHF iter   4:   -76.06045338113069   -3.90315e-04   2.00853e-05 DIIS
   @DF-RHF iter   5:   -76.06047745769673   -2.40766e-05   4.52489e-06 DIIS
   @DF-RHF iter   6:   -76.06047942544708   -1.96775e-06   1.00666e-06 DIIS
   @DF-RHF iter   7:   -76.06047953379645   -1.08349e-07   1.89973e-07 DIIS
   @DF-RHF iter   8:   -76.06047953721875   -3.42230e-09   3.15566e-08 DIIS
   @DF-RHF iter   9:   -76.06047953729316   -7.44080e-11   7.84653e-09 DIIS
  Energy and wave function converged.


  ==> Post-Iterations <==

    Orbital Energies [Eh]
    ---------------------

    Doubly Occupied:                                                      

       1A    -20.565670     2A     -1.350604     3A     -0.724184  
       4A     -0.577746     5A     -0.509210  

    Virtual:                                                              

       6A      0.023066     7A      0.036096     8A      0.047297  
       9A      0.051633    10A      0.060164    11A      0.080821  
      12A      0.104333    13A      0.111116    14A      0.114577  
      15A      0.121349    16A      0.133225    17A      0.144506  
      18A      0.165458    19A      0.172225    20A      0.181007  
      21A      0.196761    22A      0.223963    23A      0.235332  
      24A      0.263335    25A      0.278343    26A      0.282009  
      27A      0.299205    28A      0.302004    29A      0.308834  
      30A      0.312452    31A      0.315882    32A      0.325142  
      33A      0.334035    34A      0.338550    35A      0.356766  
      36A      0.383569    37A      0.391190    38A      0.414155  
      39A      0.420586    40A      0.432899    41A      0.444939  
      42A      0.453951    43A      0.465642    44A      0.470371  
      45A      0.481334    46A      0.497629    47A      0.514021  
      48A      0.538278    49A      0.544130    50A      0.579145  
      51A      0.590226    52A      0.605459    53A      0.614346  
      54A      0.641580    55A      0.647687    56A      0.667438  
      57A      0.668525    58A      0.683038    59A      0.702464  
      60A      0.725188    61A      0.732031    62A      0.757917  
      63A      0.771291    64A      0.794382    65A      0.815658  
      66A      0.870879    67A      0.885506    68A      0.905328  
      69A      0.929780    70A      0.950133    71A      0.961673  
      72A      0.976161    73A      0.986453    74A      1.006903  
      75A      1.024856    76A      1.036183    77A      1.043820  
      78A      1.056423    79A      1.061585    80A      1.079451  
      81A      1.092309    82A      1.097686    83A      1.102706  
      84A      1.115904    85A      1.137211    86A      1.143441  
      87A      1.158752    88A      1.168496    89A      1.177026  
      90A      1.207432    91A      1.214375    92A      1.231958  
      93A      1.246879    94A      1.260876    95A      1.283117  
      96A      1.304029    97A      1.313315    98A      1.326971  
      99A      1.357463   100A      1.370654   101A      1.390595  
     102A      1.394198   103A      1.412546   104A      1.431040  
     105A      1.452231   106A      1.480700   107A      1.501299  
     108A      1.526037   109A      1.536695   110A      1.562532  
     111A      1.567459   112A      1.580924   113A      1.592268  
     114A      1.605742   115A      1.633527   116A      1.670322  
     117A      1.689618   118A      1.734177   119A      1.757208  
     120A      1.792311   121A      1.832739   122A      1.880871  
     123A      1.904064   124A      1.914746   125A      1.936905  
     126A      1.978757   127A      1.989862   128A      2.016696  
     129A      2.062340   130A      2.076718   131A      2.093232  
     132A      2.116869   133A      2.138085   134A      2.145641  
     135A      2.152030   136A      2.176571   137A      2.272390  
     138A      2.320952   139A      2.334238   140A      2.380675  
     141A      2.397889   142A      2.440967   143A      2.479843  
     144A      2.490520   145A      2.513508   146A      2.526223  
     147A      2.535254   148A      2.538264   149A      2.584765  
     150A      2.599621   151A      2.706676   152A      2.747588  
     153A      2.769610   154A      2.823181   155A      2.841987  
     156A      2.921787   157A      2.975109   158A      3.021687  
     159A      3.710228   160A      3.824204   161A      3.859697  
     162A      3.914727   163A      3.954136   164A      3.977341  
     165A      3.997244   166A      4.001883   167A      4.015618  
     168A      4.051216   169A      4.081414   170A      4.095231  
     171A      4.103854   172A      4.162077   173A      4.177939  
     174A      4.189250   175A      4.222305   176A      4.232032  
     177A      4.237920   178A      4.259027   179A      4.276605  
     180A      4.372624   181A      4.407204   182A      4.426145  
     183A      4.429917   184A      4.458320   185A      4.466621  
     186A      4.474002   187A      4.486075   188A      4.542307  
     189A      4.544366   190A      4.559347   191A      4.602854  
     192A      4.609752   193A      4.620859   194A      4.715712  
     195A      4.758577   196A      4.772482   197A      4.777407  
     198A      4.821111   199A      4.865527   200A      4.882160  
     201A      4.899317   202A      4.901939   203A      4.914483  
     204A      5.052900   205A      5.085268   206A      5.118968  
     207A      5.159685   208A      5.190074   209A      5.241670  
     210A      5.252109   211A      5.337172   212A      5.345549  
     213A      5.355840   214A      5.385236   215A      5.421320  
     216A      5.487042   217A      5.488522   218A      5.524626  
     219A      5.543098   220A      5.712673   221A      5.733447  
     222A      5.795516   223A      6.042543   224A      6.150733  
     225A      6.163147   226A      6.185148   227A      6.218808  
     228A      6.236374   229A      6.577749   230A      6.677468  
     231A      6.701439   232A      6.788108   233A      6.893282  
     234A      7.142316   235A      7.177564   236A      7.314337  
     237A      7.332541   238A      7.365797   239A      7.401320  
     240A      7.454108   241A      7.640947   242A      7.758636  
     243A      7.781537   244A      7.858149   245A      7.946939  
     246A      7.997745   247A      8.149785   248A      8.198804  
     249A      8.824853   250A     10.302495   251A     16.040061  
     252A     16.353719   253A     28.041855   254A     28.228134  
     255A     28.979947   256A     51.350361   257A    161.030222  

    Final Occupation by Irrep:
              A 
    DOCC [     5 ]

  @DF-RHF Final Energy:   -76.06047953729316

   => Energetics <=

    Nuclear Repulsion Energy =              9.1787424144797676
    One-Electron Energy =                -123.0236155099408677
    Two-Electron Energy =                  37.7843935581679418
    Total Energy =                        -76.0604795372931619

Computation Completed


Properties will be evaluated at   0.000000,  -0.000000,  -0.000000 [a0]

Properties computed using the SCF density matrix

  Nuclear Dipole Moment: [e a0]
     X:    37.9028      Y:    20.1332      Z:    15.4739

  Electronic Dipole Moment: [e a0]
     X:   -37.6457      Y:   -20.1092      Z:   -16.1849

  Dipole Moment: [e a0]
     X:     0.2572      Y:     0.0240      Z:    -0.7111     Total:     0.7565

  Dipole Moment: [D]
     X:     0.6536      Y:     0.0611      Z:    -1.8073     Total:     1.9229


*** tstop() called on node37.bme.utexas.edu at Tue Feb 22 18:01:49 2022
Module time:
	user time   =      20.22 seconds =       0.34 minutes
	system time =       1.25 seconds =       0.02 minutes
	total time  =          8 seconds =       0.13 minutes
Total time:
	user time   =      42.75 seconds =       0.71 minutes
	system time =       2.78 seconds =       0.05 minutes
	total time  =         19 seconds =       0.32 minutes

*** tstart() called on node37.bme.utexas.edu
*** at Tue Feb 22 18:01:49 2022


  //>>>>>>>>>>>>>>>>>>>>>>>>>>>>>>>>>>>//
  //               DFMP2               //
  //<<<<<<<<<<<<<<<<<<<<<<<<<<<<<<<<<<<//

   => Loading Basis Set <=

    Name: (AUG-CC-PVTZ AUX)
    Role: RIFIT
    Keyword: DF_BASIS_MP2
    atoms 1        entry CL         line   742 file /home/bdw2292/miniconda3/envs/amoebamdpoltype/share/psi4/basis/aug-cc-pvtz-ri.gbs 
    atoms 2        entry C          line   148 file /home/bdw2292/miniconda3/envs/amoebamdpoltype/share/psi4/basis/aug-cc-pvtz-ri.gbs 
    atoms 3-5, 7-8 entry H          line    30 file /home/bdw2292/miniconda3/envs/amoebamdpoltype/share/psi4/basis/aug-cc-pvtz-ri.gbs 
    atoms 6        entry O          line   264 file /home/bdw2292/miniconda3/envs/amoebamdpoltype/share/psi4/basis/aug-cc-pvtz-ri.gbs 

	 --------------------------------------------------------
	                          DF-MP2                         
	      2nd-Order Density-Fitted Moller-Plesset Theory     
	              RMP2 Wavefunction,   4 Threads             
	                                                         
	        Rob Parrish, Justin Turney, Andy Simmonett,      
	           Ed Hohenstein, and C. David Sherrill          
	 --------------------------------------------------------

   => Auxiliary Basis Set <=

  Basis Set: (AUG-CC-PVTZ AUX)
    Blend: AUG-CC-PVTZ-RI
    Number of shells: 163
    Number of basis function: 589
    Number of Cartesian functions: 738
    Spherical Harmonics?: true
    Max angular momentum: 4

	 --------------------------------------------------------
	                 NBF =   257, NAUX =   589
	 --------------------------------------------------------
	   CLASS    FOCC     OCC    AOCC    AVIR     VIR    FVIR
	   PAIRS       1       5       4     252     252       0
	 --------------------------------------------------------

	-----------------------------------------------------------
	 ==================> DF-MP2 Energies <==================== 
	-----------------------------------------------------------
	 Reference Energy          =     -76.0604795372931619 [Eh]
	 Singles Energy            =      -0.0000000000000000 [Eh]
	 Same-Spin Energy          =      -0.0651244545462610 [Eh]
	 Opposite-Spin Energy      =      -0.2032040892131067 [Eh]
	 Correlation Energy        =      -0.2683285437593677 [Eh]
	 Total Energy              =     -76.3288080810525287 [Eh]
	-----------------------------------------------------------
	 ================> DF-SCS-MP2 Energies <================== 
	-----------------------------------------------------------
	 SCS Same-Spin Scale       =       0.3333333333333333 [-]
	 SCS Opposite-Spin Scale   =       1.2000000000000000 [-]
	 SCS Same-Spin Energy      =      -0.0217081515154203 [Eh]
	 SCS Opposite-Spin Energy  =      -0.2438449070557281 [Eh]
	 SCS Correlation Energy    =      -0.2655530585711484 [Eh]
	 SCS Total Energy          =     -76.3260325958643051 [Eh]
	-----------------------------------------------------------


*** tstop() called on node37.bme.utexas.edu at Tue Feb 22 18:01:52 2022
Module time:
	user time   =       7.18 seconds =       0.12 minutes
	system time =       0.47 seconds =       0.01 minutes
	total time  =          3 seconds =       0.05 minutes
Total time:
	user time   =      49.93 seconds =       0.83 minutes
	system time =       3.25 seconds =       0.05 minutes
	total time  =         22 seconds =       0.37 minutes

  //>>>>>>>>>>>>>>>>>>>>>>>>>>>>>>>>>>>>//
  // CBS Computation: MP2 / AUG-CC-PVQZ //
  //<<<<<<<<<<<<<<<<<<<<<<<<<<<<<<<<<<<<//

    SCF Algorithm Type (re)set to DF.

*** tstart() called on node37.bme.utexas.edu
*** at Tue Feb 22 18:01:52 2022

   => Loading Basis Set <=

    Name: AUG-CC-PVQZ
    Role: ORBITAL
    Keyword: BASIS
    atoms 1        entry CL         line  1218 file /home/bdw2292/miniconda3/envs/amoebamdpoltype/share/psi4/basis/aug-cc-pvqz.gbs 
    atoms 2        entry C          line   299 file /home/bdw2292/miniconda3/envs/amoebamdpoltype/share/psi4/basis/aug-cc-pvqz.gbs 
    atoms 3-5, 7-8 entry H          line    36 file /home/bdw2292/miniconda3/envs/amoebamdpoltype/share/psi4/basis/aug-cc-pvqz.gbs 
    atoms 6        entry O          line   419 file /home/bdw2292/miniconda3/envs/amoebamdpoltype/share/psi4/basis/aug-cc-pvqz.gbs 


         ---------------------------------------------------------
                                   SCF
               by Justin Turney, Rob Parrish, Andy Simmonett
                          and Daniel G. A. Smith
                              RHF Reference
                        4 Threads,  14305 MiB Core
         ---------------------------------------------------------

  ==> Geometry <==

    Molecular point group: c1
    Full point group: C1

    Geometry (in Angstrom), charge = 0, multiplicity = 1:

       Center              X                  Y                   Z               Mass       
    ------------   -----------------  -----------------  -----------------  -----------------
      Gh(CL)         -0.467805519911    -0.622449213861    -0.749072538469    34.968852682000
      Gh(C)          -1.264340119911     0.142447786139     0.649827261531    12.000000000000
      Gh(H)          -2.302575619911    -0.185859813861     0.698112561531     1.007825032230
      Gh(H)          -0.736171619911    -0.149480913861     1.558157761531     1.007825032230
      Gh(H)          -1.218639319911     1.225143586139     0.531677061531     1.007825032230
         O            1.967541080089     1.061830186139     0.924575661531    15.994914619570
         H            1.684491880089     0.496804186139     0.203197461531     1.007825032230
         H            2.632480580089     1.662610986139     0.588614761531     1.007825032230

  Running in c1 symmetry.

  Rotational constants: A =      0.44058  B =      0.11390  C =      0.09237 [cm^-1]
  Rotational constants: A =  13208.22146  B =   3414.49838  C =   2769.04000 [MHz]
  Nuclear repulsion =    9.178742414479768

  Charge       = 0
  Multiplicity = 1
  Electrons    = 10
  Nalpha       = 5
  Nbeta        = 5

  ==> Algorithm <==

  SCF Algorithm Type is DF.
  DIIS enabled.
  MOM disabled.
  Fractional occupation disabled.
  Guess Type is SAD.
  Energy threshold   = 1.00e-08
  Density threshold  = 1.00e-08
  Integral threshold = 0.00e+00

  ==> Primary Basis <==

  Basis Set: AUG-CC-PVQZ
    Blend: AUG-CC-PVQZ
    Number of shells: 132
    Number of basis function: 474
    Number of Cartesian functions: 594
    Spherical Harmonics?: true
    Max angular momentum: 4

   => Loading Basis Set <=

    Name: (AUG-CC-PVQZ AUX)
    Role: JKFIT
    Keyword: DF_BASIS_SCF
    atoms 1        entry CL         line   904 file /home/bdw2292/miniconda3/envs/amoebamdpoltype/share/psi4/basis/aug-cc-pvqz-jkfit.gbs 
    atoms 2        entry C          line   178 file /home/bdw2292/miniconda3/envs/amoebamdpoltype/share/psi4/basis/aug-cc-pvqz-jkfit.gbs 
    atoms 3-5, 7-8 entry H          line    70 file /home/bdw2292/miniconda3/envs/amoebamdpoltype/share/psi4/basis/aug-cc-pvqz-jkfit.gbs 
    atoms 6        entry O          line   318 file /home/bdw2292/miniconda3/envs/amoebamdpoltype/share/psi4/basis/aug-cc-pvqz-jkfit.gbs 

  ==> Pre-Iterations <==

   -------------------------------------------------------
    Irrep   Nso     Nmo     Nalpha   Nbeta   Ndocc  Nsocc
   -------------------------------------------------------
     A        474     474       0       0       0       0
   -------------------------------------------------------
    Total     474     474       5       5       5       0
   -------------------------------------------------------

  ==> Integral Setup <==

  DFHelper Memory: AOs need 1.422 GiB; user supplied 10.477 GiB. Using in-core AOs.

  ==> MemDFJK: Density-Fitted J/K Matrices <==

    J tasked:                   Yes
    K tasked:                   Yes
    wK tasked:                   No
    OpenMP threads:               4
    Memory [MiB]:             10728
    Algorithm:                 Core
    Schwarz Cutoff:           1E-12
    Mask sparsity (%):       4.5853
    Fitting Condition:        1E-10

   => Auxiliary Basis Set <=

  Basis Set: (AUG-CC-PVQZ AUX)
    Blend: AUG-CC-PVQZ-JKFIT
    Number of shells: 204
    Number of basis function: 848
    Number of Cartesian functions: 1148
    Spherical Harmonics?: true
    Max angular momentum: 5

  Minimum eigenvalue in the overlap matrix is 1.2658945167E-05.
  Using Symmetric Orthogonalization.

  SCF Guess: Superposition of Atomic Densities via on-the-fly atomic UHF.

  ==> Iterations <==

                           Total Energy        Delta E     RMS |[F,P]|

   @DF-RHF iter SAD:   -75.47874032019051   -7.54787e+01   0.00000e+00 
   @DF-RHF iter   1:   -75.98162710840944   -5.02887e-01   9.90716e-04 DIIS
   @DF-RHF iter   2:   -76.03414250813371   -5.25154e-02   6.73502e-04 DIIS
   @DF-RHF iter   3:   -76.06542119683012   -3.12787e-02   4.58790e-05 DIIS
   @DF-RHF iter   4:   -76.06581351685223   -3.92320e-04   1.12183e-05 DIIS
   @DF-RHF iter   5:   -76.06583847073952   -2.49539e-05   2.51831e-06 DIIS
   @DF-RHF iter   6:   -76.06584051894258   -2.04820e-06   5.75005e-07 DIIS
   @DF-RHF iter   7:   -76.06584063834426   -1.19402e-07   1.11944e-07 DIIS
   @DF-RHF iter   8:   -76.06584064236701   -4.02275e-09   1.79459e-08 DIIS
   @DF-RHF iter   9:   -76.06584064245131   -8.42988e-11   4.34719e-09 DIIS
  Energy and wave function converged.


  ==> Post-Iterations <==

    Orbital Energies [Eh]
    ---------------------

    Doubly Occupied:                                                      

       1A    -20.563245     2A     -1.349895     3A     -0.724165  
       4A     -0.577816     5A     -0.509344  

    Virtual:                                                              

       6A      0.020236     7A      0.032641     8A      0.042427  
       9A      0.046302    10A      0.054957    11A      0.071298  
      12A      0.091972    13A      0.094434    14A      0.097682  
      15A      0.103371    16A      0.116966    17A      0.122493  
      18A      0.141326    19A      0.147619    20A      0.154351  
      21A      0.167147    22A      0.185798    23A      0.200441  
      24A      0.222361    25A      0.228641    26A      0.230041  
      27A      0.246915    28A      0.250870    29A      0.256401  
      30A      0.259531    31A      0.267422    32A      0.273175  
      33A      0.279934    34A      0.282437    35A      0.290999  
      36A      0.298561    37A      0.313197    38A      0.331353  
      39A      0.346876    40A      0.353773    41A      0.361216  
      42A      0.364753    43A      0.367547    44A      0.378580  
      45A      0.387575    46A      0.396028    47A      0.408294  
      48A      0.421473    49A      0.429672    50A      0.435412  
      51A      0.441165    52A      0.475753    53A      0.484588  
      54A      0.493075    55A      0.513311    56A      0.525855  
      57A      0.530957    58A      0.537334    59A      0.555258  
      60A      0.567710    61A      0.573180    62A      0.601824  
      63A      0.604724    64A      0.608686    65A      0.628296  
      66A      0.658822    67A      0.679885    68A      0.684852  
      69A      0.692146    70A      0.701073    71A      0.718895  
      72A      0.722183    73A      0.731037    74A      0.736722  
      75A      0.739150    76A      0.764003    77A      0.765122  
      78A      0.788031    79A      0.793317    80A      0.804096  
      81A      0.818860    82A      0.826848    83A      0.839505  
      84A      0.848901    85A      0.858251    86A      0.863656  
      87A      0.875040    88A      0.880012    89A      0.887356  
      90A      0.909011    91A      0.914256    92A      0.939471  
      93A      0.944546    94A      0.961869    95A      0.967263  
      96A      0.988670    97A      0.998586    98A      1.006394  
      99A      1.006834   100A      1.035413   101A      1.048871  
     102A      1.060085   103A      1.065337   104A      1.067977  
     105A      1.082143   106A      1.092899   107A      1.100276  
     108A      1.101623   109A      1.126365   110A      1.137952  
     111A      1.150427   112A      1.174890   113A      1.190213  
     114A      1.192278   115A      1.209786   116A      1.220273  
     117A      1.251918   118A      1.273509   119A      1.280674  
     120A      1.301135   121A      1.331342   122A      1.346930  
     123A      1.361878   124A      1.403262   125A      1.425154  
     126A      1.444441   127A      1.468531   128A      1.476029  
     129A      1.498813   130A      1.506498   131A      1.528101  
     132A      1.543356   133A      1.557335   134A      1.587453  
     135A      1.604429   136A      1.605594   137A      1.613521  
     138A      1.624463   139A      1.630827   140A      1.652085  
     141A      1.662474   142A      1.679102   143A      1.689764  
     144A      1.711001   145A      1.718545   146A      1.731415  
     147A      1.756044   148A      1.765191   149A      1.778986  
     150A      1.793254   151A      1.808565   152A      1.824055  
     153A      1.840767   154A      1.851179   155A      1.853312  
     156A      1.870076   157A      1.887395   158A      1.903495  
     159A      1.914909   160A      1.918180   161A      1.934038  
     162A      1.947111   163A      1.951563   164A      1.960558  
     165A      1.970352   166A      1.990439   167A      1.995548  
     168A      2.018477   169A      2.029999   170A      2.049036  
     171A      2.062367   172A      2.068409   173A      2.100525  
     174A      2.106733   175A      2.122586   176A      2.123838  
     177A      2.139005   178A      2.150741   179A      2.168375  
     180A      2.176747   181A      2.218849   182A      2.222507  
     183A      2.231502   184A      2.252426   185A      2.271797  
     186A      2.272896   187A      2.295238   188A      2.308759  
     189A      2.327652   190A      2.330083   191A      2.358661  
     192A      2.376255   193A      2.399073   194A      2.428364  
     195A      2.450201   196A      2.482957   197A      2.488788  
     198A      2.496771   199A      2.504719   200A      2.520164  
     201A      2.544473   202A      2.555580   203A      2.579805  
     204A      2.588407   205A      2.605771   206A      2.626741  
     207A      2.645393   208A      2.671120   209A      2.694655  
     210A      2.730570   211A      2.746945   212A      2.769599  
     213A      2.802662   214A      2.815444   215A      2.833157  
     216A      2.838593   217A      2.845299   218A      2.854963  
     219A      2.893529   220A      2.911737   221A      2.951985  
     222A      2.993024   223A      3.004765   224A      3.026962  
     225A      3.043298   226A      3.047984   227A      3.063462  
     228A      3.084205   229A      3.091464   230A      3.111479  
     231A      3.145965   232A      3.162371   233A      3.192698  
     234A      3.213753   235A      3.242935   236A      3.273652  
     237A      3.289840   238A      3.297446   239A      3.325878  
     240A      3.343966   241A      3.361317   242A      3.390687  
     243A      3.397664   244A      3.429511   245A      3.439837  
     246A      3.465017   247A      3.490088   248A      3.497493  
     249A      3.513917   250A      3.565431   251A      3.605977  
     252A      3.657866   253A      3.660162   254A      3.696390  
     255A      3.735343   256A      3.755612   257A      3.770244  
     258A      3.818269   259A      3.837959   260A      3.850841  
     261A      3.858791   262A      3.889914   263A      3.930299  
     264A      3.943869   265A      3.996787   266A      4.028464  
     267A      4.087367   268A      4.108956   269A      4.118819  
     270A      4.156860   271A      4.189811   272A      4.201405  
     273A      4.215671   274A      4.236907   275A      4.251195  
     276A      4.261887   277A      4.291735   278A      4.303868  
     279A      4.384290   280A      4.416236   281A      4.448616  
     282A      4.454486   283A      4.468067   284A      4.563864  
     285A      4.631096   286A      4.672956   287A      4.723506  
     288A      4.790854   289A      4.802843   290A      4.856796  
     291A      4.871147   292A      4.898320   293A      4.907099  
     294A      4.934574   295A      4.969005   296A      4.995139  
     297A      5.033900   298A      5.064549   299A      5.129835  
     300A      5.146878   301A      5.212812   302A      5.261543  
     303A      5.384023   304A      5.420852   305A      5.460004  
     306A      5.483340   307A      5.495781   308A      5.552943  
     309A      5.586247   310A      5.602755   311A      5.638050  
     312A      5.678128   313A      5.706421   314A      5.815101  
     315A      5.846178   316A      5.861325   317A      5.938271  
     318A      5.977518   319A      6.003655   320A      6.103548  
     321A      6.169822   322A      6.345490   323A      6.359405  
     324A      6.392732   325A      6.410395   326A      6.451951  
     327A      6.504821   328A      6.524054   329A      6.735148  
     330A      6.764094   331A      6.814168   332A      6.831377  
     333A      6.891096   334A      6.921659   335A      6.945184  
     336A      6.968595   337A      7.013197   338A      7.025647  
     339A      7.054059   340A      7.068382   341A      7.135774  
     342A      7.190279   343A      7.255910   344A      7.263367  
     345A      7.304369   346A      7.365418   347A      7.379386  
     348A      7.419582   349A      7.641178   350A      7.662421  
     351A      7.678110   352A      7.682688   353A      7.740614  
     354A      7.755921   355A      7.776284   356A      7.844691  
     357A      7.860497   358A      7.867177   359A      7.881242  
     360A      7.891682   361A      7.910337   362A      7.928533  
     363A      7.934429   364A      7.954682   365A      8.004550  
     366A      8.016074   367A      8.051917   368A      8.084104  
     369A      8.134218   370A      8.155244   371A      8.193866  
     372A      8.249304   373A      8.327915   374A      8.338028  
     375A      8.393790   376A      8.441865   377A      8.545950  
     378A      8.557794   379A      8.587025   380A      8.677813  
     381A      8.719862   382A      8.769120   383A      8.828096  
     384A      8.846356   385A      8.871564   386A      8.892600  
     387A      8.902268   388A      8.917173   389A      8.940986  
     390A      8.969250   391A      9.060025   392A      9.119707  
     393A      9.203516   394A      9.230937   395A      9.328382  
     396A      9.359457   397A      9.408500   398A      9.528515  
     399A      9.541794   400A      9.584013   401A      9.607483  
     402A      9.704920   403A      9.710103   404A      9.784411  
     405A      9.802561   406A      9.848403   407A      9.849736  
     408A      9.895757   409A      9.914775   410A     10.040462  
     411A     10.048586   412A     10.077675   413A     10.086884  
     414A     10.110978   415A     10.312893   416A     10.335058  
     417A     10.487094   418A     10.508747   419A     10.526033  
     420A     10.617343   421A     10.653684   422A     10.747408  
     423A     10.761856   424A     10.775548   425A     10.793801  
     426A     10.831685   427A     10.919740   428A     11.048451  
     429A     11.073109   430A     11.190103   431A     11.196609  
     432A     11.222452   433A     11.337800   434A     11.362978  
     435A     11.392464   436A     11.427020   437A     11.492515  
     438A     11.756938   439A     11.877068   440A     11.925711  
     441A     12.029391   442A     12.057693   443A     12.118043  
     444A     12.198803   445A     12.229758   446A     12.322257  
     447A     12.346558   448A     12.614789   449A     12.773539  
     450A     12.906458   451A     12.949192   452A     13.123064  
     453A     13.221460   454A     13.250513   455A     13.589615  
     456A     14.012363   457A     14.130302   458A     14.499525  
     459A     14.819542   460A     14.855574   461A     14.896794  
     462A     15.329826   463A     16.496640   464A     17.038997  
     465A     17.296780   466A     17.322914   467A     17.399540  
     468A     31.097294   469A     31.142025   470A     31.343768  
     471A     43.388559   472A     45.686473   473A     71.654855  
     474A    160.421933  

    Final Occupation by Irrep:
              A 
    DOCC [     5 ]

  @DF-RHF Final Energy:   -76.06584064245131

   => Energetics <=

    Nuclear Repulsion Energy =              9.1787424144797676
    One-Electron Energy =                -123.0402298212111134
    Two-Electron Energy =                  37.7956467642800291
    Total Energy =                        -76.0658406424513203

Computation Completed


Properties will be evaluated at   0.000000,  -0.000000,  -0.000000 [a0]

Properties computed using the SCF density matrix

  Nuclear Dipole Moment: [e a0]
     X:    37.9028      Y:    20.1332      Z:    15.4739

  Electronic Dipole Moment: [e a0]
     X:   -37.6460      Y:   -20.1091      Z:   -16.1841

  Dipole Moment: [e a0]
     X:     0.2568      Y:     0.0242      Z:    -0.7102     Total:     0.7556

  Dipole Moment: [D]
     X:     0.6526      Y:     0.0615      Z:    -1.8052     Total:     1.9206


*** tstop() called on node37.bme.utexas.edu at Tue Feb 22 18:02:17 2022
Module time:
	user time   =      70.60 seconds =       1.18 minutes
	system time =       3.83 seconds =       0.06 minutes
	total time  =         25 seconds =       0.42 minutes
Total time:
	user time   =     120.58 seconds =       2.01 minutes
	system time =       7.09 seconds =       0.12 minutes
	total time  =         47 seconds =       0.78 minutes

*** tstart() called on node37.bme.utexas.edu
*** at Tue Feb 22 18:02:17 2022


  //>>>>>>>>>>>>>>>>>>>>>>>>>>>>>>>>>>>//
  //               DFMP2               //
  //<<<<<<<<<<<<<<<<<<<<<<<<<<<<<<<<<<<//

   => Loading Basis Set <=

    Name: (AUG-CC-PVQZ AUX)
    Role: RIFIT
    Keyword: DF_BASIS_MP2
    atoms 1        entry CL         line   914 file /home/bdw2292/miniconda3/envs/amoebamdpoltype/share/psi4/basis/aug-cc-pvqz-ri.gbs 
    atoms 2        entry C          line   184 file /home/bdw2292/miniconda3/envs/amoebamdpoltype/share/psi4/basis/aug-cc-pvqz-ri.gbs 
    atoms 3-5, 7-8 entry H          line    30 file /home/bdw2292/miniconda3/envs/amoebamdpoltype/share/psi4/basis/aug-cc-pvqz-ri.gbs 
    atoms 6        entry O          line   332 file /home/bdw2292/miniconda3/envs/amoebamdpoltype/share/psi4/basis/aug-cc-pvqz-ri.gbs 

	 --------------------------------------------------------
	                          DF-MP2                         
	      2nd-Order Density-Fitted Moller-Plesset Theory     
	              RMP2 Wavefunction,   4 Threads             
	                                                         
	        Rob Parrish, Justin Turney, Andy Simmonett,      
	           Ed Hohenstein, and C. David Sherrill          
	 --------------------------------------------------------

   => Auxiliary Basis Set <=

  Basis Set: (AUG-CC-PVQZ AUX)
    Blend: AUG-CC-PVQZ-RI
    Number of shells: 216
    Number of basis function: 930
    Number of Cartesian functions: 1267
    Spherical Harmonics?: true
    Max angular momentum: 5

	 --------------------------------------------------------
	                 NBF =   474, NAUX =   930
	 --------------------------------------------------------
	   CLASS    FOCC     OCC    AOCC    AVIR     VIR    FVIR
	   PAIRS       1       5       4     469     469       0
	 --------------------------------------------------------

	-----------------------------------------------------------
	 ==================> DF-MP2 Energies <==================== 
	-----------------------------------------------------------
	 Reference Energy          =     -76.0658406424513061 [Eh]
	 Singles Energy            =      -0.0000000000000000 [Eh]
	 Same-Spin Energy          =      -0.0671815964537431 [Eh]
	 Opposite-Spin Energy      =      -0.2186406792011823 [Eh]
	 Correlation Energy        =      -0.2858222756549254 [Eh]
	 Total Energy              =     -76.3516629181062285 [Eh]
	-----------------------------------------------------------
	 ================> DF-SCS-MP2 Energies <================== 
	-----------------------------------------------------------
	 SCS Same-Spin Scale       =       0.3333333333333333 [-]
	 SCS Opposite-Spin Scale   =       1.2000000000000000 [-]
	 SCS Same-Spin Energy      =      -0.0223938654845810 [Eh]
	 SCS Opposite-Spin Energy  =      -0.2623688150414187 [Eh]
	 SCS Correlation Energy    =      -0.2847626805259998 [Eh]
	 SCS Total Energy          =     -76.3506033229773067 [Eh]
	-----------------------------------------------------------


*** tstop() called on node37.bme.utexas.edu at Tue Feb 22 18:02:29 2022
Module time:
	user time   =      28.38 seconds =       0.47 minutes
	system time =       2.25 seconds =       0.04 minutes
	total time  =         12 seconds =       0.20 minutes
Total time:
	user time   =     148.96 seconds =       2.48 minutes
	system time =       9.34 seconds =       0.16 minutes
	total time  =         59 seconds =       0.98 minutes

  //>>>>>>>>>>>>>>>>>>>>>>>>>>>>>>>>>>>//
  //  CBS Results: mp2/aug-cc-pV[TQ]Z  //
  //<<<<<<<<<<<<<<<<<<<<<<<<<<<<<<<<<<<//


   ==> HF <==

   HI-zeta (4) Energy:               -76.065840642451


   ==> Helgaker 2-point correlated extrapolation for method: MP2 <==

   LO-zeta (3) Energy:               -76.328808081053
   HI-zeta (4) Energy:               -76.351662918106
   Alpha (exponent) Value:             3.000000000000
   Extrapolated Energy:              -76.368340772172

   @Extrapolated MP2/(T,Q):          -76.368340772172



   ==> Helgaker 2-point correlated extrapolation for method: HF <==

   LO-zeta (3) Energy:               -76.060479537293
   HI-zeta (4) Energy:               -76.065840642451
   Alpha (exponent) Value:             3.000000000000
   Extrapolated Energy:              -76.069752800269

   @Extrapolated HF/(T,Q):           -76.069752800269


   ==> Components <==

  ---------------------------------------------------------------------------------------------------------
                          Method / Basis                      Rqd      Energy [Eh]   Variable
  ---------------------------------------------------------------------------------------------------------
                              hf / aug-cc-pvtz                  *     -76.06047954   HF TOTAL ENERGY
                             mp2 / aug-cc-pvtz                  *     -76.32880808   MP2 TOTAL ENERGY
                              hf / aug-cc-pvqz                  *     -76.06584064   HF TOTAL ENERGY
                             mp2 / aug-cc-pvqz                  *     -76.35166292   MP2 TOTAL ENERGY
  ---------------------------------------------------------------------------------------------------------

   ==> Stages <==

  ---------------------------------------------------------------------------------------------------------
      Stage               Method / Basis                       Wt      Energy [Eh]   Scheme
  ---------------------------------------------------------------------------------------------------------
        scf                   hf / aug-cc-pvqz                  1     -76.06584064   xtpl_highest_1
       corl                  mp2 / aug-cc-pv[tq]z               1     -76.36834077   corl_xtpl_helgaker_2
       corl                   hf / aug-cc-pv[tq]z              -1     -76.06975280   corl_xtpl_helgaker_2
  ---------------------------------------------------------------------------------------------------------

   ==> CBS <==

  ---------------------------------------------------------------------------------------------------------
      Stage               Method / Basis                               Energy [Eh]   Scheme
  ---------------------------------------------------------------------------------------------------------
        scf                   hf / aug-cc-pvqz                        -76.06584064   xtpl_highest_1
       corl                  mp2 / aug-cc-pv[tq]z                      -0.29858797   corl_xtpl_helgaker_2
      total                  CBS                                      -76.36442861   
  ---------------------------------------------------------------------------------------------------------
   => Loading Basis Set <=

    Name: DEF2-SVP
    Role: ORBITAL
    Keyword: BASIS
    atoms 1        entry CL         line   356 file /home/bdw2292/miniconda3/envs/amoebamdpoltype/share/psi4/basis/def2-svp.gbs 
    atoms 2        entry C          line    90 file /home/bdw2292/miniconda3/envs/amoebamdpoltype/share/psi4/basis/def2-svp.gbs 
    atoms 3-5, 7-8 entry H          line    15 file /home/bdw2292/miniconda3/envs/amoebamdpoltype/share/psi4/basis/def2-svp.gbs 
    atoms 6        entry O          line   130 file /home/bdw2292/miniconda3/envs/amoebamdpoltype/share/psi4/basis/def2-svp.gbs 


       N-Body: Complex Energy (fragments = (2,), basis = (1, 2):   -76.36442861435434)

       N-Body: Computing complex (3/4) with fragments (1,) in the basis of fragments (1, 2).


  //>>>>>>>>>>>>>>>>>>>>>>>>>>>>>>>>>>>//
  //   CBS Setup: mp2/aug-cc-pV[TQ]Z   //
  //<<<<<<<<<<<<<<<<<<<<<<<<<<<<<<<<<<<//

    Naive listing of computations required.
             hf / aug-cc-pvqz              for  HF TOTAL ENERGY
            mp2 / aug-cc-pvtz              for  MP2 TOTAL ENERGY
            mp2 / aug-cc-pvqz              for  MP2 TOTAL ENERGY
             hf / aug-cc-pvtz              for  HF TOTAL ENERGY
             hf / aug-cc-pvqz              for  HF TOTAL ENERGY

    Enlightened listing of computations required.
            mp2 / aug-cc-pvtz              for  MP2 TOTAL ENERGY
            mp2 / aug-cc-pvqz              for  MP2 TOTAL ENERGY

    Full listing of computations to be obtained (required and bonus).
             hf / aug-cc-pvtz              for  HF TOTAL ENERGY
            mp2 / aug-cc-pvtz              for  MP2 TOTAL ENERGY
             hf / aug-cc-pvqz              for  HF TOTAL ENERGY
            mp2 / aug-cc-pvqz              for  MP2 TOTAL ENERGY

  //>>>>>>>>>>>>>>>>>>>>>>>>>>>>>>>>>>>>//
  // CBS Computation: MP2 / AUG-CC-PVTZ //
  //<<<<<<<<<<<<<<<<<<<<<<<<<<<<<<<<<<<<//

    SCF Algorithm Type (re)set to DF.

*** tstart() called on node37.bme.utexas.edu
*** at Tue Feb 22 18:02:31 2022

   => Loading Basis Set <=

    Name: AUG-CC-PVTZ
    Role: ORBITAL
    Keyword: BASIS
    atoms 1        entry CL         line   984 file /home/bdw2292/miniconda3/envs/amoebamdpoltype/share/psi4/basis/aug-cc-pvtz.gbs 
    atoms 2        entry C          line   235 file /home/bdw2292/miniconda3/envs/amoebamdpoltype/share/psi4/basis/aug-cc-pvtz.gbs 
    atoms 3-5, 7-8 entry H          line    36 file /home/bdw2292/miniconda3/envs/amoebamdpoltype/share/psi4/basis/aug-cc-pvtz.gbs 
    atoms 6        entry O          line   327 file /home/bdw2292/miniconda3/envs/amoebamdpoltype/share/psi4/basis/aug-cc-pvtz.gbs 


         ---------------------------------------------------------
                                   SCF
               by Justin Turney, Rob Parrish, Andy Simmonett
                          and Daniel G. A. Smith
                              RHF Reference
                        4 Threads,  14305 MiB Core
         ---------------------------------------------------------

  ==> Geometry <==

    Molecular point group: c1
    Full point group: C1

    Geometry (in Angstrom), charge = 0, multiplicity = 1:

       Center              X                  Y                   Z               Mass       
    ------------   -----------------  -----------------  -----------------  -----------------
         CL          -0.467805519911    -0.622449213861    -0.749072538469    34.968852682000
         C           -1.264340119911     0.142447786139     0.649827261531    12.000000000000
         H           -2.302575619911    -0.185859813861     0.698112561531     1.007825032230
         H           -0.736171619911    -0.149480913861     1.558157761531     1.007825032230
         H           -1.218639319911     1.225143586139     0.531677061531     1.007825032230
      Gh(O)           1.967541080089     1.061830186139     0.924575661531    15.994914619570
      Gh(H)           1.684491880089     0.496804186139     0.203197461531     1.007825032230
[...]
      28A      0.118492    29A      0.122088    30A      0.132005  
      31A      0.145184    32A      0.154315    33A      0.163084  
      34A      0.172070    35A      0.177150    36A      0.205243  
      37A      0.216052    38A      0.221995    39A      0.235165  
      40A      0.240853    41A      0.242157    42A      0.249261  
      43A      0.260026    44A      0.272469    45A      0.279181  
      46A      0.283660    47A      0.288087    48A      0.300557  
      49A      0.314267    50A      0.327682    51A      0.329045  
      52A      0.336457    53A      0.346040    54A      0.353158  
      55A      0.361926    56A      0.369531    57A      0.370665  
      58A      0.377155    59A      0.383865    60A      0.387504  
      61A      0.402153    62A      0.408913    63A      0.417923  
      64A      0.426155    65A      0.467790    66A      0.472862  
      67A      0.518351    68A      0.523685    69A      0.533156  
      70A      0.548057    71A      0.555063    72A      0.572784  
      73A      0.576207    74A      0.579478    75A      0.594770  
      76A      0.609608    77A      0.619103    78A      0.621688  
      79A      0.631974    80A      0.649233    81A      0.658492  
      82A      0.673056    83A      0.677595    84A      0.686080  
      85A      0.695289    86A      0.700551    87A      0.705402  
      88A      0.710100    89A      0.732404    90A      0.739821  
      91A      0.747282    92A      0.759482    93A      0.767939  
      94A      0.772835    95A      0.779215    96A      0.788069  
      97A      0.792157    98A      0.802239    99A      0.822747  
     100A      0.828618   101A      0.834134   102A      0.839246  
     103A      0.859206   104A      0.871227   105A      0.886450  
     106A      0.902115   107A      0.912495   108A      0.934036  
     109A      0.941483   110A      0.948709   111A      0.961426  
     112A      0.984721   113A      1.003493   114A      1.013648  
     115A      1.037284   116A      1.055085   117A      1.061979  
     118A      1.085024   119A      1.100066   120A      1.105383  
     121A      1.135595   122A      1.148416   123A      1.154142  
     124A      1.167537   125A      1.182736   126A      1.192157  
     127A      1.199187   128A      1.203633   129A      1.209964  
     130A      1.232711   131A      1.248625   132A      1.250801  
     133A      1.261947   134A      1.277278   135A      1.297193  
     136A      1.310310   137A      1.318943   138A      1.321722  
     139A      1.375880   140A      1.403755   141A      1.440650  
     142A      1.451681   143A      1.467745   144A      1.480802  
     145A      1.490206   146A      1.505932   147A      1.549702  
     148A      1.552743   149A      1.576798   150A      1.589752  
     151A      1.611507   152A      1.619304   153A      1.642411  
     154A      1.646159   155A      1.656744   156A      1.681742  
     157A      1.697998   158A      1.709787   159A      1.725910  
     160A      1.745024   161A      1.745669   162A      1.755101  
     163A      1.762629   164A      1.781548   165A      1.790156  
     166A      1.802404   167A      1.819514   168A      1.833850  
     169A      1.836082   170A      1.846198   171A      1.856313  
     172A      1.867653   173A      1.878240   174A      1.898394  
     175A      1.908920   176A      1.913426   177A      1.927600  
     178A      1.943058   179A      1.952477   180A      1.974422  
     181A      1.977799   182A      1.987861   183A      1.996351  
     184A      2.013804   185A      2.021490   186A      2.025520  
     187A      2.039148   188A      2.058112   189A      2.070524  
     190A      2.085467   191A      2.100066   192A      2.117946  
     193A      2.121893   194A      2.139735   195A      2.168816  
     196A      2.174617   197A      2.185831   198A      2.197040  
     199A      2.205818   200A      2.208119   201A      2.227051  
     202A      2.245910   203A      2.255532   204A      2.265249  
     205A      2.269583   206A      2.273110   207A      2.293482  
     208A      2.311376   209A      2.330486   210A      2.344352  
     211A      2.356753   212A      2.358241   213A      2.388611  
     214A      2.393548   215A      2.406340   216A      2.431215  
     217A      2.436356   218A      2.443459   219A      2.463699  
     220A      2.490038   221A      2.521877   222A      2.528453  
     223A      2.577070   224A      2.586318   225A      2.620878  
     226A      2.653610   227A      2.672916   228A      2.688954  
     229A      2.703337   230A      2.712921   231A      2.745716  
     232A      2.776174   233A      2.783728   234A      2.808576  
     235A      2.838046   236A      2.863217   237A      2.877417  
     238A      2.896676   239A      2.927175   240A      2.948543  
     241A      2.972922   242A      2.982016   243A      3.018808  
     244A      3.051732   245A      3.065123   246A      3.090993  
     247A      3.102970   248A      3.111676   249A      3.117455  
     250A      3.138755   251A      3.159268   252A      3.206426  
     253A      3.216717   254A      3.260661   255A      3.293515  
     256A      3.361174   257A      3.366914   258A      3.381852  
     259A      3.406024   260A      3.440956   261A      3.503589  
     262A      3.568073   263A      3.587000   264A      3.631664  
     265A      3.641362   266A      3.650856   267A      3.707525  
     268A      3.740147   269A      3.754425   270A      3.818853  
     271A      3.827223   272A      3.831645   273A      3.838197  
     274A      3.864937   275A      3.878369   276A      3.883111  
     277A      3.895944   278A      3.903189   279A      4.017594  
     280A      4.067297   281A      4.093513   282A      4.121082  
     283A      4.129829   284A      4.153899   285A      4.182277  
     286A      4.198107   287A      4.212511   288A      4.230587  
     289A      4.235355   290A      4.249845   291A      4.287573  
     292A      4.302153   293A      4.321582   294A      4.377363  
     295A      4.434014   296A      4.455429   297A      4.471434  
     298A      4.518657   299A      4.548907   300A      4.563634  
     301A      4.639916   302A      4.679525   303A      4.693716  
     304A      4.698681   305A      4.702561   306A      4.763856  
     307A      4.776294   308A      4.809115   309A      4.819261  
     310A      4.827075   311A      4.843676   312A      4.861589  
     313A      4.883486   314A      4.892814   315A      4.903054  
     316A      4.918091   317A      4.941284   318A      4.946438  
     319A      4.978493   320A      5.008220   321A      5.054557  
     322A      5.063224   323A      5.077220   324A      5.113050  
     325A      5.150409   326A      5.178384   327A      5.202476  
     328A      5.227053   329A      5.358530   330A      5.375259  
     331A      5.421228   332A      5.450437   333A      5.466863  
     334A      5.567235   335A      5.601637   336A      5.685836  
     337A      5.951727   338A      6.045047   339A      6.123510  
     340A      6.146415   341A      6.160722   342A      6.241675  
     343A      6.286108   344A      6.384733   345A      6.393646  
     346A      6.420314   347A      6.539909   348A      6.615192  
     349A      6.666467   350A      6.716510   351A      6.746015  
     352A      6.766621   353A      6.814132   354A      6.842654  
     355A      6.887302   356A      6.926432   357A      6.942366  
     358A      6.952624   359A      6.961527   360A      6.967492  
     361A      6.992053   362A      7.022004   363A      7.038227  
     364A      7.056875   365A      7.128860   366A      7.142049  
     367A      7.164581   368A      7.340541   369A      7.342113  
     370A      7.377185   371A      7.522859   372A      7.597860  
     373A      7.621966   374A      7.682357   375A      7.708140  
     376A      7.712880   377A      7.763153   378A      7.794768  
     379A      7.862415   380A      7.877342   381A      7.882985  
     382A      7.893088   383A      7.918765   384A      7.929765  
     385A      7.952238   386A      7.983238   387A      8.066618  
     388A      8.083236   389A      8.231640   390A      8.301693  
     391A      8.328105   392A      8.406882   393A      8.417162  
     394A      8.441040   395A      8.470636   396A      8.537729  
     397A      8.628886   398A      8.637279   399A      8.683450  
     400A      8.709320   401A      8.774434   402A      8.842285  
     403A      8.881029   404A      8.884942   405A      8.938517  
     406A      8.941898   407A      8.957427   408A      9.026933  
     409A      9.054398   410A      9.125184   411A      9.178137  
     412A      9.206516   413A      9.223272   414A      9.246055  
     415A      9.285270   416A      9.444376   417A      9.469367  
     418A      9.587274   419A      9.594980   420A      9.597189  
     421A      9.617739   422A      9.700491   423A      9.713887  
     424A      9.920306   425A      9.964453   426A     10.011958  
     427A     10.052066   428A     10.071304   429A     10.112120  
     430A     10.148774   431A     10.192695   432A     10.354145  
     433A     10.358583   434A     10.399751   435A     10.494211  
     436A     10.533749   437A     10.801761   438A     10.819129  
     439A     10.845827   440A     10.882976   441A     10.977292  
     442A     11.011728   443A     11.060416   444A     11.081188  
     445A     11.218628   446A     11.367908   447A     11.397792  
     448A     11.453706   449A     11.497091   450A     11.761738  
     451A     11.880962   452A     11.932413   453A     12.060301  
     454A     12.233858   455A     12.331877   456A     12.619207  
     457A     12.779119   458A     12.910229   459A     12.952852  
     460A     13.148470   461A     13.196641   462A     13.252244  
     463A     13.359974   464A     14.018735   465A     14.137826  
     466A     14.505647   467A     14.860142   468A     14.903829  
     469A     15.336609   470A     17.045268   471A     17.381887  
     472A     26.659776   473A     28.698076   474A     45.692729  

    Final Occupation by Irrep:
              A 
    DOCC [    18 ]

  @DF-RHF Final Energy:  -575.22306510225451

   => Energetics <=

    Nuclear Repulsion Energy =            101.1598424587804175
    One-Electron Energy =                -994.4382971107461344
    Two-Electron Energy =                 318.0553895497112080
    Total Energy =                       -575.2230651022545089

Computation Completed


Properties will be evaluated at   0.000000,  -0.000000,  -0.000000 [a0]

Properties computed using the SCF density matrix

  Nuclear Dipole Moment: [e a0]
     X:     0.4936      Y:     3.4335      Z:     4.0461

  Electronic Dipole Moment: [e a0]
     X:    -0.6913      Y:    -3.0578      Z:    -4.0735

  Dipole Moment: [e a0]
     X:    -0.1978      Y:     0.3757      Z:    -0.0274     Total:     0.4254

  Dipole Moment: [D]
     X:    -0.5027      Y:     0.9549      Z:    -0.0697     Total:     1.0814


*** tstop() called on node37.bme.utexas.edu at Tue Feb 22 18:04:31 2022
Module time:
	user time   =      88.43 seconds =       1.47 minutes
	system time =       4.89 seconds =       0.08 minutes
	total time  =         34 seconds =       0.57 minutes
Total time:
	user time   =     458.31 seconds =       7.64 minutes
	system time =      26.43 seconds =       0.44 minutes
	total time  =        181 seconds =       3.02 minutes

*** tstart() called on node37.bme.utexas.edu
*** at Tue Feb 22 18:04:31 2022


  //>>>>>>>>>>>>>>>>>>>>>>>>>>>>>>>>>>>//
  //               DFMP2               //
  //<<<<<<<<<<<<<<<<<<<<<<<<<<<<<<<<<<<//

   => Loading Basis Set <=

    Name: (AUG-CC-PVQZ AUX)
    Role: RIFIT
    Keyword: DF_BASIS_MP2
    atoms 1        entry CL         line   914 file /home/bdw2292/miniconda3/envs/amoebamdpoltype/share/psi4/basis/aug-cc-pvqz-ri.gbs 
    atoms 2        entry C          line   184 file /home/bdw2292/miniconda3/envs/amoebamdpoltype/share/psi4/basis/aug-cc-pvqz-ri.gbs 
    atoms 3-5, 7-8 entry H          line    30 file /home/bdw2292/miniconda3/envs/amoebamdpoltype/share/psi4/basis/aug-cc-pvqz-ri.gbs 
    atoms 6        entry O          line   332 file /home/bdw2292/miniconda3/envs/amoebamdpoltype/share/psi4/basis/aug-cc-pvqz-ri.gbs 

	 --------------------------------------------------------
	                          DF-MP2                         
	      2nd-Order Density-Fitted Moller-Plesset Theory     
	              RMP2 Wavefunction,   4 Threads             
	                                                         
	        Rob Parrish, Justin Turney, Andy Simmonett,      
	           Ed Hohenstein, and C. David Sherrill          
	 --------------------------------------------------------

   => Auxiliary Basis Set <=

  Basis Set: (AUG-CC-PVQZ AUX)
    Blend: AUG-CC-PVQZ-RI
    Number of shells: 216
    Number of basis function: 930
    Number of Cartesian functions: 1267
    Spherical Harmonics?: true
    Max angular momentum: 5

	 --------------------------------------------------------
	                 NBF =   474, NAUX =   930
	 --------------------------------------------------------
	   CLASS    FOCC     OCC    AOCC    AVIR     VIR    FVIR
	   PAIRS       7      18      11     456     456       0
	 --------------------------------------------------------

	-----------------------------------------------------------
	 ==================> DF-MP2 Energies <==================== 
	-----------------------------------------------------------
	 Reference Energy          =    -575.2230651022545089 [Eh]
	 Singles Energy            =      -0.0000000000000000 [Eh]
	 Same-Spin Energy          =      -0.1568669419102444 [Eh]
	 Opposite-Spin Energy      =      -0.5390152763013673 [Eh]
	 Correlation Energy        =      -0.6958822182116117 [Eh]
	 Total Energy              =    -575.9189473204661454 [Eh]
	-----------------------------------------------------------
	 ================> DF-SCS-MP2 Energies <================== 
	-----------------------------------------------------------
	 SCS Same-Spin Scale       =       0.3333333333333333 [-]
	 SCS Opposite-Spin Scale   =       1.2000000000000000 [-]
	 SCS Same-Spin Energy      =      -0.0522889806367481 [Eh]
	 SCS Opposite-Spin Energy  =      -0.6468183315616407 [Eh]
	 SCS Correlation Energy    =      -0.6991073121983888 [Eh]
	 SCS Total Energy          =    -575.9221724144529162 [Eh]
	-----------------------------------------------------------


*** tstop() called on node37.bme.utexas.edu at Tue Feb 22 18:04:43 2022
Module time:
	user time   =      30.40 seconds =       0.51 minutes
	system time =       2.04 seconds =       0.03 minutes
	total time  =         12 seconds =       0.20 minutes
Total time:
	user time   =     488.71 seconds =       8.15 minutes
	system time =      28.47 seconds =       0.47 minutes
	total time  =        193 seconds =       3.22 minutes

  //>>>>>>>>>>>>>>>>>>>>>>>>>>>>>>>>>>>//
  //  CBS Results: mp2/aug-cc-pV[TQ]Z  //
  //<<<<<<<<<<<<<<<<<<<<<<<<<<<<<<<<<<<//


   ==> HF <==

   HI-zeta (4) Energy:               -575.223065102255


   ==> Helgaker 2-point correlated extrapolation for method: MP2 <==

   LO-zeta (3) Energy:               -575.863359098490
   HI-zeta (4) Energy:               -575.918947320466
   Alpha (exponent) Value:             3.000000000000
   Extrapolated Energy:              -575.959511698665

   @Extrapolated MP2/(T,Q):          -575.959511698665



   ==> Helgaker 2-point correlated extrapolation for method: HF <==

   LO-zeta (3) Energy:               -575.211660850888
   HI-zeta (4) Energy:               -575.223065102255
   Alpha (exponent) Value:             3.000000000000
   Extrapolated Energy:              -575.231387123522

   @Extrapolated HF/(T,Q):           -575.231387123522


   ==> Components <==

  ---------------------------------------------------------------------------------------------------------
                          Method / Basis                      Rqd      Energy [Eh]   Variable
  ---------------------------------------------------------------------------------------------------------
                              hf / aug-cc-pvtz                  *    -575.21166085   HF TOTAL ENERGY
                             mp2 / aug-cc-pvtz                  *    -575.86335910   MP2 TOTAL ENERGY
                              hf / aug-cc-pvqz                  *    -575.22306510   HF TOTAL ENERGY
                             mp2 / aug-cc-pvqz                  *    -575.91894732   MP2 TOTAL ENERGY
  ---------------------------------------------------------------------------------------------------------

   ==> Stages <==

  ---------------------------------------------------------------------------------------------------------
      Stage               Method / Basis                       Wt      Energy [Eh]   Scheme
  ---------------------------------------------------------------------------------------------------------
        scf                   hf / aug-cc-pvqz                  1    -575.22306510   xtpl_highest_1
       corl                  mp2 / aug-cc-pv[tq]z               1    -575.95951170   corl_xtpl_helgaker_2
       corl                   hf / aug-cc-pv[tq]z              -1    -575.23138712   corl_xtpl_helgaker_2
  ---------------------------------------------------------------------------------------------------------

   ==> CBS <==

  ---------------------------------------------------------------------------------------------------------
      Stage               Method / Basis                               Energy [Eh]   Scheme
  ---------------------------------------------------------------------------------------------------------
        scf                   hf / aug-cc-pvqz                       -575.22306510   xtpl_highest_1
       corl                  mp2 / aug-cc-pv[tq]z                      -0.72812458   corl_xtpl_helgaker_2
      total                  CBS                                     -575.95118968   
  ---------------------------------------------------------------------------------------------------------
   => Loading Basis Set <=

    Name: DEF2-SVP
    Role: ORBITAL
    Keyword: BASIS
    atoms 1        entry CL         line   356 file /home/bdw2292/miniconda3/envs/amoebamdpoltype/share/psi4/basis/def2-svp.gbs 
    atoms 2        entry C          line    90 file /home/bdw2292/miniconda3/envs/amoebamdpoltype/share/psi4/basis/def2-svp.gbs 
    atoms 3-5, 7-8 entry H          line    15 file /home/bdw2292/miniconda3/envs/amoebamdpoltype/share/psi4/basis/def2-svp.gbs 
    atoms 6        entry O          line   130 file /home/bdw2292/miniconda3/envs/amoebamdpoltype/share/psi4/basis/def2-svp.gbs 


       N-Body: Complex Energy (fragments = (1, 2), basis = (1, 2):  -575.95118967739722)

   ==> N-Body: Counterpoise Corrected (CP) energies <==

   n-Body     Total Energy [Eh]       I.E. [kcal/mol]      Delta [kcal/mol]
        1     -575.945684151542        0.000000000000        0.000000000000
        2     -575.951079974172       -3.385929819589       -3.385929819589

   => Loading Basis Set <=

    Name: DEF2-SVP
    Role: ORBITAL
    Keyword: BASIS
    atoms 1        entry CL         line   356 file /home/bdw2292/miniconda3/envs/amoebamdpoltype/share/psi4/basis/def2-svp.gbs 
    atoms 2        entry C          line    90 file /home/bdw2292/miniconda3/envs/amoebamdpoltype/share/psi4/basis/def2-svp.gbs 
    atoms 3-5, 7-8 entry H          line    15 file /home/bdw2292/miniconda3/envs/amoebamdpoltype/share/psi4/basis/def2-svp.gbs 
    atoms 6        entry O          line   130 file /home/bdw2292/miniconda3/envs/amoebamdpoltype/share/psi4/basis/def2-svp.gbs 

CP Energy =  -0.005396
    Psi4 stopped on: Tuesday, 22 February 2022 06:04PM
    Psi4 wall time for execution: 0:03:14.70

*** Psi4 exiting successfully. Buy a developer a beer!
