
    -----------------------------------------------------------------------
          Psi4: An Open-Source Ab Initio Electronic Structure Package
                               Psi4 1.3.2 release

                         Git: Rev {HEAD} ecbda83 


    R. M. Parrish, L. A. Burns, D. G. A. Smith, A. C. Simmonett,
    A. E. DePrince III, E. G. Hohenstein, U. Bozkaya, A. Yu. Sokolov,
    R. Di Remigio, R. M. Richard, J. F. Gonthier, A. M. James,
    H. R. McAlexander, A. Kumar, M. Saitow, X. Wang, B. P. Pritchard,
    P. Verma, H. F. Schaefer III, K. Patkowski, R. A. King, E. F. Valeev,
    F. A. Evangelista, J. M. Turney, T. D. Crawford, and C. D. Sherrill,
    J. Chem. Theory Comput. 13(7) pp 3185--3197 (2017).
    (doi: 10.1021/acs.jctc.7b00174)


                         Additional Contributions by
    P. Kraus, H. Kruse, M. H. Lechner, M. C. Schieber, R. A. Shaw,
    A. Alenaizan, R. Galvelis, Z. L. Glick, S. Lehtola, and J. P. Misiewicz

    -----------------------------------------------------------------------


    Psi4 started on: Tuesday, 22 February 2022 05:54PM

    Process ID: 26958
    Host:       node37.bme.utexas.edu
    PSIDATADIR: /home/bdw2292/miniconda3/envs/amoebamdpoltype/share/psi4
    Memory:     500.0 MiB
    Threads:    1
    
  ==> Input File <==

--------------------------------------------------------------------------
molecule { 
0 1
 Cl                  0.2237841     0.8067207    -0.4751478
  C                 -1.3125540     0.0215805    -0.0346030
  H                 -1.4593911    -0.8497931    -0.6731564
  H                 -1.2619076    -0.2891343     1.0091662
  H                 -2.1297134     0.7295137    -0.1734769
--
0 1
  O                  3.5051535    -2.3448605     1.3574633
  H                  2.9835083    -3.0103094     1.8046276
  H                  2.9074725    -1.6976328     0.9787265
}
memory 15GB
set_num_threads(4)
psi4_io.set_default_path("/scratch/bdw2292/Psi4-CH3Cl")
set maxiter 500
set freeze_core True
set PROPERTIES_ORIGIN ["COM"]
e_dim= energy('mp2/aug-cc-pV[TQ]Z',bsse_type='cp')

psi4.print_out('CP Energy = %10.6f' % (e_dim))
clean()
--------------------------------------------------------------------------

  Memory set to  13.970 GiB by Python driver.
  Threads set to 4 by Python driver.


   ===> N-Body Interaction Abacus <===
        BSSE Treatment:                     cp
        Number of 1-body computations:     4
        Number of 2-body computations:     1

   ==> N-Body: Now computing 1-body complexes <==


       N-Body: Computing complex (1/4) with fragments (2,) in the basis of fragments (2,).


  //>>>>>>>>>>>>>>>>>>>>>>>>>>>>>>>>>>>//
  //   CBS Setup: mp2/aug-cc-pV[TQ]Z   //
  //<<<<<<<<<<<<<<<<<<<<<<<<<<<<<<<<<<<//

    Naive listing of computations required.
             hf / aug-cc-pvqz              for  HF TOTAL ENERGY
            mp2 / aug-cc-pvtz              for  MP2 TOTAL ENERGY
            mp2 / aug-cc-pvqz              for  MP2 TOTAL ENERGY
             hf / aug-cc-pvtz              for  HF TOTAL ENERGY
             hf / aug-cc-pvqz              for  HF TOTAL ENERGY

    Enlightened listing of computations required.
            mp2 / aug-cc-pvtz              for  MP2 TOTAL ENERGY
            mp2 / aug-cc-pvqz              for  MP2 TOTAL ENERGY

    Full listing of computations to be obtained (required and bonus).
             hf / aug-cc-pvtz              for  HF TOTAL ENERGY
            mp2 / aug-cc-pvtz              for  MP2 TOTAL ENERGY
             hf / aug-cc-pvqz              for  HF TOTAL ENERGY
            mp2 / aug-cc-pvqz              for  MP2 TOTAL ENERGY

  //>>>>>>>>>>>>>>>>>>>>>>>>>>>>>>>>>>>>//
  // CBS Computation: MP2 / AUG-CC-PVTZ //
  //<<<<<<<<<<<<<<<<<<<<<<<<<<<<<<<<<<<<//

    SCF Algorithm Type (re)set to DF.

*** tstart() called on node37.bme.utexas.edu
*** at Tue Feb 22 17:54:30 2022

   => Loading Basis Set <=

    Name: AUG-CC-PVTZ
    Role: ORBITAL
    Keyword: BASIS
    atoms 1   entry O          line   327 file /home/bdw2292/miniconda3/envs/amoebamdpoltype/share/psi4/basis/aug-cc-pvtz.gbs 
    atoms 2-3 entry H          line    36 file /home/bdw2292/miniconda3/envs/amoebamdpoltype/share/psi4/basis/aug-cc-pvtz.gbs 


         ---------------------------------------------------------
                                   SCF
               by Justin Turney, Rob Parrish, Andy Simmonett
                          and Daniel G. A. Smith
                              RHF Reference
                        4 Threads,  14305 MiB Core
         ---------------------------------------------------------

  ==> Geometry <==

    Molecular point group: c1
    Full point group: C1

    Geometry (in Angstrom), charge = 0, multiplicity = 1:

       Center              X                  Y                   Z               Mass       
    ------------   -----------------  -----------------  -----------------  -----------------
         O            2.781837757188    -2.136131443936     1.244955750012    15.994914619570
         H            2.260192557188    -2.801580343936     1.692120050012     1.007825032230
         H            2.184156757188    -1.488903743936     0.866218950012     1.007825032230

  Running in c1 symmetry.

  Rotational constants: A =     19.02626  B =      0.06897  C =      0.06872 [cm^-1]
  Rotational constants: A = 570392.94838  B =   2067.73623  C =   2060.26842 [MHz]
  Nuclear repulsion =    9.181428651785843

  Charge       = 0
  Multiplicity = 1
  Electrons    = 10
  Nalpha       = 5
  Nbeta        = 5

  ==> Algorithm <==

  SCF Algorithm Type is DF.
  DIIS enabled.
  MOM disabled.
  Fractional occupation disabled.
  Guess Type is SAD.
  Energy threshold   = 1.00e-08
  Density threshold  = 1.00e-08
  Integral threshold = 0.00e+00

  ==> Primary Basis <==

  Basis Set: AUG-CC-PVTZ
    Blend: AUG-CC-PVTZ
    Number of shells: 32
    Number of basis function: 92
    Number of Cartesian functions: 105
    Spherical Harmonics?: true
    Max angular momentum: 3

   => Loading Basis Set <=

    Name: (AUG-CC-PVTZ AUX)
    Role: JKFIT
    Keyword: DF_BASIS_SCF
    atoms 1   entry O          line   286 file /home/bdw2292/miniconda3/envs/amoebamdpoltype/share/psi4/basis/aug-cc-pvtz-jkfit.gbs 
    atoms 2-3 entry H          line    70 file /home/bdw2292/miniconda3/envs/amoebamdpoltype/share/psi4/basis/aug-cc-pvtz-jkfit.gbs 

  ==> Pre-Iterations <==

   -------------------------------------------------------
    Irrep   Nso     Nmo     Nalpha   Nbeta   Ndocc  Nsocc
   -------------------------------------------------------
     A         92      92       0       0       0       0
   -------------------------------------------------------
    Total      92      92       5       5       5       0
   -------------------------------------------------------

  ==> Integral Setup <==

  DFHelper Memory: AOs need 0.015 GiB; user supplied 10.477 GiB. Using in-core AOs.

  ==> MemDFJK: Density-Fitted J/K Matrices <==

    J tasked:                   Yes
    K tasked:                   Yes
    wK tasked:                   No
    OpenMP threads:               4
    Memory [MiB]:             10728
    Algorithm:                 Core
    Schwarz Cutoff:           1E-12
    Mask sparsity (%):       0.0000
    Fitting Condition:        1E-10

   => Auxiliary Basis Set <=

  Basis Set: (AUG-CC-PVTZ AUX)
    Blend: AUG-CC-PVTZ-JKFIT
    Number of shells: 58
    Number of basis function: 196
    Number of Cartesian functions: 241
    Spherical Harmonics?: true
    Max angular momentum: 4

  Minimum eigenvalue in the overlap matrix is 3.7758856122E-04.
  Using Symmetric Orthogonalization.

  SCF Guess: Superposition of Atomic Densities via on-the-fly atomic UHF.

  ==> Iterations <==

                           Total Energy        Delta E     RMS |[F,P]|

   @DF-RHF iter SAD:   -75.47376343883560   -7.54738e+01   0.00000e+00 
   @DF-RHF iter   1:   -75.97655858516819   -5.02795e-01   5.09380e-03 DIIS
   @DF-RHF iter   2:   -76.02897021404064   -5.24116e-02   3.45292e-03 DIIS
   @DF-RHF iter   3:   -76.06001550463839   -3.10453e-02   2.34507e-04 DIIS
   @DF-RHF iter   4:   -76.06040543405123   -3.89929e-04   5.60163e-05 DIIS
   @DF-RHF iter   5:   -76.06042942780635   -2.39938e-05   1.26138e-05 DIIS
   @DF-RHF iter   6:   -76.06043138786616   -1.96006e-06   2.80686e-06 DIIS
   @DF-RHF iter   7:   -76.06043149582828   -1.07962e-07   5.30033e-07 DIIS
   @DF-RHF iter   8:   -76.06043149924292   -3.41464e-09   8.79596e-08 DIIS
   @DF-RHF iter   9:   -76.06043149931703   -7.41096e-11   2.18700e-08 DIIS
   @DF-RHF iter  10:   -76.06043149932103   -3.99325e-12   2.98565e-09 DIIS
  Energy and wave function converged.


  ==> Post-Iterations <==

    Orbital Energies [Eh]
    ---------------------

    Doubly Occupied:                                                      

       1A    -20.565573     2A     -1.350667     3A     -0.724786  
       4A     -0.577443     5A     -0.509189  

    Virtual:                                                              

       6A      0.029663     7A      0.047448     8A      0.136469  
       9A      0.157889    10A      0.174282    11A      0.182057  
      12A      0.228798    13A      0.244462    14A      0.263875  
      15A      0.304621    16A      0.313151    17A      0.365234  
      18A      0.437910    19A      0.466763    20A      0.602165  
      21A      0.654335    22A      0.711081    23A      0.719358  
      24A      0.731277    25A      0.828006    26A      0.843780  
      27A      0.890066    28A      0.912869    29A      0.920664  
      30A      0.923821    31A      0.927973    32A      0.971094  
      33A      1.022888    34A      1.045246    35A      1.085085  
      36A      1.113965    37A      1.172781    38A      1.177388  
      39A      1.259665    40A      1.514328    41A      1.563119  
      42A      1.595601    43A      1.785633    44A      1.797397  
      45A      2.002886    46A      2.115795    47A      2.259714  
      48A      2.318546    49A      2.321115    50A      2.413477  
      51A      2.414572    52A      2.438633    53A      2.471652  
      54A      2.686748    55A      2.703129    56A      2.767854  
      57A      2.856425    58A      2.883800    59A      3.645128  
      60A      3.769237    61A      4.007335    62A      4.089946  
      63A      4.210860    64A      4.231441    65A      4.335047  
      66A      4.381756    67A      4.400687    68A      4.415755  
      69A      4.493726    70A      4.707822    71A      4.812997  
      72A      5.124408    73A      5.171909    74A      5.304923  
      75A      5.329917    76A      5.513214    77A      5.720447  
      78A      6.140310    79A      6.534213    80A      6.713386  
      81A      6.859323    82A      7.146117    83A      7.262241  
      84A      7.299408    85A      7.308017    86A      7.370812  
      87A      7.386307    88A      7.557806    89A      7.897594  
      90A      7.962947    91A      8.788904    92A     15.853656  

    Final Occupation by Irrep:
              A 
    DOCC [     5 ]

  @DF-RHF Final Energy:   -76.06043149932103

   => Energetics <=

    Nuclear Repulsion Energy =              9.1814286517858434
    One-Electron Energy =                -123.0284051485613617
    Two-Electron Energy =                  37.7865449974544845
    Total Energy =                        -76.0604314993210266

Computation Completed


Properties will be evaluated at   5.138549,  -4.038630,   2.359861 [a0]

Properties computed using the SCF density matrix

  Nuclear Dipole Moment: [e a0]
     X:    -0.9316      Y:    -0.0152      Z:     0.0570

  Electronic Dipole Moment: [e a0]
     X:     0.1781      Y:     0.0026      Z:    -0.0107

  Dipole Moment: [e a0]
     X:    -0.7535      Y:    -0.0126      Z:     0.0463     Total:     0.7550

  Dipole Moment: [D]
     X:    -1.9152      Y:    -0.0320      Z:     0.1176     Total:     1.9191


*** tstop() called on node37.bme.utexas.edu at Tue Feb 22 17:54:34 2022
Module time:
	user time   =       5.85 seconds =       0.10 minutes
	system time =       0.50 seconds =       0.01 minutes
	total time  =          4 seconds =       0.07 minutes
Total time:
	user time   =       5.85 seconds =       0.10 minutes
	system time =       0.50 seconds =       0.01 minutes
	total time  =          4 seconds =       0.07 minutes

*** tstart() called on node37.bme.utexas.edu
*** at Tue Feb 22 17:54:34 2022


  //>>>>>>>>>>>>>>>>>>>>>>>>>>>>>>>>>>>//
  //               DFMP2               //
  //<<<<<<<<<<<<<<<<<<<<<<<<<<<<<<<<<<<//

   => Loading Basis Set <=

    Name: (AUG-CC-PVTZ AUX)
    Role: RIFIT
    Keyword: DF_BASIS_MP2
    atoms 1   entry O          line   264 file /home/bdw2292/miniconda3/envs/amoebamdpoltype/share/psi4/basis/aug-cc-pvtz-ri.gbs 
    atoms 2-3 entry H          line    30 file /home/bdw2292/miniconda3/envs/amoebamdpoltype/share/psi4/basis/aug-cc-pvtz-ri.gbs 

	 --------------------------------------------------------
	                          DF-MP2                         
	      2nd-Order Density-Fitted Moller-Plesset Theory     
	              RMP2 Wavefunction,   4 Threads             
	                                                         
	        Rob Parrish, Justin Turney, Andy Simmonett,      
	           Ed Hohenstein, and C. David Sherrill          
	 --------------------------------------------------------

   => Auxiliary Basis Set <=

  Basis Set: (AUG-CC-PVTZ AUX)
    Blend: AUG-CC-PVTZ-RI
    Number of shells: 56
    Number of basis function: 198
    Number of Cartesian functions: 246
    Spherical Harmonics?: true
    Max angular momentum: 4

	 --------------------------------------------------------
	                 NBF =    92, NAUX =   198
	 --------------------------------------------------------
	   CLASS    FOCC     OCC    AOCC    AVIR     VIR    FVIR
	   PAIRS       1       5       4      87      87       0
	 --------------------------------------------------------

	-----------------------------------------------------------
	 ==================> DF-MP2 Energies <==================== 
	-----------------------------------------------------------
	 Reference Energy          =     -76.0604314993210266 [Eh]
	 Singles Energy            =      -0.0000000000000000 [Eh]
	 Same-Spin Energy          =      -0.0650987975741381 [Eh]
	 Opposite-Spin Energy      =      -0.2029916149047414 [Eh]
	 Correlation Energy        =      -0.2680904124788795 [Eh]
	 Total Energy              =     -76.3285219117999105 [Eh]
	-----------------------------------------------------------
	 ================> DF-SCS-MP2 Energies <================== 
	-----------------------------------------------------------
	 SCS Same-Spin Scale       =       0.3333333333333333 [-]
	 SCS Opposite-Spin Scale   =       1.2000000000000000 [-]
	 SCS Same-Spin Energy      =      -0.0216995991913793 [Eh]
	 SCS Opposite-Spin Energy  =      -0.2435899378856897 [Eh]
	 SCS Correlation Energy    =      -0.2652895370770691 [Eh]
	 SCS Total Energy          =     -76.3257210363980931 [Eh]
	-----------------------------------------------------------


*** tstop() called on node37.bme.utexas.edu at Tue Feb 22 17:54:35 2022
Module time:
	user time   =       1.78 seconds =       0.03 minutes
	system time =       0.13 seconds =       0.00 minutes
	total time  =          1 seconds =       0.02 minutes
Total time:
	user time   =       7.63 seconds =       0.13 minutes
	system time =       0.63 seconds =       0.01 minutes
	total time  =          5 seconds =       0.08 minutes

  //>>>>>>>>>>>>>>>>>>>>>>>>>>>>>>>>>>>>//
  // CBS Computation: MP2 / AUG-CC-PVQZ //
  //<<<<<<<<<<<<<<<<<<<<<<<<<<<<<<<<<<<<//

    SCF Algorithm Type (re)set to DF.

*** tstart() called on node37.bme.utexas.edu
*** at Tue Feb 22 17:54:35 2022

   => Loading Basis Set <=

    Name: AUG-CC-PVQZ
    Role: ORBITAL
    Keyword: BASIS
    atoms 1   entry O          line   419 file /home/bdw2292/miniconda3/envs/amoebamdpoltype/share/psi4/basis/aug-cc-pvqz.gbs 
    atoms 2-3 entry H          line    36 file /home/bdw2292/miniconda3/envs/amoebamdpoltype/share/psi4/basis/aug-cc-pvqz.gbs 


         ---------------------------------------------------------
                                   SCF
               by Justin Turney, Rob Parrish, Andy Simmonett
                          and Daniel G. A. Smith
                              RHF Reference
                        4 Threads,  14305 MiB Core
         ---------------------------------------------------------

  ==> Geometry <==

    Molecular point group: c1
    Full point group: C1

    Geometry (in Angstrom), charge = 0, multiplicity = 1:

       Center              X                  Y                   Z               Mass       
    ------------   -----------------  -----------------  -----------------  -----------------
         O            2.781837757188    -2.136131443936     1.244955750012    15.994914619570
         H            2.260192557188    -2.801580343936     1.692120050012     1.007825032230
         H            2.184156757188    -1.488903743936     0.866218950012     1.007825032230

  Running in c1 symmetry.

  Rotational constants: A =     19.02626  B =      0.06897  C =      0.06872 [cm^-1]
  Rotational constants: A = 570392.94838  B =   2067.73623  C =   2060.26842 [MHz]
  Nuclear repulsion =    9.181428651785843

  Charge       = 0
  Multiplicity = 1
  Electrons    = 10
  Nalpha       = 5
  Nbeta        = 5

  ==> Algorithm <==

  SCF Algorithm Type is DF.
  DIIS enabled.
  MOM disabled.
  Fractional occupation disabled.
  Guess Type is SAD.
  Energy threshold   = 1.00e-08
  Density threshold  = 1.00e-08
  Integral threshold = 0.00e+00

  ==> Primary Basis <==

  Basis Set: AUG-CC-PVQZ
    Blend: AUG-CC-PVQZ
    Number of shells: 48
    Number of basis function: 172
    Number of Cartesian functions: 215
    Spherical Harmonics?: true
    Max angular momentum: 4

   => Loading Basis Set <=

    Name: (AUG-CC-PVQZ AUX)
    Role: JKFIT
    Keyword: DF_BASIS_SCF
    atoms 1   entry O          line   318 file /home/bdw2292/miniconda3/envs/amoebamdpoltype/share/psi4/basis/aug-cc-pvqz-jkfit.gbs 
    atoms 2-3 entry H          line    70 file /home/bdw2292/miniconda3/envs/amoebamdpoltype/share/psi4/basis/aug-cc-pvqz-jkfit.gbs 

  ==> Pre-Iterations <==

   -------------------------------------------------------
    Irrep   Nso     Nmo     Nalpha   Nbeta   Ndocc  Nsocc
   -------------------------------------------------------
     A        172     172       0       0       0       0
   -------------------------------------------------------
    Total     172     172       5       5       5       0
   -------------------------------------------------------

  ==> Integral Setup <==

  DFHelper Memory: AOs need 0.074 GiB; user supplied 10.477 GiB. Using in-core AOs.

  ==> MemDFJK: Density-Fitted J/K Matrices <==

    J tasked:                   Yes
    K tasked:                   Yes
    wK tasked:                   No
    OpenMP threads:               4
    Memory [MiB]:             10728
    Algorithm:                 Core
    Schwarz Cutoff:           1E-12
    Mask sparsity (%):       0.0000
    Fitting Condition:        1E-10

   => Auxiliary Basis Set <=

  Basis Set: (AUG-CC-PVQZ AUX)
    Blend: AUG-CC-PVQZ-JKFIT
    Number of shells: 70
    Number of basis function: 294
    Number of Cartesian functions: 400
    Spherical Harmonics?: true
    Max angular momentum: 5

  Minimum eigenvalue in the overlap matrix is 8.5468005393E-05.
  Using Symmetric Orthogonalization.

  SCF Guess: Superposition of Atomic Densities via on-the-fly atomic UHF.

  ==> Iterations <==

                           Total Energy        Delta E     RMS |[F,P]|

   @DF-RHF iter SAD:   -75.47891910443985   -7.54789e+01   0.00000e+00 
   @DF-RHF iter   1:   -75.98163972320779   -5.02721e-01   2.73037e-03 DIIS
   @DF-RHF iter   2:   -76.03415554140238   -5.25158e-02   1.85514e-03 DIIS
   @DF-RHF iter   3:   -76.06539885703954   -3.12433e-02   1.26348e-04 DIIS
   @DF-RHF iter   4:   -76.06579084710525   -3.91990e-04   3.08809e-05 DIIS
   @DF-RHF iter   5:   -76.06581574117543   -2.48941e-05   6.92810e-06 DIIS
   @DF-RHF iter   6:   -76.06581778365727   -2.04248e-06   1.58299e-06 DIIS
   @DF-RHF iter   7:   -76.06581790289003   -1.19233e-07   3.08507e-07 DIIS
   @DF-RHF iter   8:   -76.06581790691406   -4.02403e-09   4.93899e-08 DIIS
   @DF-RHF iter   9:   -76.06581790699745   -8.33893e-11   1.19635e-08 DIIS
   @DF-RHF iter  10:   -76.06581790700176   -4.30589e-12   1.66472e-09 DIIS
  Energy and wave function converged.


  ==> Post-Iterations <==

    Orbital Energies [Eh]
    ---------------------

    Doubly Occupied:                                                      

       1A    -20.563117     2A     -1.349941     3A     -0.724752  
       4A     -0.577495     5A     -0.509318  

    Virtual:                                                              

       6A      0.027142     7A      0.042879     8A      0.114689  
       9A      0.132637    10A      0.150359    11A      0.157878  
      12A      0.185953    13A      0.197110    14A      0.208290  
      15A      0.241238    16A      0.258896    17A      0.290441  
      18A      0.358043    19A      0.390563    20A      0.471763  
      21A      0.506748    22A      0.542990    23A      0.545727  
      24A      0.554185    25A      0.613307    26A      0.634206  
      27A      0.649547    28A      0.662665    29A      0.665841  
      30A      0.690173    31A      0.705218    32A      0.714948  
      33A      0.769541    34A      0.787546    35A      0.803479  
      36A      0.809719    37A      0.846658    38A      0.855362  
      39A      0.967496    40A      1.134226    41A      1.140624  
      42A      1.216508    43A      1.329072    44A      1.418430  
      45A      1.480450    46A      1.506174    47A      1.521469  
      48A      1.525141    49A      1.555820    50A      1.595494  
      51A      1.618115    52A      1.636565    53A      1.659661  
      54A      1.672324    55A      1.686072    56A      1.702532  
      57A      1.720064    58A      1.763237    59A      1.781271  
      60A      1.793541    61A      1.828654    62A      1.862962  
      63A      1.881998    64A      1.900750    65A      1.954211  
      66A      2.013859    67A      2.021858    68A      2.029626  
      69A      2.099152    70A      2.218635    71A      2.225631  
      72A      2.307052    73A      2.491398    74A      2.641702  
      75A      2.643000    76A      2.890535    77A      2.961955  
      78A      3.009843    79A      3.023981    80A      3.061258  
      81A      3.088201    82A      3.253337    83A      3.283527  
      84A      3.309954    85A      3.529188    86A      3.591098  
      87A      3.657831    88A      3.682065    89A      3.739195  
      90A      3.742581    91A      3.920933    92A      4.066622  
      93A      4.159480    94A      4.170537    95A      4.174862  
      96A      4.181140    97A      4.250747    98A      4.343881  
      99A      4.419234   100A      4.566082   101A      4.664245  
     102A      4.760552   103A      4.802825   104A      4.806553  
     105A      4.838842   106A      4.875359   107A      4.998502  
     108A      5.275389   109A      5.315707   110A      5.512454  
     111A      5.546941   112A      5.877981   113A      5.881679  
     114A      6.079972   115A      6.230083   116A      6.836121  
     117A      6.858714   118A      6.861768   119A      6.955155  
     120A      7.713309   121A      7.780065   122A      7.828068  
     123A      7.844910   124A      7.876556   125A      7.918297  
     126A      7.946413   127A      8.006758   128A      8.197470  
     129A      8.338036   130A      8.536365   131A      8.591654  
     132A      8.704065   133A      8.757915   134A      8.798396  
     135A      8.875301   136A      8.982044   137A      9.062933  
     138A      9.142982   139A      9.530798   140A      9.842005  
     141A      9.960945   142A      9.964453   143A     10.012486  
     144A     10.437937   145A     10.477779   146A     10.655510  
     147A     10.993367   148A     11.038543   149A     11.079771  
     150A     11.260226   151A     11.367976   152A     11.438270  
     153A     11.696879   154A     11.796316   155A     11.834909  
     156A     12.012055   157A     12.175943   158A     12.224203  
     159A     12.532537   160A     12.735455   161A     12.873410  
     162A     12.896041   163A     13.210895   164A     13.997076  
     165A     14.038186   166A     14.487021   167A     14.844918  
     168A     14.875221   169A     15.299290   170A     16.925088  
     171A     17.265936   172A     45.490518  

    Final Occupation by Irrep:
              A 
    DOCC [     5 ]

  @DF-RHF Final Energy:   -76.06581790700176

   => Energetics <=

    Nuclear Repulsion Energy =              9.1814286517858434
    One-Electron Energy =                -123.0452476611032040
    Two-Electron Energy =                  37.7980011023155953
    Total Energy =                        -76.0658179070017582

Computation Completed


Properties will be evaluated at   5.138549,  -4.038630,   2.359861 [a0]

Properties computed using the SCF density matrix

  Nuclear Dipole Moment: [e a0]
     X:    -0.9316      Y:    -0.0152      Z:     0.0570

  Electronic Dipole Moment: [e a0]
     X:     0.1789      Y:     0.0026      Z:    -0.0107

  Dipole Moment: [e a0]
     X:    -0.7527      Y:    -0.0126      Z:     0.0462     Total:     0.7542

  Dipole Moment: [D]
     X:    -1.9131      Y:    -0.0319      Z:     0.1175     Total:     1.9169


*** tstop() called on node37.bme.utexas.edu at Tue Feb 22 17:54:39 2022
Module time:
	user time   =      10.16 seconds =       0.17 minutes
	system time =       0.74 seconds =       0.01 minutes
	total time  =          4 seconds =       0.07 minutes
Total time:
	user time   =      17.83 seconds =       0.30 minutes
	system time =       1.38 seconds =       0.02 minutes
	total time  =          9 seconds =       0.15 minutes

*** tstart() called on node37.bme.utexas.edu
*** at Tue Feb 22 17:54:39 2022


  //>>>>>>>>>>>>>>>>>>>>>>>>>>>>>>>>>>>//
  //               DFMP2               //
  //<<<<<<<<<<<<<<<<<<<<<<<<<<<<<<<<<<<//

   => Loading Basis Set <=

    Name: (AUG-CC-PVQZ AUX)
    Role: RIFIT
    Keyword: DF_BASIS_MP2
    atoms 1   entry O          line   332 file /home/bdw2292/miniconda3/envs/amoebamdpoltype/share/psi4/basis/aug-cc-pvqz-ri.gbs 
    atoms 2-3 entry H          line    30 file /home/bdw2292/miniconda3/envs/amoebamdpoltype/share/psi4/basis/aug-cc-pvqz-ri.gbs 

	 --------------------------------------------------------
	                          DF-MP2                         
	      2nd-Order Density-Fitted Moller-Plesset Theory     
	              RMP2 Wavefunction,   4 Threads             
	                                                         
	        Rob Parrish, Justin Turney, Andy Simmonett,      
	           Ed Hohenstein, and C. David Sherrill          
	 --------------------------------------------------------

   => Auxiliary Basis Set <=

  Basis Set: (AUG-CC-PVQZ AUX)
    Blend: AUG-CC-PVQZ-RI
    Number of shells: 76
    Number of basis function: 328
    Number of Cartesian functions: 447
    Spherical Harmonics?: true
    Max angular momentum: 5

	 --------------------------------------------------------
	                 NBF =   172, NAUX =   328
	 --------------------------------------------------------
	   CLASS    FOCC     OCC    AOCC    AVIR     VIR    FVIR
	   PAIRS       1       5       4     167     167       0
	 --------------------------------------------------------

	-----------------------------------------------------------
	 ==================> DF-MP2 Energies <==================== 
	-----------------------------------------------------------
	 Reference Energy          =     -76.0658179070017582 [Eh]
	 Singles Energy            =      -0.0000000000000000 [Eh]
	 Same-Spin Energy          =      -0.0671681170710499 [Eh]
	 Opposite-Spin Energy      =      -0.2185301810702974 [Eh]
	 Correlation Energy        =      -0.2856982981413472 [Eh]
	 Total Energy              =     -76.3515162051430991 [Eh]
	-----------------------------------------------------------
	 ================> DF-SCS-MP2 Energies <================== 
	-----------------------------------------------------------
	 SCS Same-Spin Scale       =       0.3333333333333333 [-]
	 SCS Opposite-Spin Scale   =       1.2000000000000000 [-]
	 SCS Same-Spin Energy      =      -0.0223893723570166 [Eh]
	 SCS Opposite-Spin Energy  =      -0.2622362172843568 [Eh]
	 SCS Correlation Energy    =      -0.2846255896413734 [Eh]
	 SCS Total Energy          =     -76.3504434966431376 [Eh]
	-----------------------------------------------------------


*** tstop() called on node37.bme.utexas.edu at Tue Feb 22 17:54:40 2022
Module time:
	user time   =       3.35 seconds =       0.06 minutes
	system time =       0.25 seconds =       0.00 minutes
	total time  =          1 seconds =       0.02 minutes
Total time:
	user time   =      21.18 seconds =       0.35 minutes
	system time =       1.64 seconds =       0.03 minutes
	total time  =         10 seconds =       0.17 minutes

  //>>>>>>>>>>>>>>>>>>>>>>>>>>>>>>>>>>>//
  //  CBS Results: mp2/aug-cc-pV[TQ]Z  //
  //<<<<<<<<<<<<<<<<<<<<<<<<<<<<<<<<<<<//


   ==> HF <==

   HI-zeta (4) Energy:               -76.065817907002


   ==> Helgaker 2-point correlated extrapolation for method: MP2 <==

   LO-zeta (3) Energy:               -76.328521911800
   HI-zeta (4) Energy:               -76.351516205143
   Alpha (exponent) Value:             3.000000000000
   Extrapolated Energy:              -76.368295824610

   @Extrapolated MP2/(T,Q):          -76.368295824610



   ==> Helgaker 2-point correlated extrapolation for method: HF <==

   LO-zeta (3) Energy:               -76.060431499321
   HI-zeta (4) Energy:               -76.065817907002
   Alpha (exponent) Value:             3.000000000000
   Extrapolated Energy:              -76.069748528823

   @Extrapolated HF/(T,Q):           -76.069748528823


   ==> Components <==

  ---------------------------------------------------------------------------------------------------------
                          Method / Basis                      Rqd      Energy [Eh]   Variable
  ---------------------------------------------------------------------------------------------------------
                              hf / aug-cc-pvtz                  *     -76.06043150   HF TOTAL ENERGY
                             mp2 / aug-cc-pvtz                  *     -76.32852191   MP2 TOTAL ENERGY
                              hf / aug-cc-pvqz                  *     -76.06581791   HF TOTAL ENERGY
                             mp2 / aug-cc-pvqz                  *     -76.35151621   MP2 TOTAL ENERGY
  ---------------------------------------------------------------------------------------------------------

   ==> Stages <==

  ---------------------------------------------------------------------------------------------------------
      Stage               Method / Basis                       Wt      Energy [Eh]   Scheme
  ---------------------------------------------------------------------------------------------------------
        scf                   hf / aug-cc-pvqz                  1     -76.06581791   xtpl_highest_1
       corl                  mp2 / aug-cc-pv[tq]z               1     -76.36829582   corl_xtpl_helgaker_2
       corl                   hf / aug-cc-pv[tq]z              -1     -76.06974853   corl_xtpl_helgaker_2
  ---------------------------------------------------------------------------------------------------------

   ==> CBS <==

  ---------------------------------------------------------------------------------------------------------
      Stage               Method / Basis                               Energy [Eh]   Scheme
  ---------------------------------------------------------------------------------------------------------
        scf                   hf / aug-cc-pvqz                        -76.06581791   xtpl_highest_1
       corl                  mp2 / aug-cc-pv[tq]z                      -0.29854730   corl_xtpl_helgaker_2
      total                  CBS                                      -76.36436520   
  ---------------------------------------------------------------------------------------------------------
   => Loading Basis Set <=

    Name: DEF2-SVP
    Role: ORBITAL
    Keyword: BASIS
    atoms 1   entry O          line   130 file /home/bdw2292/miniconda3/envs/amoebamdpoltype/share/psi4/basis/def2-svp.gbs 
    atoms 2-3 entry H          line    15 file /home/bdw2292/miniconda3/envs/amoebamdpoltype/share/psi4/basis/def2-svp.gbs 


       N-Body: Complex Energy (fragments = (2,), basis = (2,):   -76.36436520278866)

       N-Body: Computing complex (2/4) with fragments (2,) in the basis of fragments (1, 2).


  //>>>>>>>>>>>>>>>>>>>>>>>>>>>>>>>>>>>//
  //   CBS Setup: mp2/aug-cc-pV[TQ]Z   //
  //<<<<<<<<<<<<<<<<<<<<<<<<<<<<<<<<<<<//

    Naive listing of computations required.
             hf / aug-cc-pvqz              for  HF TOTAL ENERGY
            mp2 / aug-cc-pvtz              for  MP2 TOTAL ENERGY
            mp2 / aug-cc-pvqz              for  MP2 TOTAL ENERGY
             hf / aug-cc-pvtz              for  HF TOTAL ENERGY
             hf / aug-cc-pvqz              for  HF TOTAL ENERGY

    Enlightened listing of computations required.
            mp2 / aug-cc-pvtz              for  MP2 TOTAL ENERGY
            mp2 / aug-cc-pvqz              for  MP2 TOTAL ENERGY

    Full listing of computations to be obtained (required and bonus).
             hf / aug-cc-pvtz              for  HF TOTAL ENERGY
            mp2 / aug-cc-pvtz              for  MP2 TOTAL ENERGY
             hf / aug-cc-pvqz              for  HF TOTAL ENERGY
            mp2 / aug-cc-pvqz              for  MP2 TOTAL ENERGY

  //>>>>>>>>>>>>>>>>>>>>>>>>>>>>>>>>>>>>//
  // CBS Computation: MP2 / AUG-CC-PVTZ //
  //<<<<<<<<<<<<<<<<<<<<<<<<<<<<<<<<<<<<//

    SCF Algorithm Type (re)set to DF.

*** tstart() called on node37.bme.utexas.edu
*** at Tue Feb 22 17:54:42 2022

   => Loading Basis Set <=

    Name: AUG-CC-PVTZ
    Role: ORBITAL
    Keyword: BASIS
    atoms 1        entry CL         line   984 file /home/bdw2292/miniconda3/envs/amoebamdpoltype/share/psi4/basis/aug-cc-pvtz.gbs 
    atoms 2        entry C          line   235 file /home/bdw2292/miniconda3/envs/amoebamdpoltype/share/psi4/basis/aug-cc-pvtz.gbs 
    atoms 3-5, 7-8 entry H          line    36 file /home/bdw2292/miniconda3/envs/amoebamdpoltype/share/psi4/basis/aug-cc-pvtz.gbs 
    atoms 6        entry O          line   327 file /home/bdw2292/miniconda3/envs/amoebamdpoltype/share/psi4/basis/aug-cc-pvtz.gbs 


         ---------------------------------------------------------
                                   SCF
               by Justin Turney, Rob Parrish, Andy Simmonett
                          and Daniel G. A. Smith
                              RHF Reference
                        4 Threads,  14305 MiB Core
         ---------------------------------------------------------

  ==> Geometry <==

    Molecular point group: c1
    Full point group: C1

    Geometry (in Angstrom), charge = 0, multiplicity = 1:

       Center              X                  Y                   Z               Mass       
    ------------   -----------------  -----------------  -----------------  -----------------
      Gh(CL)         -0.499531642812     1.015449756064    -0.587655349988    34.968852682000
      Gh(C)          -2.035869742812     0.230309556064    -0.147110549988    12.000000000000
      Gh(H)          -2.182706842812    -0.641064043936    -0.785663949988     1.007825032230
      Gh(H)          -1.985223342812    -0.080405243936     0.896658650012     1.007825032230
      Gh(H)          -2.853029142812     0.938242756064    -0.285984449988     1.007825032230
         O            2.781837757188    -2.136131443936     1.244955750012    15.994914619570
         H            2.260192557188    -2.801580343936     1.692120050012     1.007825032230
         H            2.184156757188    -1.488903743936     0.866218950012     1.007825032230

  Running in c1 symmetry.

  Rotational constants: A =      0.47538  B =      0.04977  C =      0.04544 [cm^-1]
  Rotational constants: A =  14251.57781  B =   1491.94944  C =   1362.27323 [MHz]
  Nuclear repulsion =    9.181428651785843

  Charge       = 0
  Multiplicity = 1
  Electrons    = 10
  Nalpha       = 5
  Nbeta        = 5

  ==> Algorithm <==

  SCF Algorithm Type is DF.
  DIIS enabled.
  MOM disabled.
  Fractional occupation disabled.
  Guess Type is SAD.
  Energy threshold   = 1.00e-08
  Density threshold  = 1.00e-08
  Integral threshold = 0.00e+00

  ==> Primary Basis <==

  Basis Set: AUG-CC-PVTZ
    Blend: AUG-CC-PVTZ
    Number of shells: 89
    Number of basis function: 257
    Number of Cartesian functions: 294
    Spherical Harmonics?: true
    Max angular momentum: 3

   => Loading Basis Set <=

    Name: (AUG-CC-PVTZ AUX)
    Role: JKFIT
    Keyword: DF_BASIS_SCF
    atoms 1        entry CL         line   816 file /home/bdw2292/miniconda3/envs/amoebamdpoltype/share/psi4/basis/aug-cc-pvtz-jkfit.gbs 
    atoms 2        entry C          line   162 file /home/bdw2292/miniconda3/envs/amoebamdpoltype/share/psi4/basis/aug-cc-pvtz-jkfit.gbs 
    atoms 3-5, 7-8 entry H          line    70 file /home/bdw2292/miniconda3/envs/amoebamdpoltype/share/psi4/basis/aug-cc-pvtz-jkfit.gbs 
    atoms 6        entry O          line   286 file /home/bdw2292/miniconda3/envs/amoebamdpoltype/share/psi4/basis/aug-cc-pvtz-jkfit.gbs 

  ==> Pre-Iterations <==

   -------------------------------------------------------
    Irrep   Nso     Nmo     Nalpha   Nbeta   Ndocc  Nsocc
   -------------------------------------------------------
     A        257     257       0       0       0       0
   -------------------------------------------------------
    Total     257     257       5       5       5       0
   -------------------------------------------------------

  ==> Integral Setup <==

  DFHelper Memory: AOs need 0.276 GiB; user supplied 10.477 GiB. Using in-core AOs.

  ==> MemDFJK: Density-Fitted J/K Matrices <==

    J tasked:                   Yes
    K tasked:                   Yes
    wK tasked:                   No
    OpenMP threads:               4
    Memory [MiB]:             10728
    Algorithm:                 Core
    Schwarz Cutoff:           1E-12
    Mask sparsity (%):      10.0107
    Fitting Condition:        1E-10

   => Auxiliary Basis Set <=

  Basis Set: (AUG-CC-PVTZ AUX)
    Blend: AUG-CC-PVTZ-JKFIT
    Number of shells: 172
    Number of basis function: 584
    Number of Cartesian functions: 717
    Spherical Harmonics?: true
    Max angular momentum: 4

  Minimum eigenvalue in the overlap matrix is 7.3864867173E-05.
  Using Symmetric Orthogonalization.

  SCF Guess: Superposition of Atomic Densities via on-the-fly atomic UHF.

  ==> Iterations <==

                           Total Energy        Delta E     RMS |[F,P]|

   @DF-RHF iter SAD:   -75.47376343222557   -7.54738e+01   0.00000e+00 
   @DF-RHF iter   1:   -75.97656281963968   -5.02799e-01   1.82348e-03 DIIS
   @DF-RHF iter   2:   -76.02897757450110   -5.24148e-02   1.23612e-03 DIIS
   @DF-RHF iter   3:   -76.06002437181354   -3.10468e-02   8.39516e-05 DIIS
   @DF-RHF iter   4:   -76.06041434284492   -3.89971e-04   2.00548e-05 DIIS
   @DF-RHF iter   5:   -76.06043834432535   -2.40015e-05   4.51610e-06 DIIS
   @DF-RHF iter   6:   -76.06044030504829   -1.96072e-06   1.00488e-06 DIIS
   @DF-RHF iter   7:   -76.06044041303447   -1.07986e-07   1.89800e-07 DIIS
   @DF-RHF iter   8:   -76.06044041645306   -3.41859e-09   3.15064e-08 DIIS
   @DF-RHF iter   9:   -76.06044041652709   -7.40243e-11   7.83075e-09 DIIS
  Energy and wave function converged.


  ==> Post-Iterations <==

    Orbital Energies [Eh]
    ---------------------

    Doubly Occupied:                                                      

       1A    -20.565590     2A     -1.350676     3A     -0.724794  
       4A     -0.577445     5A     -0.509194  

    Virtual:                                                              

       6A      0.016949     7A      0.034777     8A      0.042885  
       9A      0.046052    10A      0.054197    11A      0.076121  
      12A      0.095751    13A      0.107125    14A      0.109408  
      15A      0.114553    16A      0.122137    17A      0.131037  
      18A      0.158174    19A      0.168341    20A      0.172799  
      21A      0.188245    22A      0.203308    23A      0.221961  
      24A      0.237093    25A      0.259256    26A      0.261570  
      27A      0.269978    28A      0.270912    29A      0.284733  
      30A      0.293368    31A      0.305736    32A      0.309164  
      33A      0.312605    34A      0.321640    35A      0.326996  
      36A      0.353796    37A      0.366364    38A      0.379671  
      39A      0.387469    40A      0.392436    41A      0.412780  
      42A      0.418853    43A      0.430079    44A      0.439051  
      45A      0.456373    46A      0.461535    47A      0.489618  
      48A      0.504059    49A      0.536359    50A      0.551975  
      51A      0.576415    52A      0.580943    53A      0.595778  
      54A      0.603534    55A      0.638476    56A      0.652166  
      57A      0.655330    58A      0.665208    59A      0.674751  
      60A      0.692843    61A      0.711561    62A      0.725781  
      63A      0.729618    64A      0.736682    65A      0.795516  
      66A      0.848446    67A      0.855772    68A      0.909426  
      69A      0.915855    70A      0.921197    71A      0.929587  
      72A      0.940368    73A      0.954108    74A      0.964443  
      75A      0.973757    76A      0.976117    77A      1.028623  
      78A      1.033925    79A      1.037658    80A      1.049739  
      81A      1.059016    82A      1.066331    83A      1.078512  
      84A      1.083517    85A      1.092283    86A      1.104399  
      87A      1.106361    88A      1.111947    89A      1.128578  
      90A      1.160720    91A      1.176297    92A      1.179371  
      93A      1.186918    94A      1.189987    95A      1.211310  
      96A      1.222771    97A      1.233978    98A      1.242441  
      99A      1.267320   100A      1.281816   101A      1.309822  
     102A      1.330363   103A      1.369284   104A      1.377353  
     105A      1.382351   106A      1.402475   107A      1.406716  
     108A      1.428611   109A      1.492041   110A      1.512277  
     111A      1.521220   112A      1.528258   113A      1.545142  
     114A      1.559863   115A      1.572610   116A      1.580201  
     117A      1.600780   118A      1.605751   119A      1.617143  
     120A      1.728918   121A      1.769422   122A      1.797154  
     123A      1.816327   124A      1.893678   125A      1.895352  
     126A      1.921526   127A      1.955307   128A      1.960534  
     129A      2.016497   130A      2.045085   131A      2.060144  
     132A      2.072162   133A      2.105585   134A      2.109449  
     135A      2.114899   136A      2.135186   137A      2.181427  
     138A      2.262328   139A      2.300131   140A      2.316456  
     141A      2.328511   142A      2.336700   143A      2.419179  
     144A      2.441351   145A      2.457811   146A      2.489354  
     147A      2.495217   148A      2.498224   149A      2.520337  
     150A      2.570478   151A      2.688180   152A      2.704572  
     153A      2.708057   154A      2.717919   155A      2.790760  
     156A      2.869360   157A      2.887753   158A      2.947063  
     159A      3.654427   160A      3.710971   161A      3.785440  
     162A      3.909486   163A      3.916469   164A      3.931860  
     165A      3.964160   166A      3.969947   167A      3.973066  
     168A      3.993259   169A      4.008439   170A      4.063658  
     171A      4.078443   172A      4.088635   173A      4.096779  
     174A      4.146070   175A      4.161626   176A      4.165106  
     177A      4.212478   178A      4.223976   179A      4.225115  
     180A      4.240891   181A      4.335912   182A      4.381972  
     183A      4.389828   184A      4.401824   185A      4.431833  
     186A      4.438088   187A      4.441732   188A      4.461310  
     189A      4.498763   190A      4.525208   191A      4.550168  
     192A      4.575037   193A      4.575342   194A      4.680137  
     195A      4.730079   196A      4.732730   197A      4.755530  
     198A      4.767250   199A      4.804852   200A      4.809977  
     201A      4.839957   202A      4.864033   203A      4.869428  
     204A      4.955306   205A      5.079140   206A      5.085124  
     207A      5.133651   208A      5.154722   209A      5.172776  
     210A      5.230460   211A      5.320092   212A      5.326221  
     213A      5.327466   214A      5.341862   215A      5.365235  
     216A      5.458733   217A      5.467959   218A      5.472755  
     219A      5.513598   220A      5.700267   221A      5.703863  
     222A      5.731055   223A      6.024530   224A      6.135462  
     225A      6.141712   226A      6.146451   227A      6.194038  
     228A      6.214360   229A      6.543111   230A      6.653166  
     231A      6.662003   232A      6.716779   233A      6.871219  
     234A      7.119422   235A      7.147194   236A      7.264618  
     237A      7.310946   238A      7.312496   239A      7.371799  
     240A      7.390159   241A      7.578734   242A      7.731983  
     243A      7.744882   244A      7.845939   245A      7.915968  
     246A      7.966658   247A      8.111322   248A      8.132011  
     249A      8.796726   250A     10.211174   251A     15.888126  
     252A     16.188829   253A     28.032188   254A     28.047586  
     255A     28.927419   256A     51.020787   257A    161.011188  

    Final Occupation by Irrep:
              A 
    DOCC [     5 ]

  @DF-RHF Final Energy:   -76.06044041652709

   => Energetics <=

    Nuclear Repulsion Energy =              9.1814286517858434
    One-Electron Energy =                -123.0283382007514490
    Two-Electron Energy =                  37.7864691324385262
    Total Energy =                        -76.0604404165270864

Computation Completed


Properties will be evaluated at   0.000000,   0.000000,   0.000000 [a0]

Properties computed using the SCF density matrix

  Nuclear Dipole Moment: [e a0]
     X:    50.4539      Y:   -40.4015      Z:    23.6556

  Electronic Dipole Moment: [e a0]
     X:   -51.2077      Y:    40.3889      Z:   -23.6093

  Dipole Moment: [e a0]
     X:    -0.7538      Y:    -0.0126      Z:     0.0463     Total:     0.7553

  Dipole Moment: [D]
     X:    -1.9160      Y:    -0.0320      Z:     0.1177     Total:     1.9199


*** tstop() called on node37.bme.utexas.edu at Tue Feb 22 17:54:50 2022
Module time:
	user time   =      19.93 seconds =       0.33 minutes
	system time =       1.14 seconds =       0.02 minutes
	total time  =          8 seconds =       0.13 minutes
Total time:
	user time   =      42.69 seconds =       0.71 minutes
	system time =       2.83 seconds =       0.05 minutes
	total time  =         20 seconds =       0.33 minutes

*** tstart() called on node37.bme.utexas.edu
*** at Tue Feb 22 17:54:50 2022


  //>>>>>>>>>>>>>>>>>>>>>>>>>>>>>>>>>>>//
  //               DFMP2               //
  //<<<<<<<<<<<<<<<<<<<<<<<<<<<<<<<<<<<//

   => Loading Basis Set <=

    Name: (AUG-CC-PVTZ AUX)
    Role: RIFIT
    Keyword: DF_BASIS_MP2
    atoms 1        entry CL         line   742 file /home/bdw2292/miniconda3/envs/amoebamdpoltype/share/psi4/basis/aug-cc-pvtz-ri.gbs 
    atoms 2        entry C          line   148 file /home/bdw2292/miniconda3/envs/amoebamdpoltype/share/psi4/basis/aug-cc-pvtz-ri.gbs 
    atoms 3-5, 7-8 entry H          line    30 file /home/bdw2292/miniconda3/envs/amoebamdpoltype/share/psi4/basis/aug-cc-pvtz-ri.gbs 
    atoms 6        entry O          line   264 file /home/bdw2292/miniconda3/envs/amoebamdpoltype/share/psi4/basis/aug-cc-pvtz-ri.gbs 

	 --------------------------------------------------------
	                          DF-MP2                         
	      2nd-Order Density-Fitted Moller-Plesset Theory     
	              RMP2 Wavefunction,   4 Threads             
	                                                         
	        Rob Parrish, Justin Turney, Andy Simmonett,      
	           Ed Hohenstein, and C. David Sherrill          
	 --------------------------------------------------------

   => Auxiliary Basis Set <=

  Basis Set: (AUG-CC-PVTZ AUX)
    Blend: AUG-CC-PVTZ-RI
    Number of shells: 163
    Number of basis function: 589
    Number of Cartesian functions: 738
    Spherical Harmonics?: true
    Max angular momentum: 4

	 --------------------------------------------------------
	                 NBF =   257, NAUX =   589
	 --------------------------------------------------------
	   CLASS    FOCC     OCC    AOCC    AVIR     VIR    FVIR
	   PAIRS       1       5       4     252     252       0
	 --------------------------------------------------------

	-----------------------------------------------------------
	 ==================> DF-MP2 Energies <==================== 
	-----------------------------------------------------------
	 Reference Energy          =     -76.0604404165270864 [Eh]
	 Singles Energy            =      -0.0000000000000000 [Eh]
	 Same-Spin Energy          =      -0.0651021457878512 [Eh]
	 Opposite-Spin Energy      =      -0.2030162334482653 [Eh]
	 Correlation Energy        =      -0.2681183792361165 [Eh]
	 Total Energy              =     -76.3285587957632004 [Eh]
	-----------------------------------------------------------
	 ================> DF-SCS-MP2 Energies <================== 
	-----------------------------------------------------------
	 SCS Same-Spin Scale       =       0.3333333333333333 [-]
	 SCS Opposite-Spin Scale   =       1.2000000000000000 [-]
	 SCS Same-Spin Energy      =      -0.0217007152626171 [Eh]
	 SCS Opposite-Spin Energy  =      -0.2436194801379183 [Eh]
	 SCS Correlation Energy    =      -0.2653201954005354 [Eh]
	 SCS Total Energy          =     -76.3257606119276204 [Eh]
	-----------------------------------------------------------


*** tstop() called on node37.bme.utexas.edu at Tue Feb 22 17:54:53 2022
Module time:
	user time   =       8.26 seconds =       0.14 minutes
	system time =       0.49 seconds =       0.01 minutes
	total time  =          3 seconds =       0.05 minutes
Total time:
	user time   =      50.96 seconds =       0.85 minutes
	system time =       3.32 seconds =       0.06 minutes
	total time  =         23 seconds =       0.38 minutes

  //>>>>>>>>>>>>>>>>>>>>>>>>>>>>>>>>>>>>//
  // CBS Computation: MP2 / AUG-CC-PVQZ //
  //<<<<<<<<<<<<<<<<<<<<<<<<<<<<<<<<<<<<//

    SCF Algorithm Type (re)set to DF.

*** tstart() called on node37.bme.utexas.edu
*** at Tue Feb 22 17:54:53 2022

   => Loading Basis Set <=

    Name: AUG-CC-PVQZ
    Role: ORBITAL
    Keyword: BASIS
    atoms 1        entry CL         line  1218 file /home/bdw2292/miniconda3/envs/amoebamdpoltype/share/psi4/basis/aug-cc-pvqz.gbs 
    atoms 2        entry C          line   299 file /home/bdw2292/miniconda3/envs/amoebamdpoltype/share/psi4/basis/aug-cc-pvqz.gbs 
    atoms 3-5, 7-8 entry H          line    36 file /home/bdw2292/miniconda3/envs/amoebamdpoltype/share/psi4/basis/aug-cc-pvqz.gbs 
    atoms 6        entry O          line   419 file /home/bdw2292/miniconda3/envs/amoebamdpoltype/share/psi4/basis/aug-cc-pvqz.gbs 


         ---------------------------------------------------------
                                   SCF
               by Justin Turney, Rob Parrish, Andy Simmonett
                          and Daniel G. A. Smith
                              RHF Reference
                        4 Threads,  14305 MiB Core
         ---------------------------------------------------------

  ==> Geometry <==

    Molecular point group: c1
    Full point group: C1

    Geometry (in Angstrom), charge = 0, multiplicity = 1:

       Center              X                  Y                   Z               Mass       
    ------------   -----------------  -----------------  -----------------  -----------------
      Gh(CL)         -0.499531642812     1.015449756064    -0.587655349988    34.968852682000
      Gh(C)          -2.035869742812     0.230309556064    -0.147110549988    12.000000000000
      Gh(H)          -2.182706842812    -0.641064043936    -0.785663949988     1.007825032230
      Gh(H)          -1.985223342812    -0.080405243936     0.896658650012     1.007825032230
      Gh(H)          -2.853029142812     0.938242756064    -0.285984449988     1.007825032230
         O            2.781837757188    -2.136131443936     1.244955750012    15.994914619570
         H            2.260192557188    -2.801580343936     1.692120050012     1.007825032230
         H            2.184156757188    -1.488903743936     0.866218950012     1.007825032230

  Running in c1 symmetry.

  Rotational constants: A =      0.47538  B =      0.04977  C =      0.04544 [cm^-1]
  Rotational constants: A =  14251.57781  B =   1491.94944  C =   1362.27323 [MHz]
  Nuclear repulsion =    9.181428651785843

  Charge       = 0
  Multiplicity = 1
  Electrons    = 10
  Nalpha       = 5
  Nbeta        = 5

  ==> Algorithm <==

  SCF Algorithm Type is DF.
  DIIS enabled.
  MOM disabled.
  Fractional occupation disabled.
  Guess Type is SAD.
  Energy threshold   = 1.00e-08
  Density threshold  = 1.00e-08
  Integral threshold = 0.00e+00

  ==> Primary Basis <==

  Basis Set: AUG-CC-PVQZ
    Blend: AUG-CC-PVQZ
    Number of shells: 132
    Number of basis function: 474
    Number of Cartesian functions: 594
    Spherical Harmonics?: true
    Max angular momentum: 4

   => Loading Basis Set <=

    Name: (AUG-CC-PVQZ AUX)
    Role: JKFIT
    Keyword: DF_BASIS_SCF
    atoms 1        entry CL         line   904 file /home/bdw2292/miniconda3/envs/amoebamdpoltype/share/psi4/basis/aug-cc-pvqz-jkfit.gbs 
    atoms 2        entry C          line   178 file /home/bdw2292/miniconda3/envs/amoebamdpoltype/share/psi4/basis/aug-cc-pvqz-jkfit.gbs 
    atoms 3-5, 7-8 entry H          line    70 file /home/bdw2292/miniconda3/envs/amoebamdpoltype/share/psi4/basis/aug-cc-pvqz-jkfit.gbs 
    atoms 6        entry O          line   318 file /home/bdw2292/miniconda3/envs/amoebamdpoltype/share/psi4/basis/aug-cc-pvqz-jkfit.gbs 

  ==> Pre-Iterations <==

   -------------------------------------------------------
    Irrep   Nso     Nmo     Nalpha   Nbeta   Ndocc  Nsocc
   -------------------------------------------------------
     A        474     474       0       0       0       0
   -------------------------------------------------------
    Total     474     474       5       5       5       0
   -------------------------------------------------------

  ==> Integral Setup <==

  DFHelper Memory: AOs need 1.274 GiB; user supplied 10.477 GiB. Using in-core AOs.

  ==> MemDFJK: Density-Fitted J/K Matrices <==

    J tasked:                   Yes
    K tasked:                   Yes
    wK tasked:                   No
    OpenMP threads:               4
    Memory [MiB]:             10728
    Algorithm:                 Core
    Schwarz Cutoff:           1E-12
    Mask sparsity (%):      15.0003
    Fitting Condition:        1E-10

   => Auxiliary Basis Set <=

  Basis Set: (AUG-CC-PVQZ AUX)
    Blend: AUG-CC-PVQZ-JKFIT
    Number of shells: 204
    Number of basis function: 848
    Number of Cartesian functions: 1148
    Spherical Harmonics?: true
    Max angular momentum: 5

  Minimum eigenvalue in the overlap matrix is 1.5904166277E-05.
  Using Symmetric Orthogonalization.

  SCF Guess: Superposition of Atomic Densities via on-the-fly atomic UHF.

  ==> Iterations <==

                           Total Energy        Delta E     RMS |[F,P]|

   @DF-RHF iter SAD:   -75.47891909957374   -7.54789e+01   0.00000e+00 
   @DF-RHF iter   1:   -75.98163992111770   -5.02721e-01   9.90776e-04 DIIS
   @DF-RHF iter   2:   -76.03415650959589   -5.25166e-02   6.73200e-04 DIIS
   @DF-RHF iter   3:   -76.06540144435907   -3.12449e-02   4.58485e-05 DIIS
   @DF-RHF iter   4:   -76.06579344185553   -3.91997e-04   1.12057e-05 DIIS
   @DF-RHF iter   5:   -76.06581833527625   -2.48934e-05   2.51391e-06 DIIS
   @DF-RHF iter   6:   -76.06582037765516   -2.04238e-06   5.74404e-07 DIIS
   @DF-RHF iter   7:   -76.06582049688754   -1.19232e-07   1.11966e-07 DIIS
   @DF-RHF iter   8:   -76.06582050091355   -4.02601e-09   1.79293e-08 DIIS
   @DF-RHF iter   9:   -76.06582050099756   -8.40146e-11   4.34314e-09 DIIS
  Energy and wave function converged.


  ==> Post-Iterations <==

    Orbital Energies [Eh]
    ---------------------

    Doubly Occupied:                                                      

       1A    -20.563117     2A     -1.349942     3A     -0.724752  
       4A     -0.577495     5A     -0.509317  

    Virtual:                                                              

       6A      0.015205     7A      0.031746     8A      0.038752  
       9A      0.041150    10A      0.049551    11A      0.068238  
      12A      0.083324    13A      0.092820    14A      0.094164  
      15A      0.098385    16A      0.104663    17A      0.113018  
      18A      0.139049    19A      0.143158    20A      0.147426  
      21A      0.162789    22A      0.173072    23A      0.180646  
      24A      0.199459    25A      0.209723    26A      0.214962  
      27A      0.222387    28A      0.227663    29A      0.233800  
      30A      0.248718    31A      0.252095    32A      0.254843  
      33A      0.263482    34A      0.270253    35A      0.273073  
      36A      0.278935    37A      0.291872    38A      0.298414  
      39A      0.304402    40A      0.313336    41A      0.328530  
      42A      0.329874    43A      0.348731    44A      0.360717  
      45A      0.376464    46A      0.378177    47A      0.395322  
      48A      0.401520    49A      0.411815    50A      0.425821  
      51A      0.436022    52A      0.452819    53A      0.473011  
      54A      0.479321    55A      0.503236    56A      0.513152  
      57A      0.520049    58A      0.526090    59A      0.547009  
      60A      0.551800    61A      0.555424    62A      0.560392  
      63A      0.564592    64A      0.577191    65A      0.610064  
      66A      0.631803    67A      0.650911    68A      0.658390  
      69A      0.660254    70A      0.666582    71A      0.682236  
      72A      0.687388    73A      0.694396    74A      0.709902  
      75A      0.719646    76A      0.723207    77A      0.731219  
      78A      0.739398    79A      0.752820    80A      0.766867  
      81A      0.773524    82A      0.779310    83A      0.790313  
      84A      0.794666    85A      0.801233    86A      0.813526  
      87A      0.836232    88A      0.845173    89A      0.853196  
      90A      0.861062    91A      0.868331    92A      0.875252  
      93A      0.883716    94A      0.889963    95A      0.899815  
      96A      0.902294    97A      0.922424    98A      0.943243  
      99A      0.969881   100A      0.981952   101A      0.987616  
     102A      0.992733   103A      1.005618   104A      1.011649  
     105A      1.026609   106A      1.043913   107A      1.052125  
     108A      1.063726   109A      1.071552   110A      1.082461  
     111A      1.088731   112A      1.103325   113A      1.127814  
     114A      1.144357   115A      1.151043   116A      1.157155  
     117A      1.163509   118A      1.189092   119A      1.191497  
     120A      1.214038   121A      1.233704   122A      1.311809  
     123A      1.312238   124A      1.341069   125A      1.372160  
     126A      1.415672   127A      1.432007   128A      1.444729  
     129A      1.471869   130A      1.498156   131A      1.504345  
     132A      1.513186   133A      1.529665   134A      1.532343  
     135A      1.558591   136A      1.575752   137A      1.586568  
     138A      1.594251   139A      1.603943   140A      1.619573  
     141A      1.627079   142A      1.632309   143A      1.650189  
     144A      1.665015   145A      1.667758   146A      1.688265  
     147A      1.692440   148A      1.697302   149A      1.712567  
     150A      1.716427   151A      1.744569   152A      1.753653  
     153A      1.774307   154A      1.786159   155A      1.796953  
     156A      1.804910   157A      1.829135   158A      1.846164  
     159A      1.851302   160A      1.875096   161A      1.882260  
     162A      1.885784   163A      1.898096   164A      1.902083  
     165A      1.910101   166A      1.921048   167A      1.935524  
     168A      1.940545   169A      1.950766   170A      1.957639  
     171A      1.982448   172A      2.017865   173A      2.023178  
     174A      2.031134   175A      2.036692   176A      2.050338  
     177A      2.052773   178A      2.059615   179A      2.064994  
     180A      2.084719   181A      2.104643   182A      2.114416  
     183A      2.122589   184A      2.150113   185A      2.159750  
     186A      2.173687   187A      2.191672   188A      2.198059  
     189A      2.209428   190A      2.227502   191A      2.235123  
     192A      2.244159   193A      2.267452   194A      2.271359  
     195A      2.302695   196A      2.311883   197A      2.339367  
     198A      2.385546   199A      2.391535   200A      2.447385  
     201A      2.475634   202A      2.488002   203A      2.499269  
     204A      2.517964   205A      2.522686   206A      2.528963  
     207A      2.531845   208A      2.568197   209A      2.586342  
     210A      2.623900   211A      2.647799   212A      2.669176  
     213A      2.692506   214A      2.725849   215A      2.753703  
     216A      2.787736   217A      2.797784   218A      2.803491  
     219A      2.809410   220A      2.857661   221A      2.892334  
     222A      2.916095   223A      2.925610   224A      2.959004  
     225A      2.971967   226A      2.992984   227A      3.005809  
     228A      3.006913   229A      3.018562   230A      3.039219  
     231A      3.046987   232A      3.082253   233A      3.089072  
     234A      3.106760   235A      3.179983   236A      3.186439  
     237A      3.205748   238A      3.256286   239A      3.260396  
     240A      3.262214   241A      3.266741   242A      3.314184  
     243A      3.330467   244A      3.361677   245A      3.368471  
     246A      3.378874   247A      3.388080   248A      3.412519  
     249A      3.476920   250A      3.478205   251A      3.479391  
     252A      3.563899   253A      3.610791   254A      3.627516  
     255A      3.632252   256A      3.666629   257A      3.698537  
     258A      3.756365   259A      3.760707   260A      3.767839  
     261A      3.779281   262A      3.811845   263A      3.816994  
     264A      3.896766   265A      3.899724   266A      3.929904  
     267A      3.956216   268A      4.048763   269A      4.088981  
     270A      4.104375   271A      4.109768   272A      4.161898  
     273A      4.181572   274A      4.184112   275A      4.205838  
     276A      4.214943   277A      4.225621   278A      4.233589  
     279A      4.275838   280A      4.370231   281A      4.407151  
     282A      4.424809   283A      4.433574   284A      4.476336  
     285A      4.571198   286A      4.590009   287A      4.666340  
     288A      4.704787   289A      4.710173   290A      4.775164  
     291A      4.811903   292A      4.813388   293A      4.839713  
     294A      4.848962   295A      4.877064   296A      4.911577  
     297A      4.936992   298A      4.941564   299A      5.023663  
     300A      5.126073   301A      5.136293   302A      5.226735  
     303A      5.294286   304A      5.351435   305A      5.415311  
     306A      5.432002   307A      5.441272   308A      5.459162  
     309A      5.480949   310A      5.527369   311A      5.558979  
     312A      5.567886   313A      5.631420   314A      5.782687  
     315A      5.786198   316A      5.827422   317A      5.842227  
     318A      5.883506   319A      5.888793   320A      5.997045  
     321A      6.097570   322A      6.248243   323A      6.298251  
     324A      6.337233   325A      6.352299   326A      6.426693  
     327A      6.437793   328A      6.498871   329A      6.545039  
     330A      6.750227   331A      6.754348   332A      6.797614  
     333A      6.838553   334A      6.859768   335A      6.864807  
     336A      6.904035   337A      6.936093   338A      6.940491  
     339A      6.968381   340A      7.004269   341A      7.120436  
     342A      7.125458   343A      7.206496   344A      7.209135  
     345A      7.278501   346A      7.345270   347A      7.362403  
     348A      7.370167   349A      7.617984   350A      7.623396  
     351A      7.631002   352A      7.644864   353A      7.652242  
     354A      7.724101   355A      7.731358   356A      7.789303  
     357A      7.831630   358A      7.833170   359A      7.853810  
     360A      7.860306   361A      7.871491   362A      7.878303  
     363A      7.900613   364A      7.903456   365A      7.926862  
     366A      7.957646   367A      7.970435   368A      8.011133  
     369A      8.027919   370A      8.128959   371A      8.138248  
     372A      8.198359   373A      8.317238   374A      8.321854  
     375A      8.323092   376A      8.357330   377A      8.492952  
     378A      8.535835   379A      8.537517   380A      8.549151  
     381A      8.594427   382A      8.723723   383A      8.764300  
     384A      8.808409   385A      8.828979   386A      8.839021  
     387A      8.861421   388A      8.867484   389A      8.877557  
     390A      8.895495   391A      8.984667   392A      9.078337  
     393A      9.159581   394A      9.188187   395A      9.294935  
     396A      9.300055   397A      9.375194   398A      9.513819  
     399A      9.514881   400A      9.537345   401A      9.576233  
     402A      9.684174   403A      9.687647   404A      9.760298  
     405A      9.763197   406A      9.829028   407A      9.831855  
     408A      9.857300   409A      9.866628   410A      9.970146  
     411A      9.985469   412A     10.013906   413A     10.030620  
     414A     10.037212   415A     10.285168   416A     10.292171  
     417A     10.446181   418A     10.485767   419A     10.504768  
     420A     10.589074   421A     10.595293   422A     10.697767  
     423A     10.718788   424A     10.738157   425A     10.747905  
     426A     10.753561   427A     10.903679   428A     10.997053  
     429A     11.041694   430A     11.108672   431A     11.168877  
     432A     11.170970   433A     11.267682   434A     11.321270  
     435A     11.327925   436A     11.372777   437A     11.447253  
     438A     11.700707   439A     11.807561   440A     11.841558  
     441A     12.005046   442A     12.025496   443A     12.094286  
     444A     12.102329   445A     12.178651   446A     12.232176  
     447A     12.318927   448A     12.542834   449A     12.741057  
     450A     12.875178   451A     12.897733   452A     13.106489  
     453A     13.112005   454A     13.215757   455A     13.525227  
     456A     13.998566   457A     14.074872   458A     14.488057  
     459A     14.774784   460A     14.845659   461A     14.882665  
     462A     15.308941   463A     16.444432   464A     16.943837  
     465A     17.259093   466A     17.267268   467A     17.281043  
     468A     31.094833   469A     31.098936   470A     31.341680  
     471A     42.837743   472A     45.548374   473A     71.574890  
     474A    160.358842  

    Final Occupation by Irrep:
              A 
    DOCC [     5 ]

  @DF-RHF Final Energy:   -76.06582050099756

   => Energetics <=

    Nuclear Repulsion Energy =              9.1814286517858434
    One-Electron Energy =                -123.0452473898820500
    Two-Electron Energy =                  37.7979982370986392
    Total Energy =                        -76.0658205009975603

Computation Completed


Properties will be evaluated at   0.000000,   0.000000,   0.000000 [a0]

Properties computed using the SCF density matrix

  Nuclear Dipole Moment: [e a0]
     X:    50.4539      Y:   -40.4015      Z:    23.6556

  Electronic Dipole Moment: [e a0]
     X:   -51.2066      Y:    40.3889      Z:   -23.6094

  Dipole Moment: [e a0]
     X:    -0.7527      Y:    -0.0126      Z:     0.0462     Total:     0.7542

  Dipole Moment: [D]
     X:    -1.9132      Y:    -0.0319      Z:     0.1175     Total:     1.9171


*** tstop() called on node37.bme.utexas.edu at Tue Feb 22 17:55:19 2022
Module time:
	user time   =      70.80 seconds =       1.18 minutes
	system time =       4.13 seconds =       0.07 minutes
	total time  =         26 seconds =       0.43 minutes
Total time:
	user time   =     121.79 seconds =       2.03 minutes
	system time =       7.45 seconds =       0.12 minutes
	total time  =         49 seconds =       0.82 minutes

*** tstart() called on node37.bme.utexas.edu
*** at Tue Feb 22 17:55:19 2022


  //>>>>>>>>>>>>>>>>>>>>>>>>>>>>>>>>>>>//
  //               DFMP2               //
  //<<<<<<<<<<<<<<<<<<<<<<<<<<<<<<<<<<<//

   => Loading Basis Set <=

    Name: (AUG-CC-PVQZ AUX)
    Role: RIFIT
    Keyword: DF_BASIS_MP2
    atoms 1        entry CL         line   914 file /home/bdw2292/miniconda3/envs/amoebamdpoltype/share/psi4/basis/aug-cc-pvqz-ri.gbs 
    atoms 2        entry C          line   184 file /home/bdw2292/miniconda3/envs/amoebamdpoltype/share/psi4/basis/aug-cc-pvqz-ri.gbs 
    atoms 3-5, 7-8 entry H          line    30 file /home/bdw2292/miniconda3/envs/amoebamdpoltype/share/psi4/basis/aug-cc-pvqz-ri.gbs 
    atoms 6        entry O          line   332 file /home/bdw2292/miniconda3/envs/amoebamdpoltype/share/psi4/basis/aug-cc-pvqz-ri.gbs 

	 --------------------------------------------------------
	                          DF-MP2                         
	      2nd-Order Density-Fitted Moller-Plesset Theory     
	              RMP2 Wavefunction,   4 Threads             
	                                                         
	        Rob Parrish, Justin Turney, Andy Simmonett,      
	           Ed Hohenstein, and C. David Sherrill          
	 --------------------------------------------------------

   => Auxiliary Basis Set <=

  Basis Set: (AUG-CC-PVQZ AUX)
    Blend: AUG-CC-PVQZ-RI
    Number of shells: 216
    Number of basis function: 930
    Number of Cartesian functions: 1267
    Spherical Harmonics?: true
    Max angular momentum: 5

	 --------------------------------------------------------
	                 NBF =   474, NAUX =   930
	 --------------------------------------------------------
	   CLASS    FOCC     OCC    AOCC    AVIR     VIR    FVIR
	   PAIRS       1       5       4     469     469       0
	 --------------------------------------------------------

	-----------------------------------------------------------
	 ==================> DF-MP2 Energies <==================== 
	-----------------------------------------------------------
	 Reference Energy          =     -76.0658205009975603 [Eh]
	 Singles Energy            =      -0.0000000000000000 [Eh]
	 Same-Spin Energy          =      -0.0671695213168378 [Eh]
	 Opposite-Spin Energy      =      -0.2185441711676336 [Eh]
	 Correlation Energy        =      -0.2857136924844715 [Eh]
	 Total Energy              =     -76.3515341934820384 [Eh]
	-----------------------------------------------------------
	 ================> DF-SCS-MP2 Energies <================== 
	-----------------------------------------------------------
	 SCS Same-Spin Scale       =       0.3333333333333333 [-]
	 SCS Opposite-Spin Scale   =       1.2000000000000000 [-]
	 SCS Same-Spin Energy      =      -0.0223898404389459 [Eh]
	 SCS Opposite-Spin Energy  =      -0.2622530054011604 [Eh]
	 SCS Correlation Energy    =      -0.2846428458401063 [Eh]
	 SCS Total Energy          =     -76.3504633468376710 [Eh]
	-----------------------------------------------------------


*** tstop() called on node37.bme.utexas.edu at Tue Feb 22 17:55:33 2022
Module time:
	user time   =      32.80 seconds =       0.55 minutes
	system time =       2.74 seconds =       0.05 minutes
	total time  =         14 seconds =       0.23 minutes
Total time:
	user time   =     154.59 seconds =       2.58 minutes
	system time =      10.19 seconds =       0.17 minutes
	total time  =         63 seconds =       1.05 minutes

  //>>>>>>>>>>>>>>>>>>>>>>>>>>>>>>>>>>>//
  //  CBS Results: mp2/aug-cc-pV[TQ]Z  //
  //<<<<<<<<<<<<<<<<<<<<<<<<<<<<<<<<<<<//


   ==> HF <==

   HI-zeta (4) Energy:               -76.065820500998


   ==> Helgaker 2-point correlated extrapolation for method: MP2 <==

   LO-zeta (3) Energy:               -76.328558795763
   HI-zeta (4) Energy:               -76.351534193482
   Alpha (exponent) Value:             3.000000000000
   Extrapolated Energy:              -76.368300024250

   @Extrapolated MP2/(T,Q):          -76.368300024250



   ==> Helgaker 2-point correlated extrapolation for method: HF <==

   LO-zeta (3) Energy:               -76.060440416527
   HI-zeta (4) Energy:               -76.065820500998
   Alpha (exponent) Value:             3.000000000000
   Extrapolated Energy:              -76.069746508584

   @Extrapolated HF/(T,Q):           -76.069746508584


   ==> Components <==

  ---------------------------------------------------------------------------------------------------------
                          Method / Basis                      Rqd      Energy [Eh]   Variable
  ---------------------------------------------------------------------------------------------------------
                              hf / aug-cc-pvtz                  *     -76.06044042   HF TOTAL ENERGY
                             mp2 / aug-cc-pvtz                  *     -76.32855880   MP2 TOTAL ENERGY
                              hf / aug-cc-pvqz                  *     -76.06582050   HF TOTAL ENERGY
                             mp2 / aug-cc-pvqz                  *     -76.35153419   MP2 TOTAL ENERGY
  ---------------------------------------------------------------------------------------------------------

   ==> Stages <==

  ---------------------------------------------------------------------------------------------------------
      Stage               Method / Basis                       Wt      Energy [Eh]   Scheme
  ---------------------------------------------------------------------------------------------------------
        scf                   hf / aug-cc-pvqz                  1     -76.06582050   xtpl_highest_1
       corl                  mp2 / aug-cc-pv[tq]z               1     -76.36830002   corl_xtpl_helgaker_2
       corl                   hf / aug-cc-pv[tq]z              -1     -76.06974651   corl_xtpl_helgaker_2
  ---------------------------------------------------------------------------------------------------------

   ==> CBS <==

  ---------------------------------------------------------------------------------------------------------
      Stage               Method / Basis                               Energy [Eh]   Scheme
  ---------------------------------------------------------------------------------------------------------
        scf                   hf / aug-cc-pvqz                        -76.06582050   xtpl_highest_1
       corl                  mp2 / aug-cc-pv[tq]z                      -0.29855352   corl_xtpl_helgaker_2
      total                  CBS                                      -76.36437402   
  ---------------------------------------------------------------------------------------------------------
   => Loading Basis Set <=

    Name: DEF2-SVP
    Role: ORBITAL
    Keyword: BASIS
    atoms 1        entry CL         line   356 file /home/bdw2292/miniconda3/envs/amoebamdpoltype/share/psi4/basis/def2-svp.gbs 
    atoms 2        entry C          line    90 file /home/bdw2292/miniconda3/envs/amoebamdpoltype/share/psi4/basis/def2-svp.gbs 
    atoms 3-5, 7-8 entry H          line    15 file /home/bdw2292/miniconda3/envs/amoebamdpoltype/share/psi4/basis/def2-svp.gbs 
    atoms 6        entry O          line   130 file /home/bdw2292/miniconda3/envs/amoebamdpoltype/share/psi4/basis/def2-svp.gbs 


       N-Body: Complex Energy (fragments = (2,), basis = (1, 2):   -76.36437401666328)

       N-Body: Computing complex (3/4) with fragments (1,) in the basis of fragments (1, 2).


  //>>>>>>>>>>>>>>>>>>>>>>>>>>>>>>>>>>>//
  //   CBS Setup: mp2/aug-cc-pV[TQ]Z   //
  //<<<<<<<<<<<<<<<<<<<<<<<<<<<<<<<<<<<//

    Naive listing of computations required.
             hf / aug-cc-pvqz              for  HF TOTAL ENERGY
            mp2 / aug-cc-pvtz              for  MP2 TOTAL ENERGY
            mp2 / aug-cc-pvqz              for  MP2 TOTAL ENERGY
             hf / aug-cc-pvtz              for  HF TOTAL ENERGY
             hf / aug-cc-pvqz              for  HF TOTAL ENERGY

    Enlightened listing of computations required.
            mp2 / aug-cc-pvtz              for  MP2 TOTAL ENERGY
            mp2 / aug-cc-pvqz              for  MP2 TOTAL ENERGY

    Full listing of computations to be obtained (required and bonus).
             hf / aug-cc-pvtz              for  HF TOTAL ENERGY
            mp2 / aug-cc-pvtz              for  MP2 TOTAL ENERGY
             hf / aug-cc-pvqz              for  HF TOTAL ENERGY
            mp2 / aug-cc-pvqz              for  MP2 TOTAL ENERGY

  //>>>>>>>>>>>>>>>>>>>>>>>>>>>>>>>>>>>>//
  // CBS Computation: MP2 / AUG-CC-PVTZ //
  //<<<<<<<<<<<<<<<<<<<<<<<<<<<<<<<<<<<<//

    SCF Algorithm Type (re)set to DF.

*** tstart() called on node37.bme.utexas.edu
*** at Tue Feb 22 17:55:34 2022

   => Loading Basis Set <=

    Name: AUG-CC-PVTZ
    Role: ORBITAL
    Keyword: BASIS
    atoms 1        entry CL         line   984 file /home/bdw2292/miniconda3/envs/amoebamdpoltype/share/psi4/basis/aug-cc-pvtz.gbs 
    atoms 2        entry C          line   235 file /home/bdw2292/miniconda3/envs/amoebamdpoltype/share/psi4/basis/aug-cc-pvtz.gbs 
    atoms 3-5, 7-8 entry H          line    36 file /home/bdw2292/miniconda3/envs/amoebamdpoltype/share/psi4/basis/aug-cc-pvtz.gbs 
    atoms 6        entry O          line   327 file /home/bdw2292/miniconda3/envs/amoebamdpoltype/share/psi4/basis/aug-cc-pvtz.gbs 


         ---------------------------------------------------------
                                   SCF
               by Justin Turney, Rob Parrish, Andy Simmonett
                          and Daniel G. A. Smith
                              RHF Reference
                        4 Threads,  14305 MiB Core
         ---------------------------------------------------------

  ==> Geometry <==

    Molecular point group: c1
    Full point group: C1

    Geometry (in Angstrom), charge = 0, multiplicity = 1:

       Center              X                  Y                   Z               Mass       
    ------------   -----------------  -----------------  -----------------  -----------------
         CL          -0.499531642812     1.015449756064    -0.587655349988    34.968852682000
         C           -2.035869742812     0.230309556064    -0.147110549988    12.000000000000
         H           -2.182706842812    -0.641064043936    -0.785663949988     1.007825032230
         H           -1.985223342812    -0.080405243936     0.896658650012     1.007825032230
         H           -2.853029142812     0.938242756064    -0.285984449988     1.007825032230
      Gh(O)           2.781837757188    -2.136131443936     1.244955750012    15.994914619570
      Gh(H)           2.260192557188    -2.801580343936     1.692120050012     1.007825032230
[...]
      28A      0.109690    29A      0.115543    30A      0.123251  
      31A      0.145559    32A      0.146828    33A      0.158989  
      34A      0.163647    35A      0.167329    36A      0.182833  
      37A      0.195972    38A      0.204736    39A      0.214652  
      40A      0.217803    41A      0.227428    42A      0.237983  
      43A      0.244352    44A      0.247305    45A      0.254530  
      46A      0.265230    47A      0.270115    48A      0.275690  
      49A      0.283386    50A      0.290658    51A      0.301582  
      52A      0.314182    53A      0.325489    54A      0.331978  
      55A      0.336805    56A      0.337919    57A      0.361191  
      58A      0.367543    59A      0.372185    60A      0.378565  
      61A      0.387587    62A      0.394612    63A      0.399884  
      64A      0.412744    65A      0.432454    66A      0.475838  
      67A      0.498977    68A      0.514455    69A      0.522269  
      70A      0.544068    71A      0.551012    72A      0.559010  
      73A      0.560998    74A      0.563424    75A      0.570514  
      76A      0.576925    77A      0.592700    78A      0.606226  
      79A      0.608927    80A      0.621515    81A      0.632983  
      82A      0.651134    83A      0.658935    84A      0.663955  
      85A      0.673817    86A      0.678683    87A      0.682205  
      88A      0.689922    89A      0.696853    90A      0.700594  
      91A      0.710970    92A      0.725290    93A      0.733844  
      94A      0.740731    95A      0.744514    96A      0.748414  
      97A      0.752119    98A      0.766028    99A      0.768150  
     100A      0.778121   101A      0.793375   102A      0.800120  
     103A      0.802238   104A      0.829683   105A      0.837871  
     106A      0.844453   107A      0.852822   108A      0.859443  
     109A      0.866061   110A      0.883568   111A      0.890738  
     112A      0.910470   113A      0.917219   114A      0.922021  
     115A      0.954950   116A      0.974895   117A      0.980754  
     118A      0.987160   119A      0.988837   120A      1.041666  
     121A      1.056101   122A      1.070357   123A      1.083735  
     124A      1.115026   125A      1.140427   126A      1.148884  
     127A      1.160938   128A      1.165423   129A      1.170532  
     130A      1.172363   131A      1.194857   132A      1.197231  
     133A      1.228914   134A      1.239522   135A      1.241257  
     136A      1.253383   137A      1.286874   138A      1.301282  
     139A      1.309486   140A      1.368205   141A      1.393162  
     142A      1.430529   143A      1.434223   144A      1.444810  
     145A      1.488151   146A      1.489185   147A      1.503887  
     148A      1.513543   149A      1.517774   150A      1.564891  
     151A      1.579487   152A      1.609669   153A      1.619291  
     154A      1.633304   155A      1.644530   156A      1.660485  
     157A      1.664779   158A      1.666662   159A      1.673527  
     160A      1.688895   161A      1.693183   162A      1.708598  
     163A      1.737157   164A      1.743577   165A      1.749985  
     166A      1.757674   167A      1.764618   168A      1.777783  
     169A      1.782755   170A      1.783696   171A      1.799666  
     172A      1.813313   173A      1.839685   174A      1.846893  
     175A      1.853656   176A      1.870228   177A      1.877999  
     178A      1.883811   179A      1.888896   180A      1.906891  
     181A      1.909791   182A      1.918761   183A      1.931411  
     184A      1.953701   185A      1.959739   186A      1.963669  
     187A      1.976434   188A      1.980508   189A      1.985292  
     190A      1.995778   191A      2.003959   192A      2.011485  
     193A      2.019007   194A      2.029118   195A      2.040819  
     196A      2.049117   197A      2.067539   198A      2.074548  
     199A      2.086984   200A      2.093761   201A      2.117034  
     202A      2.117764   203A      2.127412   204A      2.145190  
     205A      2.165310   206A      2.200932   207A      2.211400  
     208A      2.216947   209A      2.231279   210A      2.233255  
     211A      2.249925   212A      2.262806   213A      2.269971  
     214A      2.284212   215A      2.290978   216A      2.302866  
     217A      2.321539   218A      2.328167   219A      2.361313  
     220A      2.383523   221A      2.391100   222A      2.424902  
     223A      2.433052   224A      2.458865   225A      2.506781  
     226A      2.521453   227A      2.530398   228A      2.645458  
     229A      2.648755   230A      2.653124   231A      2.654419  
     232A      2.663819   233A      2.674285   234A      2.753712  
     235A      2.758262   236A      2.767851   237A      2.780866  
     238A      2.829019   239A      2.849564   240A      2.885277  
     241A      2.896923   242A      2.953353   243A      2.954459  
     244A      2.977332   245A      3.010674   246A      3.013614  
     247A      3.023136   248A      3.048186   249A      3.081616  
     250A      3.084008   251A      3.091026   252A      3.098476  
     253A      3.132531   254A      3.198031   255A      3.263147  
     256A      3.263752   257A      3.277498   258A      3.317530  
     259A      3.324459   260A      3.338890   261A      3.426110  
     262A      3.434561   263A      3.557010   264A      3.577822  
     265A      3.585016   266A      3.611711   267A      3.617578  
     268A      3.657789   269A      3.670583   270A      3.703368  
     271A      3.759306   272A      3.773807   273A      3.783313  
     274A      3.808666   275A      3.822161   276A      3.833914  
     277A      3.859051   278A      3.866103   279A      3.905601  
     280A      3.934632   281A      4.039065   282A      4.075347  
     283A      4.082971   284A      4.096647   285A      4.139178  
     286A      4.145920   287A      4.166376   288A      4.168702  
     289A      4.186043   290A      4.190300   291A      4.217331  
     292A      4.239327   293A      4.245996   294A      4.280620  
     295A      4.377151   296A      4.393986   297A      4.415568  
     298A      4.466446   299A      4.495030   300A      4.505248  
     301A      4.525719   302A      4.577724   303A      4.645570  
     304A      4.653751   305A      4.671595   306A      4.696156  
     307A      4.700393   308A      4.746481   309A      4.755656  
     310A      4.769654   311A      4.775878   312A      4.778792  
     313A      4.808192   314A      4.815556   315A      4.826848  
     316A      4.844636   317A      4.846834   318A      4.863215  
     319A      4.867063   320A      4.875962   321A      4.884683  
     322A      4.968838   323A      5.009704   324A      5.014667  
     325A      5.028969   326A      5.054242   327A      5.102927  
     328A      5.178148   329A      5.181183   330A      5.299444  
     331A      5.363935   332A      5.374207   333A      5.394316  
     334A      5.531980   335A      5.556767   336A      5.567325  
     337A      5.887699   338A      5.895586   339A      6.100590  
     340A      6.111695   341A      6.117515   342A      6.200559  
     343A      6.254845   344A      6.259385   345A      6.367802  
     346A      6.372751   347A      6.425946   348A      6.604267  
     349A      6.610494   350A      6.693318   351A      6.695959  
     352A      6.729925   353A      6.794312   354A      6.811058  
     355A      6.813206   356A      6.843778   357A      6.864320  
     358A      6.869610   359A      6.945368   360A      6.949215  
     361A      6.956737   362A      6.963261   363A      6.966201  
     364A      6.975539   365A      7.077011   366A      7.079795  
     367A      7.144245   368A      7.302021   369A      7.323837  
     370A      7.332876   371A      7.427266   372A      7.571667  
     373A      7.592509   374A      7.596458   375A      7.686340  
     376A      7.689738   377A      7.735192   378A      7.782740  
     379A      7.793877   380A      7.837225   381A      7.859205  
     382A      7.873052   383A      7.883473   384A      7.884314  
     385A      7.921246   386A      7.931122   387A      7.964412  
     388A      8.032459   389A      8.203136   390A      8.271547  
     391A      8.277275   392A      8.361427   393A      8.389647  
     394A      8.405142   395A      8.411124   396A      8.509322  
     397A      8.553291   398A      8.594584   399A      8.596413  
     400A      8.601328   401A      8.728240   402A      8.769125  
     403A      8.813050   404A      8.861503   405A      8.865290  
     406A      8.882103   407A      8.932140   408A      8.989555  
     409A      9.011367   410A      9.083159   411A      9.157808  
     412A      9.164339   413A      9.171576   414A      9.206438  
     415A      9.223844   416A      9.409354   417A      9.413988  
     418A      9.541994   419A      9.559956   420A      9.563729  
     421A      9.565422   422A      9.671682   423A      9.676435  
     424A      9.863354   425A      9.940974   426A      9.971459  
     427A      9.979008   428A      9.991895   429A     10.018691  
     430A     10.128988   431A     10.131519   432A     10.333624  
     433A     10.335722   434A     10.376232   435A     10.450893  
     436A     10.509521   437A     10.707178   438A     10.784993  
     439A     10.792092   440A     10.846835   441A     10.961920  
     442A     10.966478   443A     11.001719   444A     11.046264  
     445A     11.116120   446A     11.272212   447A     11.377110  
     448A     11.435540   449A     11.452157   450A     11.705229  
     451A     11.811975   452A     11.845997   453A     12.030522  
     454A     12.182912   455A     12.236063   456A     12.547031  
     457A     12.745619   458A     12.879912   459A     12.902163  
     460A     13.118416   461A     13.124915   462A     13.220295  
     463A     13.314198   464A     14.003279   465A     14.079218  
     466A     14.492674   467A     14.850253   468A     14.887310  
     469A     15.313542   470A     16.948440   471A     17.278742  
     472A     26.260803   473A     28.610956   474A     45.552813  

    Final Occupation by Irrep:
              A 
    DOCC [    18 ]

  @DF-RHF Final Energy:  -575.22102619175951

   => Energetics <=

    Nuclear Repulsion Energy =             87.8228959276551109
    One-Electron Energy =                -967.6812136916179270
    Two-Electron Energy =                 304.6372915722031962
    Total Energy =                       -575.2210261917596199

Computation Completed


Properties will be evaluated at   0.000000,   0.000000,   0.000000 [a0]

Properties computed using the SCF density matrix

  Nuclear Dipole Moment: [e a0]
     X:    -1.9448      Y:    -4.7588      Z:     2.7783

  Electronic Dipole Moment: [e a0]
     X:     0.4459      Y:     4.4171      Z:    -2.5495

  Dipole Moment: [e a0]
     X:    -1.4990      Y:    -0.3417      Z:     0.2287     Total:     1.5544

  Dipole Moment: [D]
     X:    -3.8100      Y:    -0.8685      Z:     0.5814     Total:     3.9508


*** tstop() called on node37.bme.utexas.edu at Tue Feb 22 17:57:40 2022
Module time:
	user time   =      78.55 seconds =       1.31 minutes
	system time =       4.89 seconds =       0.08 minutes
	total time  =         33 seconds =       0.55 minutes
Total time:
	user time   =     466.83 seconds =       7.78 minutes
	system time =      28.77 seconds =       0.48 minutes
	total time  =        190 seconds =       3.17 minutes

*** tstart() called on node37.bme.utexas.edu
*** at Tue Feb 22 17:57:40 2022


  //>>>>>>>>>>>>>>>>>>>>>>>>>>>>>>>>>>>//
  //               DFMP2               //
  //<<<<<<<<<<<<<<<<<<<<<<<<<<<<<<<<<<<//

   => Loading Basis Set <=

    Name: (AUG-CC-PVQZ AUX)
    Role: RIFIT
    Keyword: DF_BASIS_MP2
    atoms 1        entry CL         line   914 file /home/bdw2292/miniconda3/envs/amoebamdpoltype/share/psi4/basis/aug-cc-pvqz-ri.gbs 
    atoms 2        entry C          line   184 file /home/bdw2292/miniconda3/envs/amoebamdpoltype/share/psi4/basis/aug-cc-pvqz-ri.gbs 
    atoms 3-5, 7-8 entry H          line    30 file /home/bdw2292/miniconda3/envs/amoebamdpoltype/share/psi4/basis/aug-cc-pvqz-ri.gbs 
    atoms 6        entry O          line   332 file /home/bdw2292/miniconda3/envs/amoebamdpoltype/share/psi4/basis/aug-cc-pvqz-ri.gbs 

	 --------------------------------------------------------
	                          DF-MP2                         
	      2nd-Order Density-Fitted Moller-Plesset Theory     
	              RMP2 Wavefunction,   4 Threads             
	                                                         
	        Rob Parrish, Justin Turney, Andy Simmonett,      
	           Ed Hohenstein, and C. David Sherrill          
	 --------------------------------------------------------

   => Auxiliary Basis Set <=

  Basis Set: (AUG-CC-PVQZ AUX)
    Blend: AUG-CC-PVQZ-RI
    Number of shells: 216
    Number of basis function: 930
    Number of Cartesian functions: 1267
    Spherical Harmonics?: true
    Max angular momentum: 5

	 --------------------------------------------------------
	                 NBF =   474, NAUX =   930
	 --------------------------------------------------------
	   CLASS    FOCC     OCC    AOCC    AVIR     VIR    FVIR
	   PAIRS       7      18      11     456     456       0
	 --------------------------------------------------------

	-----------------------------------------------------------
	 ==================> DF-MP2 Energies <==================== 
	-----------------------------------------------------------
	 Reference Energy          =    -575.2210261917595062 [Eh]
	 Singles Energy            =      -0.0000000000000000 [Eh]
	 Same-Spin Energy          =      -0.1555315513967613 [Eh]
	 Opposite-Spin Energy      =      -0.5376467611045778 [Eh]
	 Correlation Energy        =      -0.6931783125013390 [Eh]
	 Total Energy              =    -575.9142045042608515 [Eh]
	-----------------------------------------------------------
	 ================> DF-SCS-MP2 Energies <================== 
	-----------------------------------------------------------
	 SCS Same-Spin Scale       =       0.3333333333333333 [-]
	 SCS Opposite-Spin Scale   =       1.2000000000000000 [-]
	 SCS Same-Spin Energy      =      -0.0518438504655871 [Eh]
	 SCS Opposite-Spin Energy  =      -0.6451761133254933 [Eh]
	 SCS Correlation Energy    =      -0.6970199637910803 [Eh]
	 SCS Total Energy          =    -575.9180461555505417 [Eh]
	-----------------------------------------------------------


*** tstop() called on node37.bme.utexas.edu at Tue Feb 22 17:57:54 2022
Module time:
	user time   =      33.31 seconds =       0.56 minutes
	system time =       2.13 seconds =       0.04 minutes
	total time  =         14 seconds =       0.23 minutes
Total time:
	user time   =     500.14 seconds =       8.34 minutes
	system time =      30.90 seconds =       0.52 minutes
	total time  =        204 seconds =       3.40 minutes

  //>>>>>>>>>>>>>>>>>>>>>>>>>>>>>>>>>>>//
  //  CBS Results: mp2/aug-cc-pV[TQ]Z  //
  //<<<<<<<<<<<<<<<<<<<<<<<<<<<<<<<<<<<//


   ==> HF <==

   HI-zeta (4) Energy:               -575.221026191760


   ==> Helgaker 2-point correlated extrapolation for method: MP2 <==

   LO-zeta (3) Energy:               -575.858470573788
   HI-zeta (4) Energy:               -575.914204504261
   Alpha (exponent) Value:             3.000000000000
   Extrapolated Energy:              -575.954875210282

   @Extrapolated MP2/(T,Q):          -575.954875210282



   ==> Helgaker 2-point correlated extrapolation for method: HF <==

   LO-zeta (3) Energy:               -575.209576575732
   HI-zeta (4) Energy:               -575.221026191760
   Alpha (exponent) Value:             3.000000000000
   Extrapolated Energy:              -575.229381316969

   @Extrapolated HF/(T,Q):           -575.229381316969


   ==> Components <==

  ---------------------------------------------------------------------------------------------------------
                          Method / Basis                      Rqd      Energy [Eh]   Variable
  ---------------------------------------------------------------------------------------------------------
                              hf / aug-cc-pvtz                  *    -575.20957658   HF TOTAL ENERGY
                             mp2 / aug-cc-pvtz                  *    -575.85847057   MP2 TOTAL ENERGY
                              hf / aug-cc-pvqz                  *    -575.22102619   HF TOTAL ENERGY
                             mp2 / aug-cc-pvqz                  *    -575.91420450   MP2 TOTAL ENERGY
  ---------------------------------------------------------------------------------------------------------

   ==> Stages <==

  ---------------------------------------------------------------------------------------------------------
      Stage               Method / Basis                       Wt      Energy [Eh]   Scheme
  ---------------------------------------------------------------------------------------------------------
        scf                   hf / aug-cc-pvqz                  1    -575.22102619   xtpl_highest_1
       corl                  mp2 / aug-cc-pv[tq]z               1    -575.95487521   corl_xtpl_helgaker_2
       corl                   hf / aug-cc-pv[tq]z              -1    -575.22938132   corl_xtpl_helgaker_2
  ---------------------------------------------------------------------------------------------------------

   ==> CBS <==

  ---------------------------------------------------------------------------------------------------------
      Stage               Method / Basis                               Energy [Eh]   Scheme
  ---------------------------------------------------------------------------------------------------------
        scf                   hf / aug-cc-pvqz                       -575.22102619   xtpl_highest_1
       corl                  mp2 / aug-cc-pv[tq]z                      -0.72549389   corl_xtpl_helgaker_2
      total                  CBS                                     -575.94652009   
  ---------------------------------------------------------------------------------------------------------
   => Loading Basis Set <=

    Name: DEF2-SVP
    Role: ORBITAL
    Keyword: BASIS
    atoms 1        entry CL         line   356 file /home/bdw2292/miniconda3/envs/amoebamdpoltype/share/psi4/basis/def2-svp.gbs 
    atoms 2        entry C          line    90 file /home/bdw2292/miniconda3/envs/amoebamdpoltype/share/psi4/basis/def2-svp.gbs 
    atoms 3-5, 7-8 entry H          line    15 file /home/bdw2292/miniconda3/envs/amoebamdpoltype/share/psi4/basis/def2-svp.gbs 
    atoms 6        entry O          line   130 file /home/bdw2292/miniconda3/envs/amoebamdpoltype/share/psi4/basis/def2-svp.gbs 


       N-Body: Complex Energy (fragments = (1, 2), basis = (1, 2):  -575.94652008507239)

   ==> N-Body: Counterpoise Corrected (CP) energies <==

   n-Body     Total Energy [Eh]       I.E. [kcal/mol]      Delta [kcal/mol]
        1     -575.945672468665        0.000000000000        0.000000000000
        2     -575.946506617443       -0.523436260760       -0.523436260760

   => Loading Basis Set <=

    Name: DEF2-SVP
    Role: ORBITAL
    Keyword: BASIS
    atoms 1        entry CL         line   356 file /home/bdw2292/miniconda3/envs/amoebamdpoltype/share/psi4/basis/def2-svp.gbs 
    atoms 2        entry C          line    90 file /home/bdw2292/miniconda3/envs/amoebamdpoltype/share/psi4/basis/def2-svp.gbs 
    atoms 3-5, 7-8 entry H          line    15 file /home/bdw2292/miniconda3/envs/amoebamdpoltype/share/psi4/basis/def2-svp.gbs 
    atoms 6        entry O          line   130 file /home/bdw2292/miniconda3/envs/amoebamdpoltype/share/psi4/basis/def2-svp.gbs 

CP Energy =  -0.000834
    Psi4 stopped on: Tuesday, 22 February 2022 05:57PM
    Psi4 wall time for execution: 0:03:25.53

*** Psi4 exiting successfully. Buy a developer a beer!
