
    -----------------------------------------------------------------------
          Psi4: An Open-Source Ab Initio Electronic Structure Package
                               Psi4 1.3.2 release

                         Git: Rev {HEAD} ecbda83 


    R. M. Parrish, L. A. Burns, D. G. A. Smith, A. C. Simmonett,
    A. E. DePrince III, E. G. Hohenstein, U. Bozkaya, A. Yu. Sokolov,
    R. Di Remigio, R. M. Richard, J. F. Gonthier, A. M. James,
    H. R. McAlexander, A. Kumar, M. Saitow, X. Wang, B. P. Pritchard,
    P. Verma, H. F. Schaefer III, K. Patkowski, R. A. King, E. F. Valeev,
    F. A. Evangelista, J. M. Turney, T. D. Crawford, and C. D. Sherrill,
    J. Chem. Theory Comput. 13(7) pp 3185--3197 (2017).
    (doi: 10.1021/acs.jctc.7b00174)


                         Additional Contributions by
    P. Kraus, H. Kruse, M. H. Lechner, M. C. Schieber, R. A. Shaw,
    A. Alenaizan, R. Galvelis, Z. L. Glick, S. Lehtola, and J. P. Misiewicz

    -----------------------------------------------------------------------


    Psi4 started on: Tuesday, 22 February 2022 05:50PM

    Process ID: 26121
    Host:       node37.bme.utexas.edu
    PSIDATADIR: /home/bdw2292/miniconda3/envs/amoebamdpoltype/share/psi4
    Memory:     500.0 MiB
    Threads:    1
    
  ==> Input File <==

--------------------------------------------------------------------------
molecule { 
0 1
 Cl                  0.2237841     0.8067207    -0.4751478
  C                 -1.3125540     0.0215805    -0.0346030
  H                 -1.4593911    -0.8497931    -0.6731564
  H                 -1.2619076    -0.2891343     1.0091662
  H                 -2.1297134     0.7295137    -0.1734769
--
0 1
  O                  2.8020029    -1.6695217     0.9647610
  H                  2.2803577    -2.3349706     1.4119252
  H                  2.2043219    -1.0222940     0.5860241
}
memory 15GB
set_num_threads(4)
psi4_io.set_default_path("/scratch/bdw2292/Psi4-CH3Cl")
set maxiter 500
set freeze_core True
set PROPERTIES_ORIGIN ["COM"]
e_dim= energy('mp2/aug-cc-pV[TQ]Z',bsse_type='cp')

psi4.print_out('CP Energy = %10.6f' % (e_dim))
clean()
--------------------------------------------------------------------------

  Memory set to  13.970 GiB by Python driver.
  Threads set to 4 by Python driver.


   ===> N-Body Interaction Abacus <===
        BSSE Treatment:                     cp
        Number of 1-body computations:     4
        Number of 2-body computations:     1

   ==> N-Body: Now computing 1-body complexes <==


       N-Body: Computing complex (1/4) with fragments (2,) in the basis of fragments (2,).


  //>>>>>>>>>>>>>>>>>>>>>>>>>>>>>>>>>>>//
  //   CBS Setup: mp2/aug-cc-pV[TQ]Z   //
  //<<<<<<<<<<<<<<<<<<<<<<<<<<<<<<<<<<<//

    Naive listing of computations required.
             hf / aug-cc-pvqz              for  HF TOTAL ENERGY
            mp2 / aug-cc-pvtz              for  MP2 TOTAL ENERGY
            mp2 / aug-cc-pvqz              for  MP2 TOTAL ENERGY
             hf / aug-cc-pvtz              for  HF TOTAL ENERGY
             hf / aug-cc-pvqz              for  HF TOTAL ENERGY

    Enlightened listing of computations required.
            mp2 / aug-cc-pvtz              for  MP2 TOTAL ENERGY
            mp2 / aug-cc-pvqz              for  MP2 TOTAL ENERGY

    Full listing of computations to be obtained (required and bonus).
             hf / aug-cc-pvtz              for  HF TOTAL ENERGY
            mp2 / aug-cc-pvtz              for  MP2 TOTAL ENERGY
             hf / aug-cc-pvqz              for  HF TOTAL ENERGY
            mp2 / aug-cc-pvqz              for  MP2 TOTAL ENERGY

  //>>>>>>>>>>>>>>>>>>>>>>>>>>>>>>>>>>>>//
  // CBS Computation: MP2 / AUG-CC-PVTZ //
  //<<<<<<<<<<<<<<<<<<<<<<<<<<<<<<<<<<<<//

    SCF Algorithm Type (re)set to DF.

*** tstart() called on node37.bme.utexas.edu
*** at Tue Feb 22 17:50:53 2022

   => Loading Basis Set <=

    Name: AUG-CC-PVTZ
    Role: ORBITAL
    Keyword: BASIS
    atoms 1   entry O          line   327 file /home/bdw2292/miniconda3/envs/amoebamdpoltype/share/psi4/basis/aug-cc-pvtz.gbs 
    atoms 2-3 entry H          line    36 file /home/bdw2292/miniconda3/envs/amoebamdpoltype/share/psi4/basis/aug-cc-pvtz.gbs 


         ---------------------------------------------------------
                                   SCF
               by Justin Turney, Rob Parrish, Andy Simmonett
                          and Daniel G. A. Smith
                              RHF Reference
                        4 Threads,  14305 MiB Core
         ---------------------------------------------------------

  ==> Geometry <==

    Molecular point group: c1
    Full point group: C1

    Geometry (in Angstrom), charge = 0, multiplicity = 1:

       Center              X                  Y                   Z               Mass       
    ------------   -----------------  -----------------  -----------------  -----------------
         O            2.264916579280    -1.639656111365     0.956260649135    15.994914619570
         H            1.743271379280    -2.305105011365     1.403424849135     1.007825032230
         H            1.667235579280    -0.992428411365     0.577523749135     1.007825032230

  Running in c1 symmetry.

  Rotational constants: A =     18.66966  B =      0.10996  C =      0.10931 [cm^-1]
  Rotational constants: A = 559702.19757  B =   3296.45489  C =   3277.15687 [MHz]
  Nuclear repulsion =    9.181428686284528

  Charge       = 0
  Multiplicity = 1
  Electrons    = 10
  Nalpha       = 5
  Nbeta        = 5

  ==> Algorithm <==

  SCF Algorithm Type is DF.
  DIIS enabled.
  MOM disabled.
  Fractional occupation disabled.
  Guess Type is SAD.
  Energy threshold   = 1.00e-08
  Density threshold  = 1.00e-08
  Integral threshold = 0.00e+00

  ==> Primary Basis <==

  Basis Set: AUG-CC-PVTZ
    Blend: AUG-CC-PVTZ
    Number of shells: 32
    Number of basis function: 92
    Number of Cartesian functions: 105
    Spherical Harmonics?: true
    Max angular momentum: 3

   => Loading Basis Set <=

    Name: (AUG-CC-PVTZ AUX)
    Role: JKFIT
    Keyword: DF_BASIS_SCF
    atoms 1   entry O          line   286 file /home/bdw2292/miniconda3/envs/amoebamdpoltype/share/psi4/basis/aug-cc-pvtz-jkfit.gbs 
    atoms 2-3 entry H          line    70 file /home/bdw2292/miniconda3/envs/amoebamdpoltype/share/psi4/basis/aug-cc-pvtz-jkfit.gbs 

  ==> Pre-Iterations <==

   -------------------------------------------------------
    Irrep   Nso     Nmo     Nalpha   Nbeta   Ndocc  Nsocc
   -------------------------------------------------------
     A         92      92       0       0       0       0
   -------------------------------------------------------
    Total      92      92       5       5       5       0
   -------------------------------------------------------

  ==> Integral Setup <==

  DFHelper Memory: AOs need 0.015 GiB; user supplied 10.477 GiB. Using in-core AOs.

  ==> MemDFJK: Density-Fitted J/K Matrices <==

    J tasked:                   Yes
    K tasked:                   Yes
    wK tasked:                   No
    OpenMP threads:               4
    Memory [MiB]:             10728
    Algorithm:                 Core
    Schwarz Cutoff:           1E-12
    Mask sparsity (%):       0.0000
    Fitting Condition:        1E-10

   => Auxiliary Basis Set <=

  Basis Set: (AUG-CC-PVTZ AUX)
    Blend: AUG-CC-PVTZ-JKFIT
    Number of shells: 58
    Number of basis function: 196
    Number of Cartesian functions: 241
    Spherical Harmonics?: true
    Max angular momentum: 4

  Minimum eigenvalue in the overlap matrix is 3.7758855209E-04.
  Using Symmetric Orthogonalization.

  SCF Guess: Superposition of Atomic Densities via on-the-fly atomic UHF.

  ==> Iterations <==

                           Total Energy        Delta E     RMS |[F,P]|

   @DF-RHF iter SAD:   -75.47376344230925   -7.54738e+01   0.00000e+00 
   @DF-RHF iter   1:   -75.97655858528837   -5.02795e-01   5.09380e-03 DIIS
   @DF-RHF iter   2:   -76.02897021429187   -5.24116e-02   3.45292e-03 DIIS
   @DF-RHF iter   3:   -76.06001550462024   -3.10453e-02   2.34507e-04 DIIS
   @DF-RHF iter   4:   -76.06040543402949   -3.89929e-04   5.60163e-05 DIIS
   @DF-RHF iter   5:   -76.06042942778373   -2.39938e-05   1.26138e-05 DIIS
   @DF-RHF iter   6:   -76.06043138784334   -1.96006e-06   2.80686e-06 DIIS
   @DF-RHF iter   7:   -76.06043149580545   -1.07962e-07   5.30033e-07 DIIS
   @DF-RHF iter   8:   -76.06043149922046   -3.41501e-09   8.79596e-08 DIIS
   @DF-RHF iter   9:   -76.06043149929448   -7.40243e-11   2.18700e-08 DIIS
   @DF-RHF iter  10:   -76.06043149929843   -3.95062e-12   2.98565e-09 DIIS
  Energy and wave function converged.


  ==> Post-Iterations <==

    Orbital Energies [Eh]
    ---------------------

    Doubly Occupied:                                                      

       1A    -20.565573     2A     -1.350667     3A     -0.724786  
       4A     -0.577443     5A     -0.509189  

    Virtual:                                                              

       6A      0.029663     7A      0.047448     8A      0.136469  
       9A      0.157889    10A      0.174282    11A      0.182057  
      12A      0.228798    13A      0.244462    14A      0.263875  
      15A      0.304621    16A      0.313151    17A      0.365234  
      18A      0.437910    19A      0.466763    20A      0.602165  
      21A      0.654335    22A      0.711081    23A      0.719358  
      24A      0.731277    25A      0.828006    26A      0.843780  
      27A      0.890066    28A      0.912869    29A      0.920664  
      30A      0.923821    31A      0.927973    32A      0.971094  
      33A      1.022888    34A      1.045246    35A      1.085085  
      36A      1.113965    37A      1.172781    38A      1.177388  
      39A      1.259665    40A      1.514328    41A      1.563119  
      42A      1.595601    43A      1.785633    44A      1.797397  
      45A      2.002886    46A      2.115795    47A      2.259714  
      48A      2.318546    49A      2.321115    50A      2.413477  
      51A      2.414572    52A      2.438633    53A      2.471652  
      54A      2.686748    55A      2.703129    56A      2.767854  
      57A      2.856425    58A      2.883800    59A      3.645128  
      60A      3.769237    61A      4.007335    62A      4.089946  
      63A      4.210860    64A      4.231441    65A      4.335047  
      66A      4.381756    67A      4.400687    68A      4.415755  
      69A      4.493726    70A      4.707822    71A      4.812997  
      72A      5.124408    73A      5.171909    74A      5.304923  
      75A      5.329917    76A      5.513214    77A      5.720447  
      78A      6.140310    79A      6.534213    80A      6.713386  
      81A      6.859323    82A      7.146117    83A      7.262241  
      84A      7.299408    85A      7.308017    86A      7.370812  
      87A      7.386307    88A      7.557806    89A      7.897594  
      90A      7.962947    91A      8.788904    92A     15.853656  

    Final Occupation by Irrep:
              A 
    DOCC [     5 ]

  @DF-RHF Final Energy:   -76.06043149929843

   => Energetics <=

    Nuclear Repulsion Energy =              9.1814286862845282
    One-Electron Energy =                -123.0284052106596278
    Two-Electron Energy =                  37.7865450250766699
    Total Energy =                        -76.0604314992984314

Computation Completed


Properties will be evaluated at   4.161710,  -3.100428,   1.814307 [a0]

Properties computed using the SCF density matrix

  Nuclear Dipole Moment: [e a0]
     X:    -0.9316      Y:    -0.0152      Z:     0.0570

  Electronic Dipole Moment: [e a0]
     X:     0.1781      Y:     0.0026      Z:    -0.0107

  Dipole Moment: [e a0]
     X:    -0.7535      Y:    -0.0126      Z:     0.0463     Total:     0.7550

  Dipole Moment: [D]
     X:    -1.9152      Y:    -0.0320      Z:     0.1176     Total:     1.9191


*** tstop() called on node37.bme.utexas.edu at Tue Feb 22 17:50:57 2022
Module time:
	user time   =       5.97 seconds =       0.10 minutes
	system time =       0.53 seconds =       0.01 minutes
	total time  =          4 seconds =       0.07 minutes
Total time:
	user time   =       5.97 seconds =       0.10 minutes
	system time =       0.53 seconds =       0.01 minutes
	total time  =          4 seconds =       0.07 minutes

*** tstart() called on node37.bme.utexas.edu
*** at Tue Feb 22 17:50:57 2022


  //>>>>>>>>>>>>>>>>>>>>>>>>>>>>>>>>>>>//
  //               DFMP2               //
  //<<<<<<<<<<<<<<<<<<<<<<<<<<<<<<<<<<<//

   => Loading Basis Set <=

    Name: (AUG-CC-PVTZ AUX)
    Role: RIFIT
    Keyword: DF_BASIS_MP2
    atoms 1   entry O          line   264 file /home/bdw2292/miniconda3/envs/amoebamdpoltype/share/psi4/basis/aug-cc-pvtz-ri.gbs 
    atoms 2-3 entry H          line    30 file /home/bdw2292/miniconda3/envs/amoebamdpoltype/share/psi4/basis/aug-cc-pvtz-ri.gbs 

	 --------------------------------------------------------
	                          DF-MP2                         
	      2nd-Order Density-Fitted Moller-Plesset Theory     
	              RMP2 Wavefunction,   4 Threads             
	                                                         
	        Rob Parrish, Justin Turney, Andy Simmonett,      
	           Ed Hohenstein, and C. David Sherrill          
	 --------------------------------------------------------

   => Auxiliary Basis Set <=

  Basis Set: (AUG-CC-PVTZ AUX)
    Blend: AUG-CC-PVTZ-RI
    Number of shells: 56
    Number of basis function: 198
    Number of Cartesian functions: 246
    Spherical Harmonics?: true
    Max angular momentum: 4

	 --------------------------------------------------------
	                 NBF =    92, NAUX =   198
	 --------------------------------------------------------
	   CLASS    FOCC     OCC    AOCC    AVIR     VIR    FVIR
	   PAIRS       1       5       4      87      87       0
	 --------------------------------------------------------

	-----------------------------------------------------------
	 ==================> DF-MP2 Energies <==================== 
	-----------------------------------------------------------
	 Reference Energy          =     -76.0604314992984314 [Eh]
	 Singles Energy            =      -0.0000000000000000 [Eh]
	 Same-Spin Energy          =      -0.0650987975001154 [Eh]
	 Opposite-Spin Energy      =      -0.2029916146573724 [Eh]
	 Correlation Energy        =      -0.2680904121574879 [Eh]
	 Total Energy              =     -76.3285219114559226 [Eh]
	-----------------------------------------------------------
	 ================> DF-SCS-MP2 Energies <================== 
	-----------------------------------------------------------
	 SCS Same-Spin Scale       =       0.3333333333333333 [-]
	 SCS Opposite-Spin Scale   =       1.2000000000000000 [-]
	 SCS Same-Spin Energy      =      -0.0216995991667051 [Eh]
	 SCS Opposite-Spin Energy  =      -0.2435899375888469 [Eh]
	 SCS Correlation Energy    =      -0.2652895367555521 [Eh]
	 SCS Total Energy          =     -76.3257210360539773 [Eh]
	-----------------------------------------------------------


*** tstop() called on node37.bme.utexas.edu at Tue Feb 22 17:50:57 2022
Module time:
	user time   =       1.59 seconds =       0.03 minutes
	system time =       0.10 seconds =       0.00 minutes
	total time  =          0 seconds =       0.00 minutes
Total time:
	user time   =       7.56 seconds =       0.13 minutes
	system time =       0.63 seconds =       0.01 minutes
	total time  =          4 seconds =       0.07 minutes

  //>>>>>>>>>>>>>>>>>>>>>>>>>>>>>>>>>>>>//
  // CBS Computation: MP2 / AUG-CC-PVQZ //
  //<<<<<<<<<<<<<<<<<<<<<<<<<<<<<<<<<<<<//

    SCF Algorithm Type (re)set to DF.

*** tstart() called on node37.bme.utexas.edu
*** at Tue Feb 22 17:50:57 2022

   => Loading Basis Set <=

    Name: AUG-CC-PVQZ
    Role: ORBITAL
    Keyword: BASIS
    atoms 1   entry O          line   419 file /home/bdw2292/miniconda3/envs/amoebamdpoltype/share/psi4/basis/aug-cc-pvqz.gbs 
    atoms 2-3 entry H          line    36 file /home/bdw2292/miniconda3/envs/amoebamdpoltype/share/psi4/basis/aug-cc-pvqz.gbs 


         ---------------------------------------------------------
                                   SCF
               by Justin Turney, Rob Parrish, Andy Simmonett
                          and Daniel G. A. Smith
                              RHF Reference
                        4 Threads,  14305 MiB Core
         ---------------------------------------------------------

  ==> Geometry <==

    Molecular point group: c1
    Full point group: C1

    Geometry (in Angstrom), charge = 0, multiplicity = 1:

       Center              X                  Y                   Z               Mass       
    ------------   -----------------  -----------------  -----------------  -----------------
         O            2.264916579280    -1.639656111365     0.956260649135    15.994914619570
         H            1.743271379280    -2.305105011365     1.403424849135     1.007825032230
         H            1.667235579280    -0.992428411365     0.577523749135     1.007825032230

  Running in c1 symmetry.

  Rotational constants: A =     18.66966  B =      0.10996  C =      0.10931 [cm^-1]
  Rotational constants: A = 559702.19757  B =   3296.45489  C =   3277.15687 [MHz]
  Nuclear repulsion =    9.181428686284528

  Charge       = 0
  Multiplicity = 1
  Electrons    = 10
  Nalpha       = 5
  Nbeta        = 5

  ==> Algorithm <==

  SCF Algorithm Type is DF.
  DIIS enabled.
  MOM disabled.
  Fractional occupation disabled.
  Guess Type is SAD.
  Energy threshold   = 1.00e-08
  Density threshold  = 1.00e-08
  Integral threshold = 0.00e+00

  ==> Primary Basis <==

  Basis Set: AUG-CC-PVQZ
    Blend: AUG-CC-PVQZ
    Number of shells: 48
    Number of basis function: 172
    Number of Cartesian functions: 215
    Spherical Harmonics?: true
    Max angular momentum: 4

   => Loading Basis Set <=

    Name: (AUG-CC-PVQZ AUX)
    Role: JKFIT
    Keyword: DF_BASIS_SCF
    atoms 1   entry O          line   318 file /home/bdw2292/miniconda3/envs/amoebamdpoltype/share/psi4/basis/aug-cc-pvqz-jkfit.gbs 
    atoms 2-3 entry H          line    70 file /home/bdw2292/miniconda3/envs/amoebamdpoltype/share/psi4/basis/aug-cc-pvqz-jkfit.gbs 

  ==> Pre-Iterations <==

   -------------------------------------------------------
    Irrep   Nso     Nmo     Nalpha   Nbeta   Ndocc  Nsocc
   -------------------------------------------------------
     A        172     172       0       0       0       0
   -------------------------------------------------------
    Total     172     172       5       5       5       0
   -------------------------------------------------------

  ==> Integral Setup <==

  DFHelper Memory: AOs need 0.074 GiB; user supplied 10.477 GiB. Using in-core AOs.

  ==> MemDFJK: Density-Fitted J/K Matrices <==

    J tasked:                   Yes
    K tasked:                   Yes
    wK tasked:                   No
    OpenMP threads:               4
    Memory [MiB]:             10728
    Algorithm:                 Core
    Schwarz Cutoff:           1E-12
    Mask sparsity (%):       0.0000
    Fitting Condition:        1E-10

   => Auxiliary Basis Set <=

  Basis Set: (AUG-CC-PVQZ AUX)
    Blend: AUG-CC-PVQZ-JKFIT
    Number of shells: 70
    Number of basis function: 294
    Number of Cartesian functions: 400
    Spherical Harmonics?: true
    Max angular momentum: 5

  Minimum eigenvalue in the overlap matrix is 8.5468003806E-05.
  Using Symmetric Orthogonalization.

  SCF Guess: Superposition of Atomic Densities via on-the-fly atomic UHF.

  ==> Iterations <==

                           Total Energy        Delta E     RMS |[F,P]|

   @DF-RHF iter SAD:   -75.47891910791697   -7.54789e+01   0.00000e+00 
   @DF-RHF iter   1:   -75.98163972333779   -5.02721e-01   2.73037e-03 DIIS
   @DF-RHF iter   2:   -76.03415554166571   -5.25158e-02   1.85514e-03 DIIS
   @DF-RHF iter   3:   -76.06539885703373   -3.12433e-02   1.26348e-04 DIIS
   @DF-RHF iter   4:   -76.06579084709563   -3.91990e-04   3.08809e-05 DIIS
   @DF-RHF iter   5:   -76.06581574116498   -2.48941e-05   6.92810e-06 DIIS
   @DF-RHF iter   6:   -76.06581778364647   -2.04248e-06   1.58299e-06 DIIS
   @DF-RHF iter   7:   -76.06581790287976   -1.19233e-07   3.08507e-07 DIIS
   @DF-RHF iter   8:   -76.06581790690359   -4.02383e-09   4.93899e-08 DIIS
   @DF-RHF iter   9:   -76.06581790698733   -8.37446e-11   1.19635e-08 DIIS
   @DF-RHF iter  10:   -76.06581790699124   -3.90799e-12   1.66472e-09 DIIS
  Energy and wave function converged.


  ==> Post-Iterations <==

    Orbital Energies [Eh]
    ---------------------

    Doubly Occupied:                                                      

       1A    -20.563117     2A     -1.349941     3A     -0.724752  
       4A     -0.577495     5A     -0.509318  

    Virtual:                                                              

       6A      0.027142     7A      0.042879     8A      0.114689  
       9A      0.132637    10A      0.150359    11A      0.157878  
      12A      0.185953    13A      0.197110    14A      0.208290  
      15A      0.241238    16A      0.258896    17A      0.290441  
      18A      0.358043    19A      0.390563    20A      0.471763  
      21A      0.506748    22A      0.542990    23A      0.545727  
      24A      0.554185    25A      0.613307    26A      0.634206  
      27A      0.649547    28A      0.662665    29A      0.665841  
      30A      0.690173    31A      0.705218    32A      0.714948  
      33A      0.769541    34A      0.787546    35A      0.803479  
      36A      0.809719    37A      0.846658    38A      0.855362  
      39A      0.967496    40A      1.134226    41A      1.140624  
      42A      1.216508    43A      1.329072    44A      1.418430  
      45A      1.480450    46A      1.506174    47A      1.521469  
      48A      1.525141    49A      1.555820    50A      1.595494  
      51A      1.618115    52A      1.636565    53A      1.659661  
      54A      1.672324    55A      1.686072    56A      1.702532  
      57A      1.720064    58A      1.763237    59A      1.781271  
      60A      1.793541    61A      1.828654    62A      1.862962  
      63A      1.881998    64A      1.900750    65A      1.954211  
      66A      2.013859    67A      2.021858    68A      2.029626  
      69A      2.099152    70A      2.218635    71A      2.225631  
      72A      2.307052    73A      2.491398    74A      2.641702  
      75A      2.643000    76A      2.890535    77A      2.961955  
      78A      3.009843    79A      3.023981    80A      3.061258  
      81A      3.088201    82A      3.253337    83A      3.283527  
      84A      3.309954    85A      3.529188    86A      3.591098  
      87A      3.657831    88A      3.682065    89A      3.739194  
      90A      3.742581    91A      3.920933    92A      4.066622  
      93A      4.159480    94A      4.170537    95A      4.174862  
      96A      4.181140    97A      4.250747    98A      4.343881  
      99A      4.419234   100A      4.566082   101A      4.664245  
     102A      4.760552   103A      4.802825   104A      4.806553  
     105A      4.838842   106A      4.875359   107A      4.998502  
     108A      5.275389   109A      5.315707   110A      5.512454  
     111A      5.546941   112A      5.877981   113A      5.881679  
     114A      6.079972   115A      6.230083   116A      6.836121  
     117A      6.858714   118A      6.861768   119A      6.955155  
     120A      7.713309   121A      7.780065   122A      7.828068  
     123A      7.844910   124A      7.876556   125A      7.918298  
     126A      7.946413   127A      8.006758   128A      8.197470  
     129A      8.338036   130A      8.536365   131A      8.591654  
     132A      8.704065   133A      8.757915   134A      8.798396  
     135A      8.875301   136A      8.982044   137A      9.062933  
     138A      9.142982   139A      9.530798   140A      9.842005  
     141A      9.960945   142A      9.964453   143A     10.012486  
     144A     10.437937   145A     10.477779   146A     10.655510  
     147A     10.993367   148A     11.038543   149A     11.079771  
     150A     11.260226   151A     11.367976   152A     11.438270  
     153A     11.696879   154A     11.796316   155A     11.834909  
     156A     12.012055   157A     12.175943   158A     12.224203  
     159A     12.532537   160A     12.735456   161A     12.873410  
     162A     12.896041   163A     13.210895   164A     13.997076  
     165A     14.038186   166A     14.487021   167A     14.844918  
     168A     14.875221   169A     15.299290   170A     16.925088  
     171A     17.265936   172A     45.490518  

    Final Occupation by Irrep:
              A 
    DOCC [     5 ]

  @DF-RHF Final Energy:   -76.06581790699124

   => Energetics <=

    Nuclear Repulsion Energy =              9.1814286862845282
    One-Electron Energy =                -123.0452477232296928
    Two-Electron Energy =                  37.7980011299539100
    Total Energy =                        -76.0658179069912421

Computation Completed


Properties will be evaluated at   4.161710,  -3.100428,   1.814307 [a0]

Properties computed using the SCF density matrix

  Nuclear Dipole Moment: [e a0]
     X:    -0.9316      Y:    -0.0152      Z:     0.0570

  Electronic Dipole Moment: [e a0]
     X:     0.1789      Y:     0.0026      Z:    -0.0107

  Dipole Moment: [e a0]
     X:    -0.7527      Y:    -0.0126      Z:     0.0462     Total:     0.7542

  Dipole Moment: [D]
     X:    -1.9131      Y:    -0.0319      Z:     0.1175     Total:     1.9169


*** tstop() called on node37.bme.utexas.edu at Tue Feb 22 17:51:02 2022
Module time:
	user time   =      10.71 seconds =       0.18 minutes
	system time =       0.79 seconds =       0.01 minutes
	total time  =          5 seconds =       0.08 minutes
Total time:
	user time   =      18.30 seconds =       0.30 minutes
	system time =       1.42 seconds =       0.02 minutes
	total time  =          9 seconds =       0.15 minutes

*** tstart() called on node37.bme.utexas.edu
*** at Tue Feb 22 17:51:02 2022


  //>>>>>>>>>>>>>>>>>>>>>>>>>>>>>>>>>>>//
  //               DFMP2               //
  //<<<<<<<<<<<<<<<<<<<<<<<<<<<<<<<<<<<//

   => Loading Basis Set <=

    Name: (AUG-CC-PVQZ AUX)
    Role: RIFIT
    Keyword: DF_BASIS_MP2
    atoms 1   entry O          line   332 file /home/bdw2292/miniconda3/envs/amoebamdpoltype/share/psi4/basis/aug-cc-pvqz-ri.gbs 
    atoms 2-3 entry H          line    30 file /home/bdw2292/miniconda3/envs/amoebamdpoltype/share/psi4/basis/aug-cc-pvqz-ri.gbs 

	 --------------------------------------------------------
	                          DF-MP2                         
	      2nd-Order Density-Fitted Moller-Plesset Theory     
	              RMP2 Wavefunction,   4 Threads             
	                                                         
	        Rob Parrish, Justin Turney, Andy Simmonett,      
	           Ed Hohenstein, and C. David Sherrill          
	 --------------------------------------------------------

   => Auxiliary Basis Set <=

  Basis Set: (AUG-CC-PVQZ AUX)
    Blend: AUG-CC-PVQZ-RI
    Number of shells: 76
    Number of basis function: 328
    Number of Cartesian functions: 447
    Spherical Harmonics?: true
    Max angular momentum: 5

	 --------------------------------------------------------
	                 NBF =   172, NAUX =   328
	 --------------------------------------------------------
	   CLASS    FOCC     OCC    AOCC    AVIR     VIR    FVIR
	   PAIRS       1       5       4     167     167       0
	 --------------------------------------------------------

	-----------------------------------------------------------
	 ==================> DF-MP2 Energies <==================== 
	-----------------------------------------------------------
	 Reference Energy          =     -76.0658179069912421 [Eh]
	 Singles Energy            =      -0.0000000000000000 [Eh]
	 Same-Spin Energy          =      -0.0671681169996045 [Eh]
	 Opposite-Spin Energy      =      -0.2185301808385581 [Eh]
	 Correlation Energy        =      -0.2856982978381626 [Eh]
	 Total Energy              =     -76.3515162048294087 [Eh]
	-----------------------------------------------------------
	 ================> DF-SCS-MP2 Energies <================== 
	-----------------------------------------------------------
	 SCS Same-Spin Scale       =       0.3333333333333333 [-]
	 SCS Opposite-Spin Scale   =       1.2000000000000000 [-]
	 SCS Same-Spin Energy      =      -0.0223893723332015 [Eh]
	 SCS Opposite-Spin Energy  =      -0.2622362170062698 [Eh]
	 SCS Correlation Energy    =      -0.2846255893394712 [Eh]
	 SCS Total Energy          =     -76.3504434963307119 [Eh]
	-----------------------------------------------------------


*** tstop() called on node37.bme.utexas.edu at Tue Feb 22 17:51:04 2022
Module time:
	user time   =       2.73 seconds =       0.05 minutes
	system time =       0.20 seconds =       0.00 minutes
	total time  =          2 seconds =       0.03 minutes
Total time:
	user time   =      21.04 seconds =       0.35 minutes
	system time =       1.62 seconds =       0.03 minutes
	total time  =         11 seconds =       0.18 minutes

  //>>>>>>>>>>>>>>>>>>>>>>>>>>>>>>>>>>>//
  //  CBS Results: mp2/aug-cc-pV[TQ]Z  //
  //<<<<<<<<<<<<<<<<<<<<<<<<<<<<<<<<<<<//


   ==> HF <==

   HI-zeta (4) Energy:               -76.065817906991


   ==> Helgaker 2-point correlated extrapolation for method: MP2 <==

   LO-zeta (3) Energy:               -76.328521911456
   HI-zeta (4) Energy:               -76.351516204829
   Alpha (exponent) Value:             3.000000000000
   Extrapolated Energy:              -76.368295824318

   @Extrapolated MP2/(T,Q):          -76.368295824318



   ==> Helgaker 2-point correlated extrapolation for method: HF <==

   LO-zeta (3) Energy:               -76.060431499298
   HI-zeta (4) Energy:               -76.065817906991
   Alpha (exponent) Value:             3.000000000000
   Extrapolated Energy:              -76.069748528821

   @Extrapolated HF/(T,Q):           -76.069748528821


   ==> Components <==

  ---------------------------------------------------------------------------------------------------------
                          Method / Basis                      Rqd      Energy [Eh]   Variable
  ---------------------------------------------------------------------------------------------------------
                              hf / aug-cc-pvtz                  *     -76.06043150   HF TOTAL ENERGY
                             mp2 / aug-cc-pvtz                  *     -76.32852191   MP2 TOTAL ENERGY
                              hf / aug-cc-pvqz                  *     -76.06581791   HF TOTAL ENERGY
                             mp2 / aug-cc-pvqz                  *     -76.35151620   MP2 TOTAL ENERGY
  ---------------------------------------------------------------------------------------------------------

   ==> Stages <==

  ---------------------------------------------------------------------------------------------------------
      Stage               Method / Basis                       Wt      Energy [Eh]   Scheme
  ---------------------------------------------------------------------------------------------------------
        scf                   hf / aug-cc-pvqz                  1     -76.06581791   xtpl_highest_1
       corl                  mp2 / aug-cc-pv[tq]z               1     -76.36829582   corl_xtpl_helgaker_2
       corl                   hf / aug-cc-pv[tq]z              -1     -76.06974853   corl_xtpl_helgaker_2
  ---------------------------------------------------------------------------------------------------------

   ==> CBS <==

  ---------------------------------------------------------------------------------------------------------
      Stage               Method / Basis                               Energy [Eh]   Scheme
  ---------------------------------------------------------------------------------------------------------
        scf                   hf / aug-cc-pvqz                        -76.06581791   xtpl_highest_1
       corl                  mp2 / aug-cc-pv[tq]z                      -0.29854730   corl_xtpl_helgaker_2
      total                  CBS                                      -76.36436520   
  ---------------------------------------------------------------------------------------------------------
   => Loading Basis Set <=

    Name: DEF2-SVP
    Role: ORBITAL
    Keyword: BASIS
    atoms 1   entry O          line   130 file /home/bdw2292/miniconda3/envs/amoebamdpoltype/share/psi4/basis/def2-svp.gbs 
    atoms 2-3 entry H          line    15 file /home/bdw2292/miniconda3/envs/amoebamdpoltype/share/psi4/basis/def2-svp.gbs 


       N-Body: Complex Energy (fragments = (2,), basis = (2,):   -76.36436520248829)

       N-Body: Computing complex (2/4) with fragments (2,) in the basis of fragments (1, 2).


  //>>>>>>>>>>>>>>>>>>>>>>>>>>>>>>>>>>>//
  //   CBS Setup: mp2/aug-cc-pV[TQ]Z   //
  //<<<<<<<<<<<<<<<<<<<<<<<<<<<<<<<<<<<//

    Naive listing of computations required.
             hf / aug-cc-pvqz              for  HF TOTAL ENERGY
            mp2 / aug-cc-pvtz              for  MP2 TOTAL ENERGY
            mp2 / aug-cc-pvqz              for  MP2 TOTAL ENERGY
             hf / aug-cc-pvtz              for  HF TOTAL ENERGY
             hf / aug-cc-pvqz              for  HF TOTAL ENERGY

    Enlightened listing of computations required.
            mp2 / aug-cc-pvtz              for  MP2 TOTAL ENERGY
            mp2 / aug-cc-pvqz              for  MP2 TOTAL ENERGY

    Full listing of computations to be obtained (required and bonus).
             hf / aug-cc-pvtz              for  HF TOTAL ENERGY
            mp2 / aug-cc-pvtz              for  MP2 TOTAL ENERGY
             hf / aug-cc-pvqz              for  HF TOTAL ENERGY
            mp2 / aug-cc-pvqz              for  MP2 TOTAL ENERGY

  //>>>>>>>>>>>>>>>>>>>>>>>>>>>>>>>>>>>>//
  // CBS Computation: MP2 / AUG-CC-PVTZ //
  //<<<<<<<<<<<<<<<<<<<<<<<<<<<<<<<<<<<<//

    SCF Algorithm Type (re)set to DF.

*** tstart() called on node37.bme.utexas.edu
*** at Tue Feb 22 17:51:06 2022

   => Loading Basis Set <=

    Name: AUG-CC-PVTZ
    Role: ORBITAL
    Keyword: BASIS
    atoms 1        entry CL         line   984 file /home/bdw2292/miniconda3/envs/amoebamdpoltype/share/psi4/basis/aug-cc-pvtz.gbs 
    atoms 2        entry C          line   235 file /home/bdw2292/miniconda3/envs/amoebamdpoltype/share/psi4/basis/aug-cc-pvtz.gbs 
    atoms 3-5, 7-8 entry H          line    36 file /home/bdw2292/miniconda3/envs/amoebamdpoltype/share/psi4/basis/aug-cc-pvtz.gbs 
    atoms 6        entry O          line   327 file /home/bdw2292/miniconda3/envs/amoebamdpoltype/share/psi4/basis/aug-cc-pvtz.gbs 


         ---------------------------------------------------------
                                   SCF
               by Justin Turney, Rob Parrish, Andy Simmonett
                          and Daniel G. A. Smith
                              RHF Reference
                        4 Threads,  14305 MiB Core
         ---------------------------------------------------------

  ==> Geometry <==

    Molecular point group: c1
    Full point group: C1

    Geometry (in Angstrom), charge = 0, multiplicity = 1:

       Center              X                  Y                   Z               Mass       
    ------------   -----------------  -----------------  -----------------  -----------------
      Gh(CL)         -0.313302220720     0.836586288635    -0.483648150865    34.968852682000
      Gh(C)          -1.849640320720     0.051446088635    -0.043103350865    12.000000000000
      Gh(H)          -1.996477420720    -0.819927511365    -0.681656750865     1.007825032230
      Gh(H)          -1.798993920720    -0.259268711365     1.000665849135     1.007825032230
      Gh(H)          -2.666799720720     0.759379288635    -0.181977250865     1.007825032230
         O            2.264916579280    -1.639656111365     0.956260649135    15.994914619570
         H            1.743271379280    -2.305105011365     1.403424849135     1.007825032230
         H            1.667235579280    -0.992428411365     0.577523749135     1.007825032230

  Running in c1 symmetry.

  Rotational constants: A =      0.48648  B =      0.07817  C =      0.06823 [cm^-1]
  Rotational constants: A =  14584.21999  B =   2343.55531  C =   2045.38763 [MHz]
  Nuclear repulsion =    9.181428686284528

  Charge       = 0
  Multiplicity = 1
  Electrons    = 10
  Nalpha       = 5
  Nbeta        = 5

  ==> Algorithm <==

  SCF Algorithm Type is DF.
  DIIS enabled.
  MOM disabled.
  Fractional occupation disabled.
  Guess Type is SAD.
  Energy threshold   = 1.00e-08
  Density threshold  = 1.00e-08
  Integral threshold = 0.00e+00

  ==> Primary Basis <==

  Basis Set: AUG-CC-PVTZ
    Blend: AUG-CC-PVTZ
    Number of shells: 89
    Number of basis function: 257
    Number of Cartesian functions: 294
    Spherical Harmonics?: true
    Max angular momentum: 3

   => Loading Basis Set <=

    Name: (AUG-CC-PVTZ AUX)
    Role: JKFIT
    Keyword: DF_BASIS_SCF
    atoms 1        entry CL         line   816 file /home/bdw2292/miniconda3/envs/amoebamdpoltype/share/psi4/basis/aug-cc-pvtz-jkfit.gbs 
    atoms 2        entry C          line   162 file /home/bdw2292/miniconda3/envs/amoebamdpoltype/share/psi4/basis/aug-cc-pvtz-jkfit.gbs 
    atoms 3-5, 7-8 entry H          line    70 file /home/bdw2292/miniconda3/envs/amoebamdpoltype/share/psi4/basis/aug-cc-pvtz-jkfit.gbs 
    atoms 6        entry O          line   286 file /home/bdw2292/miniconda3/envs/amoebamdpoltype/share/psi4/basis/aug-cc-pvtz-jkfit.gbs 

  ==> Pre-Iterations <==

   -------------------------------------------------------
    Irrep   Nso     Nmo     Nalpha   Nbeta   Ndocc  Nsocc
   -------------------------------------------------------
     A        257     257       0       0       0       0
   -------------------------------------------------------
    Total     257     257       5       5       5       0
   -------------------------------------------------------

  ==> Integral Setup <==

  DFHelper Memory: AOs need 0.291 GiB; user supplied 10.477 GiB. Using in-core AOs.

  ==> MemDFJK: Density-Fitted J/K Matrices <==

    J tasked:                   Yes
    K tasked:                   Yes
    wK tasked:                   No
    OpenMP threads:               4
    Memory [MiB]:             10728
    Algorithm:                 Core
    Schwarz Cutoff:           1E-12
    Mask sparsity (%):       4.9478
    Fitting Condition:        1E-10

   => Auxiliary Basis Set <=

  Basis Set: (AUG-CC-PVTZ AUX)
    Blend: AUG-CC-PVTZ-JKFIT
    Number of shells: 172
    Number of basis function: 584
    Number of Cartesian functions: 717
    Spherical Harmonics?: true
    Max angular momentum: 4

  Minimum eigenvalue in the overlap matrix is 6.9290175091E-05.
  Using Symmetric Orthogonalization.

  SCF Guess: Superposition of Atomic Densities via on-the-fly atomic UHF.

  ==> Iterations <==

                           Total Energy        Delta E     RMS |[F,P]|

   @DF-RHF iter SAD:   -75.47376343277701   -7.54738e+01   0.00000e+00 
   @DF-RHF iter   1:   -75.97656616858222   -5.02803e-01   1.82357e-03 DIIS
   @DF-RHF iter   2:   -76.02898461989547   -5.24185e-02   1.23629e-03 DIIS
   @DF-RHF iter   3:   -76.06003630985350   -3.10517e-02   8.39558e-05 DIIS
   @DF-RHF iter   4:   -76.06042633412881   -3.90024e-04   2.00592e-05 DIIS
   @DF-RHF iter   5:   -76.06045035090295   -2.40168e-05   4.51662e-06 DIIS
   @DF-RHF iter   6:   -76.06045231238278   -1.96148e-06   1.00550e-06 DIIS
   @DF-RHF iter   7:   -76.06045242053364   -1.08151e-07   1.90031e-07 DIIS
   @DF-RHF iter   8:   -76.06045242396095   -3.42732e-09   3.15271e-08 DIIS
   @DF-RHF iter   9:   -76.06045242403569   -7.47349e-11   7.83536e-09 DIIS
  Energy and wave function converged.


  ==> Post-Iterations <==

    Orbital Energies [Eh]
    ---------------------

    Doubly Occupied:                                                      

       1A    -20.565590     2A     -1.350660     3A     -0.724778  
       4A     -0.577437     5A     -0.509180  

    Virtual:                                                              

       6A      0.017164     7A      0.036309     8A      0.043063  
       9A      0.046845    10A      0.057806    11A      0.079887  
      12A      0.093788    13A      0.107607    14A      0.111968  
      15A      0.114810    16A      0.123712    17A      0.135888  
      18A      0.167649    19A      0.173881    20A      0.176924  
      21A      0.196339    22A      0.212380    23A      0.221168  
      24A      0.250979    25A      0.261411    26A      0.262876  
      27A      0.271328    28A      0.278334    29A      0.290679  
      30A      0.294195    31A      0.302010    32A      0.311502  
      33A      0.323952    34A      0.325650    35A      0.346472  
      36A      0.358081    37A      0.380208    38A      0.388190  
      39A      0.397204    40A      0.405655    41A      0.431030  
      42A      0.435699    43A      0.452451    44A      0.455450  
      45A      0.461560    46A      0.485441    47A      0.493361  
      48A      0.519137    49A      0.561993    50A      0.574745  
      51A      0.579914    52A      0.591690    53A      0.607323  
      54A      0.626017    55A      0.650594    56A      0.654366  
      57A      0.665238    58A      0.679094    59A      0.696033  
      60A      0.716291    61A      0.726562    62A      0.733069  
      63A      0.742030    64A      0.742341    65A      0.798025  
      66A      0.878471    67A      0.902961    68A      0.917169  
      69A      0.923273    70A      0.929122    71A      0.939879  
      72A      0.948853    73A      0.958450    74A      0.976103  
      75A      0.995482    76A      1.004471    77A      1.035083  
      78A      1.040869    79A      1.043191    80A      1.050949  
      81A      1.062717    82A      1.075577    83A      1.084825  
      84A      1.090242    85A      1.101316    86A      1.116033  
      87A      1.130568    88A      1.140136    89A      1.163810  
      90A      1.171378    91A      1.177430    92A      1.185435  
      93A      1.196103    94A      1.219469    95A      1.228897  
      96A      1.242229    97A      1.251646    98A      1.272334  
      99A      1.304113   100A      1.321489   101A      1.358795  
     102A      1.375542   103A      1.381710   104A      1.396907  
     105A      1.402929   106A      1.411413   107A      1.440321  
     108A      1.503388   109A      1.510574   110A      1.527474  
     111A      1.549556   112A      1.552123   113A      1.570817  
     114A      1.582196   115A      1.601334   116A      1.628353  
     117A      1.648509   118A      1.674262   119A      1.706621  
     120A      1.741714   121A      1.783833   122A      1.822016  
     123A      1.873269   124A      1.893949   125A      1.912514  
     126A      1.931344   127A      1.959133   128A      1.983536  
     129A      2.042533   130A      2.049243   131A      2.063520  
     132A      2.081817   133A      2.105306   134A      2.118550  
     135A      2.129882   136A      2.163512   137A      2.273134  
     138A      2.308271   139A      2.326828   140A      2.347592  
     141A      2.371765   142A      2.423747   143A      2.450493  
     144A      2.465338   145A      2.484479   146A      2.497594  
     147A      2.517515   148A      2.533597   149A      2.566690  
     150A      2.599566   151A      2.687927   152A      2.708980  
     153A      2.717716   154A      2.731779   155A      2.862010  
     156A      2.908314   157A      2.942022   158A      2.961681  
     159A      3.664781   160A      3.722145   161A      3.797668  
     162A      3.905849   163A      3.934270   164A      3.951300  
     165A      3.972862   166A      3.980945   167A      3.996588  
     168A      4.017006   169A      4.047669   170A      4.077331  
     171A      4.081514   172A      4.143359   173A      4.156880  
     174A      4.169350   175A      4.189836   176A      4.219477  
     177A      4.223348   178A      4.247469   179A      4.258681  
     180A      4.297937   181A      4.337861   182A      4.386874  
     183A      4.391195   184A      4.418660   185A      4.438435  
     186A      4.443233   187A      4.461193   188A      4.476552  
     189A      4.524832   190A      4.535935   191A      4.563044  
     192A      4.576483   193A      4.589403   194A      4.685542  
     195A      4.735909   196A      4.748089   197A      4.758130  
     198A      4.799463   199A      4.808256   200A      4.817879  
     201A      4.865599   202A      4.875842   203A      4.909993  
     204A      4.993210   205A      5.076073   206A      5.108179  
     207A      5.150809   208A      5.167474   209A      5.175864  
     210A      5.234113   211A      5.323552   212A      5.327239  
     213A      5.362257   214A      5.364574   215A      5.401416  
     216A      5.466640   217A      5.470364   218A      5.474350  
     219A      5.515405   220A      5.698023   221A      5.706118  
     222A      5.756464   223A      6.029406   224A      6.134986  
     225A      6.143256   226A      6.160795   227A      6.208185  
     228A      6.214363   229A      6.550620   230A      6.652624  
     231A      6.664931   232A      6.734875   233A      6.894657  
     234A      7.122433   235A      7.150062   236A      7.274522  
     237A      7.315529   238A      7.325672   239A      7.399194  
     240A      7.409884   241A      7.704173   242A      7.733492  
     243A      7.757452   244A      7.844994   245A      7.936361  
     246A      7.989060   247A      8.116122   248A      8.147122  
     249A      8.807306   250A     10.218198   251A     16.177168  
     252A     16.435967   253A     28.033520   254A     28.177192  
     255A     28.938921   256A     51.121585   257A    161.015503  

    Final Occupation by Irrep:
              A 
    DOCC [     5 ]

  @DF-RHF Final Energy:   -76.06045242403569

   => Energetics <=

    Nuclear Repulsion Energy =              9.1814286862845282
    One-Electron Energy =                -123.0284688176145380
    Two-Electron Energy =                  37.7865877072943164
    Total Energy =                        -76.0604524240356881

Computation Completed


Properties will be evaluated at   0.000000,  -0.000000,   0.000000 [a0]

Properties computed using the SCF density matrix

  Nuclear Dipole Moment: [e a0]
     X:    40.6855      Y:   -31.0194      Z:    18.2000

  Electronic Dipole Moment: [e a0]
     X:   -41.4392      Y:    31.0069      Z:   -18.1538

  Dipole Moment: [e a0]
     X:    -0.7537      Y:    -0.0125      Z:     0.0463     Total:     0.7552

  Dipole Moment: [D]
     X:    -1.9157      Y:    -0.0318      Z:     0.1176     Total:     1.9196


*** tstop() called on node37.bme.utexas.edu at Tue Feb 22 17:51:14 2022
Module time:
	user time   =      20.78 seconds =       0.35 minutes
	system time =       1.30 seconds =       0.02 minutes
	total time  =          8 seconds =       0.13 minutes
Total time:
	user time   =      43.44 seconds =       0.72 minutes
	system time =       2.96 seconds =       0.05 minutes
	total time  =         21 seconds =       0.35 minutes

*** tstart() called on node37.bme.utexas.edu
*** at Tue Feb 22 17:51:14 2022


  //>>>>>>>>>>>>>>>>>>>>>>>>>>>>>>>>>>>//
  //               DFMP2               //
  //<<<<<<<<<<<<<<<<<<<<<<<<<<<<<<<<<<<//

   => Loading Basis Set <=

    Name: (AUG-CC-PVTZ AUX)
    Role: RIFIT
    Keyword: DF_BASIS_MP2
    atoms 1        entry CL         line   742 file /home/bdw2292/miniconda3/envs/amoebamdpoltype/share/psi4/basis/aug-cc-pvtz-ri.gbs 
    atoms 2        entry C          line   148 file /home/bdw2292/miniconda3/envs/amoebamdpoltype/share/psi4/basis/aug-cc-pvtz-ri.gbs 
    atoms 3-5, 7-8 entry H          line    30 file /home/bdw2292/miniconda3/envs/amoebamdpoltype/share/psi4/basis/aug-cc-pvtz-ri.gbs 
    atoms 6        entry O          line   264 file /home/bdw2292/miniconda3/envs/amoebamdpoltype/share/psi4/basis/aug-cc-pvtz-ri.gbs 

	 --------------------------------------------------------
	                          DF-MP2                         
	      2nd-Order Density-Fitted Moller-Plesset Theory     
	              RMP2 Wavefunction,   4 Threads             
	                                                         
	        Rob Parrish, Justin Turney, Andy Simmonett,      
	           Ed Hohenstein, and C. David Sherrill          
	 --------------------------------------------------------

   => Auxiliary Basis Set <=

  Basis Set: (AUG-CC-PVTZ AUX)
    Blend: AUG-CC-PVTZ-RI
    Number of shells: 163
    Number of basis function: 589
    Number of Cartesian functions: 738
    Spherical Harmonics?: true
    Max angular momentum: 4

	 --------------------------------------------------------
	                 NBF =   257, NAUX =   589
	 --------------------------------------------------------
	   CLASS    FOCC     OCC    AOCC    AVIR     VIR    FVIR
	   PAIRS       1       5       4     252     252       0
	 --------------------------------------------------------

	-----------------------------------------------------------
	 ==================> DF-MP2 Energies <==================== 
	-----------------------------------------------------------
	 Reference Energy          =     -76.0604524240356881 [Eh]
	 Singles Energy            =      -0.0000000000000000 [Eh]
	 Same-Spin Energy          =      -0.0651094115926316 [Eh]
	 Opposite-Spin Energy      =      -0.2031018457887583 [Eh]
	 Correlation Energy        =      -0.2682112573813898 [Eh]
	 Total Energy              =     -76.3286636814170834 [Eh]
	-----------------------------------------------------------
	 ================> DF-SCS-MP2 Energies <================== 
	-----------------------------------------------------------
	 SCS Same-Spin Scale       =       0.3333333333333333 [-]
	 SCS Opposite-Spin Scale   =       1.2000000000000000 [-]
	 SCS Same-Spin Energy      =      -0.0217031371975439 [Eh]
	 SCS Opposite-Spin Energy  =      -0.2437222149465099 [Eh]
	 SCS Correlation Energy    =      -0.2654253521440538 [Eh]
	 SCS Total Energy          =     -76.3258777761797376 [Eh]
	-----------------------------------------------------------


*** tstop() called on node37.bme.utexas.edu at Tue Feb 22 17:51:18 2022
Module time:
	user time   =       7.46 seconds =       0.12 minutes
	system time =       0.49 seconds =       0.01 minutes
	total time  =          4 seconds =       0.07 minutes
Total time:
	user time   =      50.90 seconds =       0.85 minutes
	system time =       3.45 seconds =       0.06 minutes
	total time  =         25 seconds =       0.42 minutes

  //>>>>>>>>>>>>>>>>>>>>>>>>>>>>>>>>>>>>//
  // CBS Computation: MP2 / AUG-CC-PVQZ //
  //<<<<<<<<<<<<<<<<<<<<<<<<<<<<<<<<<<<<//

    SCF Algorithm Type (re)set to DF.

*** tstart() called on node37.bme.utexas.edu
*** at Tue Feb 22 17:51:18 2022

   => Loading Basis Set <=

    Name: AUG-CC-PVQZ
    Role: ORBITAL
    Keyword: BASIS
    atoms 1        entry CL         line  1218 file /home/bdw2292/miniconda3/envs/amoebamdpoltype/share/psi4/basis/aug-cc-pvqz.gbs 
    atoms 2        entry C          line   299 file /home/bdw2292/miniconda3/envs/amoebamdpoltype/share/psi4/basis/aug-cc-pvqz.gbs 
    atoms 3-5, 7-8 entry H          line    36 file /home/bdw2292/miniconda3/envs/amoebamdpoltype/share/psi4/basis/aug-cc-pvqz.gbs 
    atoms 6        entry O          line   419 file /home/bdw2292/miniconda3/envs/amoebamdpoltype/share/psi4/basis/aug-cc-pvqz.gbs 


         ---------------------------------------------------------
                                   SCF
               by Justin Turney, Rob Parrish, Andy Simmonett
                          and Daniel G. A. Smith
                              RHF Reference
                        4 Threads,  14305 MiB Core
         ---------------------------------------------------------

  ==> Geometry <==

    Molecular point group: c1
    Full point group: C1

    Geometry (in Angstrom), charge = 0, multiplicity = 1:

       Center              X                  Y                   Z               Mass       
    ------------   -----------------  -----------------  -----------------  -----------------
      Gh(CL)         -0.313302220720     0.836586288635    -0.483648150865    34.968852682000
      Gh(C)          -1.849640320720     0.051446088635    -0.043103350865    12.000000000000
      Gh(H)          -1.996477420720    -0.819927511365    -0.681656750865     1.007825032230
      Gh(H)          -1.798993920720    -0.259268711365     1.000665849135     1.007825032230
      Gh(H)          -2.666799720720     0.759379288635    -0.181977250865     1.007825032230
         O            2.264916579280    -1.639656111365     0.956260649135    15.994914619570
         H            1.743271379280    -2.305105011365     1.403424849135     1.007825032230
         H            1.667235579280    -0.992428411365     0.577523749135     1.007825032230

  Running in c1 symmetry.

  Rotational constants: A =      0.48648  B =      0.07817  C =      0.06823 [cm^-1]
  Rotational constants: A =  14584.21999  B =   2343.55531  C =   2045.38763 [MHz]
  Nuclear repulsion =    9.181428686284528

  Charge       = 0
  Multiplicity = 1
  Electrons    = 10
  Nalpha       = 5
  Nbeta        = 5

  ==> Algorithm <==

  SCF Algorithm Type is DF.
  DIIS enabled.
  MOM disabled.
  Fractional occupation disabled.
  Guess Type is SAD.
  Energy threshold   = 1.00e-08
  Density threshold  = 1.00e-08
  Integral threshold = 0.00e+00

  ==> Primary Basis <==

  Basis Set: AUG-CC-PVQZ
    Blend: AUG-CC-PVQZ
    Number of shells: 132
    Number of basis function: 474
    Number of Cartesian functions: 594
    Spherical Harmonics?: true
    Max angular momentum: 4

   => Loading Basis Set <=

    Name: (AUG-CC-PVQZ AUX)
    Role: JKFIT
    Keyword: DF_BASIS_SCF
    atoms 1        entry CL         line   904 file /home/bdw2292/miniconda3/envs/amoebamdpoltype/share/psi4/basis/aug-cc-pvqz-jkfit.gbs 
    atoms 2        entry C          line   178 file /home/bdw2292/miniconda3/envs/amoebamdpoltype/share/psi4/basis/aug-cc-pvqz-jkfit.gbs 
    atoms 3-5, 7-8 entry H          line    70 file /home/bdw2292/miniconda3/envs/amoebamdpoltype/share/psi4/basis/aug-cc-pvqz-jkfit.gbs 
    atoms 6        entry O          line   318 file /home/bdw2292/miniconda3/envs/amoebamdpoltype/share/psi4/basis/aug-cc-pvqz-jkfit.gbs 

  ==> Pre-Iterations <==

   -------------------------------------------------------
    Irrep   Nso     Nmo     Nalpha   Nbeta   Ndocc  Nsocc
   -------------------------------------------------------
     A        474     474       0       0       0       0
   -------------------------------------------------------
    Total     474     474       5       5       5       0
   -------------------------------------------------------

  ==> Integral Setup <==

  DFHelper Memory: AOs need 1.361 GiB; user supplied 10.477 GiB. Using in-core AOs.

  ==> MemDFJK: Density-Fitted J/K Matrices <==

    J tasked:                   Yes
    K tasked:                   Yes
    wK tasked:                   No
    OpenMP threads:               4
    Memory [MiB]:             10728
    Algorithm:                 Core
    Schwarz Cutoff:           1E-12
    Mask sparsity (%):       8.8296
    Fitting Condition:        1E-10

   => Auxiliary Basis Set <=

  Basis Set: (AUG-CC-PVQZ AUX)
    Blend: AUG-CC-PVQZ-JKFIT
    Number of shells: 204
    Number of basis function: 848
    Number of Cartesian functions: 1148
    Spherical Harmonics?: true
    Max angular momentum: 5

  Minimum eigenvalue in the overlap matrix is 1.4757981666E-05.
  Using Symmetric Orthogonalization.

  SCF Guess: Superposition of Atomic Densities via on-the-fly atomic UHF.

  ==> Iterations <==

                           Total Energy        Delta E     RMS |[F,P]|

   @DF-RHF iter SAD:   -75.47891910414310   -7.54789e+01   0.00000e+00 
   @DF-RHF iter   1:   -75.98164564152970   -5.02727e-01   9.90788e-04 DIIS
   @DF-RHF iter   2:   -76.03416331023693   -5.25177e-02   6.73211e-04 DIIS
   @DF-RHF iter   3:   -76.06540785316523   -3.12445e-02   4.58496e-05 DIIS
   @DF-RHF iter   4:   -76.06579987052952   -3.92017e-04   1.12059e-05 DIIS
   @DF-RHF iter   5:   -76.06582476599210   -2.48955e-05   2.51425e-06 DIIS
   @DF-RHF iter   6:   -76.06582680896116   -2.04297e-06   5.74452e-07 DIIS
   @DF-RHF iter   7:   -76.06582692823417   -1.19273e-07   1.12019e-07 DIIS
   @DF-RHF iter   8:   -76.06582693226599   -4.03182e-09   1.79414e-08 DIIS
   @DF-RHF iter   9:   -76.06582693234931   -8.33182e-11   4.34548e-09 DIIS
  Energy and wave function converged.


  ==> Post-Iterations <==

    Orbital Energies [Eh]
    ---------------------

    Doubly Occupied:                                                      

       1A    -20.563104     2A     -1.349931     3A     -0.724742  
       4A     -0.577487     5A     -0.509312  

    Virtual:                                                              

       6A      0.015446     7A      0.033051     8A      0.038981  
       9A      0.042124    10A      0.052906    11A      0.071418  
      12A      0.082564    13A      0.092371    14A      0.094724  
      15A      0.100607    16A      0.106836    17A      0.118357  
      18A      0.143407    19A      0.149371    20A      0.150811  
      21A      0.168415    22A      0.175248    23A      0.188138  
      24A      0.210647    25A      0.214729    26A      0.220112  
      27A      0.225918    28A      0.233745    29A      0.242402  
      30A      0.252209    31A      0.253786    32A      0.257690  
      33A      0.268555    34A      0.272260    35A      0.279601  
      36A      0.291748    37A      0.296596    38A      0.302861  
      39A      0.321063    40A      0.339129    41A      0.345864  
      42A      0.348773    43A      0.361989    44A      0.373268  
      45A      0.379585    46A      0.386078    47A      0.403057  
      48A      0.409434    49A      0.422914    50A      0.431862  
      51A      0.453080    52A      0.474384    53A      0.478692  
      54A      0.501673    55A      0.511312    56A      0.520304  
      57A      0.527576    58A      0.534634    59A      0.544706  
      60A      0.553002    61A      0.557761    62A      0.564737  
      63A      0.569532    64A      0.599239    65A      0.617879  
      66A      0.643754    67A      0.662541    68A      0.674736  
      69A      0.678517    70A      0.683567    71A      0.690651  
      72A      0.703055    73A      0.714162    74A      0.723262  
      75A      0.727413    76A      0.739150    77A      0.749843  
      78A      0.759256    79A      0.772206    80A      0.777717  
      81A      0.789539    82A      0.801572    83A      0.805374  
      84A      0.815247    85A      0.836929    86A      0.852028  
      87A      0.860099    88A      0.863473    89A      0.871455  
      90A      0.877432    91A      0.883647    92A      0.893325  
      93A      0.896557    94A      0.915371    95A      0.931144  
      96A      0.953234    97A      0.964561    98A      0.973829  
      99A      0.978878   100A      0.996574   101A      1.008271  
     102A      1.017200   103A      1.035226   104A      1.042037  
     105A      1.059837   106A      1.064106   107A      1.068146  
     108A      1.084670   109A      1.089998   110A      1.101407  
     111A      1.126826   112A      1.141944   113A      1.152161  
     114A      1.161483   115A      1.169863   116A      1.192365  
     117A      1.232284   118A      1.245124   119A      1.247584  
     120A      1.288652   121A      1.303711   122A      1.319029  
     123A      1.326106   124A      1.344808   125A      1.417870  
     126A      1.428979   127A      1.450186   128A      1.462249  
     129A      1.483964   130A      1.495321   131A      1.517620  
     132A      1.520145   133A      1.533125   134A      1.551824  
     135A      1.584591   136A      1.590073   137A      1.597035  
     138A      1.609259   139A      1.621033   140A      1.643565  
     141A      1.650561   142A      1.663913   143A      1.669979  
     144A      1.675913   145A      1.684865   146A      1.693788  
     147A      1.697618   148A      1.726866   149A      1.748251  
     150A      1.755221   151A      1.768111   152A      1.781712  
     153A      1.797946   154A      1.812542   155A      1.821460  
     156A      1.827735   157A      1.861176   158A      1.865962  
     159A      1.869769   160A      1.883908   161A      1.894719  
     162A      1.909291   163A      1.914764   164A      1.932566  
     165A      1.942428   166A      1.944010   167A      1.952477  
     168A      1.970977   169A      1.987480   170A      2.000322  
     171A      2.013175   172A      2.023799   173A      2.041972  
     174A      2.044397   175A      2.050564   176A      2.070855  
     177A      2.090703   178A      2.100144   179A      2.119685  
     180A      2.134715   181A      2.157042   182A      2.171588  
     183A      2.176464   184A      2.177468   185A      2.188540  
     186A      2.215603   187A      2.222797   188A      2.230441  
     189A      2.244685   190A      2.261086   191A      2.273862  
     192A      2.280459   193A      2.310232   194A      2.332068  
     195A      2.352280   196A      2.369804   197A      2.402798  
     198A      2.415661   199A      2.451833   200A      2.486276  
     201A      2.498762   202A      2.513357   203A      2.532853  
     204A      2.542339   205A      2.579100   206A      2.588845  
     207A      2.593057   208A      2.644745   209A      2.652043  
     210A      2.679734   211A      2.692544   212A      2.725209  
     213A      2.751393   214A      2.776124   215A      2.800999  
     216A      2.808192   217A      2.818100   218A      2.850991  
     219A      2.860739   220A      2.888440   221A      2.914508  
     222A      2.917815   223A      2.966635   224A      2.983774  
     225A      3.001491   226A      3.006909   227A      3.012456  
     228A      3.033378   229A      3.051492   230A      3.081450  
     231A      3.092796   232A      3.098214   233A      3.132265  
     234A      3.167366   235A      3.194062   236A      3.224129  
     237A      3.246474   238A      3.257028   239A      3.272079  
     240A      3.279826   241A      3.326654   242A      3.329094  
     243A      3.359720   244A      3.367398   245A      3.379447  
     246A      3.404315   247A      3.418815   248A      3.437258  
     249A      3.477367   250A      3.479362   251A      3.518226  
     252A      3.610527   253A      3.629793   254A      3.642804  
     255A      3.685102   256A      3.690315   257A      3.721858  
     258A      3.760111   259A      3.785906   260A      3.805190  
     261A      3.823577   262A      3.828661   263A      3.900584  
     264A      3.907127   265A      3.948908   266A      3.955906  
     267A      3.982918   268A      4.056166   269A      4.105990  
     270A      4.109139   271A      4.137903   272A      4.167767  
     273A      4.191550   274A      4.209135   275A      4.223393  
     276A      4.247897   277A      4.253665   278A      4.274673  
     279A      4.332098   280A      4.376153   281A      4.432138  
     282A      4.438824   283A      4.499579   284A      4.587212  
     285A      4.618910   286A      4.630778   287A      4.686817  
     288A      4.708807   289A      4.716701   290A      4.837956  
     291A      4.844588   292A      4.851839   293A      4.854918  
     294A      4.895825   295A      4.918929   296A      4.928052  
     297A      4.937315   298A      4.986787   299A      5.067993  
     300A      5.128971   301A      5.155918   302A      5.246376  
     303A      5.340566   304A      5.416647   305A      5.438935  
     306A      5.446679   307A      5.480382   308A      5.512331  
     309A      5.525275   310A      5.571061   311A      5.591343  
     312A      5.646550   313A      5.675424   314A      5.801307  
     315A      5.817017   316A      5.833477   317A      5.883453  
     318A      5.899483   319A      5.951161   320A      6.042122  
     321A      6.162136   322A      6.310560   323A      6.347947  
     324A      6.372150   325A      6.406012   326A      6.436651  
     327A      6.503067   328A      6.514134   329A      6.643902  
     330A      6.753690   331A      6.761717   332A      6.797279  
     333A      6.848584   334A      6.862634   335A      6.868680  
     336A      6.929644   337A      6.940443   338A      6.947812  
     339A      6.980803   340A      7.011319   341A      7.120365  
     342A      7.143021   343A      7.208525   344A      7.226082  
     345A      7.281613   346A      7.346056   347A      7.363118  
     348A      7.379920   349A      7.618254   350A      7.631929  
     351A      7.644161   352A      7.651654   353A      7.686114  
     354A      7.734049   355A      7.758075   356A      7.799973  
     357A      7.833744   358A      7.844900   359A      7.864573  
     360A      7.871177   361A      7.882308   362A      7.896427  
     363A      7.902173   364A      7.928972   365A      7.941634  
     366A      7.975073   367A      7.987753   368A      8.019069  
     369A      8.080369   370A      8.130234   371A      8.166505  
     372A      8.204384   373A      8.318425   374A      8.319624  
     375A      8.345507   376A      8.391193   377A      8.498507  
     378A      8.536041   379A      8.539257   380A      8.610041  
     381A      8.621886   382A      8.760947   383A      8.789112  
     384A      8.827872   385A      8.838460   386A      8.864593  
     387A      8.871296   388A      8.887283   389A      8.899263  
     390A      8.949439   391A      8.998590   392A      9.116151  
     393A      9.178101   394A      9.210683   395A      9.297779  
     396A      9.302656   397A      9.381180   398A      9.514911  
     399A      9.518532   400A      9.570049   401A      9.585638  
     402A      9.683923   403A      9.691180   404A      9.759984  
     405A      9.766694   406A      9.829084   407A      9.830217  
     408A      9.866344   409A      9.877475   410A      9.986432  
     411A     10.016199   412A     10.028711   413A     10.037779  
     414A     10.046174   415A     10.285497   416A     10.301684  
     417A     10.457286   418A     10.489433   419A     10.534479  
     420A     10.591836   421A     10.605133   422A     10.714080  
     423A     10.738783   424A     10.746869   425A     10.750367  
     426A     10.781940   427A     10.906715   428A     11.016078  
     429A     11.062278   430A     11.155889   431A     11.169978  
     432A     11.180636   433A     11.280321   434A     11.320681  
     435A     11.344824   436A     11.403398   437A     11.469274  
     438A     11.711243   439A     11.831396   440A     11.875153  
     441A     12.005439   442A     12.051461   443A     12.094350  
     444A     12.123900   445A     12.196236   446A     12.271798  
     447A     12.320220   448A     12.578566   449A     12.777477  
     450A     12.890922   451A     12.901908   452A     13.106560  
     453A     13.132764   454A     13.239062   455A     13.546696  
     456A     14.008228   457A     14.143887   458A     14.497195  
     459A     14.782314   460A     14.849206   461A     14.901825  
     462A     15.325619   463A     16.451728   464A     16.983795  
     465A     17.271330   466A     17.283387   467A     17.294821  
     468A     31.090365   469A     31.110408   470A     31.340776  
     471A     43.084374   472A     45.667699   473A     71.598551  
     474A    160.378730  

    Final Occupation by Irrep:
              A 
    DOCC [     5 ]

  @DF-RHF Final Energy:   -76.06582693234931

   => Energetics <=

    Nuclear Repulsion Energy =              9.1814286862845282
    One-Electron Energy =                -123.0453551456600678
    Two-Electron Energy =                  37.7980995270262241
    Total Energy =                        -76.0658269323493101

Computation Completed


Properties will be evaluated at   0.000000,  -0.000000,   0.000000 [a0]

Properties computed using the SCF density matrix

  Nuclear Dipole Moment: [e a0]
     X:    40.6855      Y:   -31.0194      Z:    18.2000

  Electronic Dipole Moment: [e a0]
     X:   -41.4381      Y:    31.0069      Z:   -18.1538

  Dipole Moment: [e a0]
     X:    -0.7526      Y:    -0.0125      Z:     0.0462     Total:     0.7541

  Dipole Moment: [D]
     X:    -1.9130      Y:    -0.0319      Z:     0.1174     Total:     1.9169


*** tstop() called on node37.bme.utexas.edu at Tue Feb 22 17:51:48 2022
Module time:
	user time   =      71.95 seconds =       1.20 minutes
	system time =       4.66 seconds =       0.08 minutes
	total time  =         30 seconds =       0.50 minutes
Total time:
	user time   =     122.91 seconds =       2.05 minutes
	system time =       8.11 seconds =       0.14 minutes
	total time  =         55 seconds =       0.92 minutes

*** tstart() called on node37.bme.utexas.edu
*** at Tue Feb 22 17:51:48 2022


  //>>>>>>>>>>>>>>>>>>>>>>>>>>>>>>>>>>>//
  //               DFMP2               //
  //<<<<<<<<<<<<<<<<<<<<<<<<<<<<<<<<<<<//

   => Loading Basis Set <=

    Name: (AUG-CC-PVQZ AUX)
    Role: RIFIT
    Keyword: DF_BASIS_MP2
    atoms 1        entry CL         line   914 file /home/bdw2292/miniconda3/envs/amoebamdpoltype/share/psi4/basis/aug-cc-pvqz-ri.gbs 
    atoms 2        entry C          line   184 file /home/bdw2292/miniconda3/envs/amoebamdpoltype/share/psi4/basis/aug-cc-pvqz-ri.gbs 
    atoms 3-5, 7-8 entry H          line    30 file /home/bdw2292/miniconda3/envs/amoebamdpoltype/share/psi4/basis/aug-cc-pvqz-ri.gbs 
    atoms 6        entry O          line   332 file /home/bdw2292/miniconda3/envs/amoebamdpoltype/share/psi4/basis/aug-cc-pvqz-ri.gbs 

	 --------------------------------------------------------
	                          DF-MP2                         
	      2nd-Order Density-Fitted Moller-Plesset Theory     
	              RMP2 Wavefunction,   4 Threads             
	                                                         
	        Rob Parrish, Justin Turney, Andy Simmonett,      
	           Ed Hohenstein, and C. David Sherrill          
	 --------------------------------------------------------

   => Auxiliary Basis Set <=

  Basis Set: (AUG-CC-PVQZ AUX)
    Blend: AUG-CC-PVQZ-RI
    Number of shells: 216
    Number of basis function: 930
    Number of Cartesian functions: 1267
    Spherical Harmonics?: true
    Max angular momentum: 5

	 --------------------------------------------------------
	                 NBF =   474, NAUX =   930
	 --------------------------------------------------------
	   CLASS    FOCC     OCC    AOCC    AVIR     VIR    FVIR
	   PAIRS       1       5       4     469     469       0
	 --------------------------------------------------------

	-----------------------------------------------------------
	 ==================> DF-MP2 Energies <==================== 
	-----------------------------------------------------------
	 Reference Energy          =     -76.0658269323493101 [Eh]
	 Singles Energy            =      -0.0000000000000000 [Eh]
	 Same-Spin Energy          =      -0.0671716504085356 [Eh]
	 Opposite-Spin Energy      =      -0.2185803706050818 [Eh]
	 Correlation Energy        =      -0.2857520210136174 [Eh]
	 Total Energy              =     -76.3515789533629317 [Eh]
	-----------------------------------------------------------
	 ================> DF-SCS-MP2 Energies <================== 
	-----------------------------------------------------------
	 SCS Same-Spin Scale       =       0.3333333333333333 [-]
	 SCS Opposite-Spin Scale   =       1.2000000000000000 [-]
	 SCS Same-Spin Energy      =      -0.0223905501361785 [Eh]
	 SCS Opposite-Spin Energy  =      -0.2622964447260981 [Eh]
	 SCS Correlation Energy    =      -0.2846869948622766 [Eh]
	 SCS Total Energy          =     -76.3505139272115798 [Eh]
	-----------------------------------------------------------


*** tstop() called on node37.bme.utexas.edu at Tue Feb 22 17:52:02 2022
Module time:
	user time   =      31.11 seconds =       0.52 minutes
	system time =       1.97 seconds =       0.03 minutes
	total time  =         14 seconds =       0.23 minutes
Total time:
	user time   =     154.02 seconds =       2.57 minutes
	system time =      10.08 seconds =       0.17 minutes
	total time  =         69 seconds =       1.15 minutes

  //>>>>>>>>>>>>>>>>>>>>>>>>>>>>>>>>>>>//
  //  CBS Results: mp2/aug-cc-pV[TQ]Z  //
  //<<<<<<<<<<<<<<<<<<<<<<<<<<<<<<<<<<<//


   ==> HF <==

   HI-zeta (4) Energy:               -76.065826932349


   ==> Helgaker 2-point correlated extrapolation for method: MP2 <==

   LO-zeta (3) Energy:               -76.328663681417
   HI-zeta (4) Energy:               -76.351578953363
   Alpha (exponent) Value:             3.000000000000
   Extrapolated Energy:              -76.368300908567

   @Extrapolated MP2/(T,Q):          -76.368300908567



   ==> Helgaker 2-point correlated extrapolation for method: HF <==

   LO-zeta (3) Energy:               -76.060452424036
   HI-zeta (4) Energy:               -76.065826932349
   Alpha (exponent) Value:             3.000000000000
   Extrapolated Energy:              -76.069748870848

   @Extrapolated HF/(T,Q):           -76.069748870848


   ==> Components <==

  ---------------------------------------------------------------------------------------------------------
                          Method / Basis                      Rqd      Energy [Eh]   Variable
  ---------------------------------------------------------------------------------------------------------
                              hf / aug-cc-pvtz                  *     -76.06045242   HF TOTAL ENERGY
                             mp2 / aug-cc-pvtz                  *     -76.32866368   MP2 TOTAL ENERGY
                              hf / aug-cc-pvqz                  *     -76.06582693   HF TOTAL ENERGY
                             mp2 / aug-cc-pvqz                  *     -76.35157895   MP2 TOTAL ENERGY
  ---------------------------------------------------------------------------------------------------------

   ==> Stages <==

  ---------------------------------------------------------------------------------------------------------
      Stage               Method / Basis                       Wt      Energy [Eh]   Scheme
  ---------------------------------------------------------------------------------------------------------
        scf                   hf / aug-cc-pvqz                  1     -76.06582693   xtpl_highest_1
       corl                  mp2 / aug-cc-pv[tq]z               1     -76.36830091   corl_xtpl_helgaker_2
       corl                   hf / aug-cc-pv[tq]z              -1     -76.06974887   corl_xtpl_helgaker_2
  ---------------------------------------------------------------------------------------------------------

   ==> CBS <==

  ---------------------------------------------------------------------------------------------------------
      Stage               Method / Basis                               Energy [Eh]   Scheme
  ---------------------------------------------------------------------------------------------------------
        scf                   hf / aug-cc-pvqz                        -76.06582693   xtpl_highest_1
       corl                  mp2 / aug-cc-pv[tq]z                      -0.29855204   corl_xtpl_helgaker_2
      total                  CBS                                      -76.36437897   
  ---------------------------------------------------------------------------------------------------------
   => Loading Basis Set <=

    Name: DEF2-SVP
    Role: ORBITAL
    Keyword: BASIS
    atoms 1        entry CL         line   356 file /home/bdw2292/miniconda3/envs/amoebamdpoltype/share/psi4/basis/def2-svp.gbs 
    atoms 2        entry C          line    90 file /home/bdw2292/miniconda3/envs/amoebamdpoltype/share/psi4/basis/def2-svp.gbs 
    atoms 3-5, 7-8 entry H          line    15 file /home/bdw2292/miniconda3/envs/amoebamdpoltype/share/psi4/basis/def2-svp.gbs 
    atoms 6        entry O          line   130 file /home/bdw2292/miniconda3/envs/amoebamdpoltype/share/psi4/basis/def2-svp.gbs 


       N-Body: Complex Energy (fragments = (2,), basis = (1, 2):   -76.36437897006753)

       N-Body: Computing complex (3/4) with fragments (1,) in the basis of fragments (1, 2).


  //>>>>>>>>>>>>>>>>>>>>>>>>>>>>>>>>>>>//
  //   CBS Setup: mp2/aug-cc-pV[TQ]Z   //
  //<<<<<<<<<<<<<<<<<<<<<<<<<<<<<<<<<<<//

    Naive listing of computations required.
             hf / aug-cc-pvqz              for  HF TOTAL ENERGY
            mp2 / aug-cc-pvtz              for  MP2 TOTAL ENERGY
            mp2 / aug-cc-pvqz              for  MP2 TOTAL ENERGY
             hf / aug-cc-pvtz              for  HF TOTAL ENERGY
             hf / aug-cc-pvqz              for  HF TOTAL ENERGY

    Enlightened listing of computations required.
            mp2 / aug-cc-pvtz              for  MP2 TOTAL ENERGY
            mp2 / aug-cc-pvqz              for  MP2 TOTAL ENERGY

    Full listing of computations to be obtained (required and bonus).
             hf / aug-cc-pvtz              for  HF TOTAL ENERGY
            mp2 / aug-cc-pvtz              for  MP2 TOTAL ENERGY
             hf / aug-cc-pvqz              for  HF TOTAL ENERGY
            mp2 / aug-cc-pvqz              for  MP2 TOTAL ENERGY

  //>>>>>>>>>>>>>>>>>>>>>>>>>>>>>>>>>>>>//
  // CBS Computation: MP2 / AUG-CC-PVTZ //
  //<<<<<<<<<<<<<<<<<<<<<<<<<<<<<<<<<<<<//

    SCF Algorithm Type (re)set to DF.

*** tstart() called on node37.bme.utexas.edu
*** at Tue Feb 22 17:52:03 2022

   => Loading Basis Set <=

    Name: AUG-CC-PVTZ
    Role: ORBITAL
    Keyword: BASIS
    atoms 1        entry CL         line   984 file /home/bdw2292/miniconda3/envs/amoebamdpoltype/share/psi4/basis/aug-cc-pvtz.gbs 
    atoms 2        entry C          line   235 file /home/bdw2292/miniconda3/envs/amoebamdpoltype/share/psi4/basis/aug-cc-pvtz.gbs 
    atoms 3-5, 7-8 entry H          line    36 file /home/bdw2292/miniconda3/envs/amoebamdpoltype/share/psi4/basis/aug-cc-pvtz.gbs 
    atoms 6        entry O          line   327 file /home/bdw2292/miniconda3/envs/amoebamdpoltype/share/psi4/basis/aug-cc-pvtz.gbs 


         ---------------------------------------------------------
                                   SCF
               by Justin Turney, Rob Parrish, Andy Simmonett
                          and Daniel G. A. Smith
                              RHF Reference
                        4 Threads,  14305 MiB Core
         ---------------------------------------------------------

  ==> Geometry <==

    Molecular point group: c1
    Full point group: C1

    Geometry (in Angstrom), charge = 0, multiplicity = 1:

       Center              X                  Y                   Z               Mass       
    ------------   -----------------  -----------------  -----------------  -----------------
         CL          -0.313302220720     0.836586288635    -0.483648150865    34.968852682000
         C           -1.849640320720     0.051446088635    -0.043103350865    12.000000000000
         H           -1.996477420720    -0.819927511365    -0.681656750865     1.007825032230
         H           -1.798993920720    -0.259268711365     1.000665849135     1.007825032230
         H           -2.666799720720     0.759379288635    -0.181977250865     1.007825032230
      Gh(O)           2.264916579280    -1.639656111365     0.956260649135    15.994914619570
      Gh(H)           1.743271379280    -2.305105011365     1.403424849135     1.007825032230
[...]
      28A      0.108490    29A      0.116114    30A      0.131110  
      31A      0.149397    32A      0.152620    33A      0.164314  
      34A      0.166741    35A      0.171076    36A      0.196215  
      37A      0.199926    38A      0.211202    39A      0.216761  
      40A      0.229613    41A      0.233726    42A      0.237275  
      43A      0.248090    44A      0.249113    45A      0.261730  
      46A      0.271095    47A      0.280571    48A      0.282879  
      49A      0.298330    50A      0.308905    51A      0.314849  
      52A      0.328682    53A      0.328856    54A      0.332435  
      55A      0.346783    56A      0.349079    57A      0.367070  
      58A      0.370137    59A      0.375919    60A      0.385281  
      61A      0.395545    62A      0.404316    63A      0.412214  
      64A      0.437263    65A      0.456154    66A      0.485889  
      67A      0.506566    68A      0.525507    69A      0.535532  
      70A      0.543308    71A      0.550000    72A      0.564468  
      73A      0.566244    74A      0.568887    75A      0.575203  
      76A      0.594818    77A      0.604478    78A      0.608718  
      79A      0.614048    80A      0.630327    81A      0.646184  
      82A      0.662089    83A      0.673591    84A      0.683265  
      85A      0.685167    86A      0.690638    87A      0.698314  
      88A      0.698739    89A      0.709934    90A      0.721676  
      91A      0.725695    92A      0.734039    93A      0.736661  
      94A      0.753112    95A      0.766217    96A      0.771570  
      97A      0.777806    98A      0.780184    99A      0.797632  
     100A      0.800102   101A      0.806773   102A      0.815277  
     103A      0.826494   104A      0.845743   105A      0.865571  
     106A      0.873175   107A      0.880844   108A      0.892918  
     109A      0.902105   110A      0.915140   111A      0.924288  
     112A      0.937145   113A      0.947286   114A      0.972310  
     115A      0.985590   116A      1.004475   117A      1.026389  
     118A      1.033369   119A      1.063419   120A      1.077398  
     121A      1.086273   122A      1.103252   123A      1.125119  
     124A      1.137751   125A      1.152255   126A      1.158960  
     127A      1.169125   128A      1.179900   129A      1.196484  
     130A      1.207114   131A      1.226954   132A      1.243486  
     133A      1.257170   134A      1.262581   135A      1.277586  
     136A      1.288707   137A      1.294519   138A      1.310029  
     139A      1.338151   140A      1.393618   141A      1.424731  
     142A      1.436072   143A      1.451543   144A      1.466704  
     145A      1.487739   146A      1.491319   147A      1.509268  
     148A      1.529599   149A      1.547581   150A      1.595182  
     151A      1.608199   152A      1.619146   153A      1.638894  
     154A      1.642796   155A      1.665241   156A      1.672707  
     157A      1.677831   158A      1.687855   159A      1.700082  
     160A      1.710836   161A      1.716715   162A      1.730024  
     163A      1.737253   164A      1.749257   165A      1.762783  
     166A      1.774039   167A      1.782997   168A      1.792435  
     169A      1.810987   170A      1.822261   171A      1.830348  
     172A      1.836410   173A      1.854593   174A      1.862146  
     175A      1.871342   176A      1.883557   177A      1.896299  
     178A      1.900742   179A      1.918606   180A      1.931630  
     181A      1.942322   182A      1.947651   183A      1.960037  
     184A      1.964651   185A      1.992411   186A      1.996604  
     187A      1.998155   188A      2.001449   189A      2.012213  
     190A      2.022893   191A      2.036968   192A      2.047514  
     193A      2.051889   194A      2.076204   195A      2.083609  
     196A      2.099939   197A      2.110650   198A      2.131429  
     199A      2.144152   200A      2.148068   201A      2.170701  
     202A      2.177667   203A      2.186178   204A      2.211202  
     205A      2.212515   206A      2.222206   207A      2.232261  
     208A      2.240049   209A      2.262811   210A      2.263181  
     211A      2.297906   212A      2.311716   213A      2.320358  
     214A      2.331115   215A      2.350190   216A      2.368536  
     217A      2.388266   218A      2.392486   219A      2.415961  
     220A      2.431597   221A      2.438681   222A      2.470621  
     223A      2.486820   224A      2.520236   225A      2.558150  
     226A      2.583703   227A      2.616239   228A      2.652262  
     229A      2.655356   230A      2.679228   231A      2.695973  
     232A      2.753822   233A      2.758406   234A      2.775862  
     235A      2.792933   236A      2.802457   237A      2.810233  
     238A      2.843915   239A      2.869124   240A      2.905449  
     241A      2.923176   242A      2.958536   243A      2.965678  
     244A      3.001287   245A      3.008699   246A      3.041420  
     247A      3.053630   248A      3.089351   249A      3.092489  
     250A      3.098849   251A      3.126866   252A      3.136193  
     253A      3.160974   254A      3.260417   255A      3.262928  
     256A      3.283163   257A      3.295961   258A      3.335590  
     259A      3.339103   260A      3.413959   261A      3.436712  
     262A      3.463286   263A      3.563917   264A      3.586973  
     265A      3.603893   266A      3.631008   267A      3.657743  
     268A      3.683848   269A      3.700461   270A      3.735987  
     271A      3.778720   272A      3.797685   273A      3.810276  
     274A      3.836052   275A      3.847683   276A      3.856516  
     277A      3.873555   278A      3.898853   279A      3.955455  
     280A      3.961021   281A      4.041536   282A      4.089232  
     283A      4.098833   284A      4.123370   285A      4.139514  
     286A      4.164904   287A      4.177203   288A      4.178875  
     289A      4.204179   290A      4.238448   291A      4.249322  
     292A      4.258325   293A      4.279645   294A      4.341773  
     295A      4.383538   296A      4.431865   297A      4.480763  
     298A      4.499069   299A      4.511899   300A      4.570177  
     301A      4.599452   302A      4.635179   303A      4.649693  
     304A      4.669148   305A      4.677249   306A      4.704901  
     307A      4.718658   308A      4.742125   309A      4.773426  
     310A      4.794467   311A      4.825631   312A      4.837196  
     313A      4.847807   314A      4.860898   315A      4.868384  
     316A      4.887391   317A      4.897520   318A      4.916460  
     319A      4.960846   320A      4.987909   321A      5.018893  
     322A      5.026052   323A      5.045753   324A      5.068654  
     325A      5.084909   326A      5.112000   327A      5.186886  
     328A      5.222640   329A      5.290584   330A      5.349747  
     331A      5.371681   332A      5.410520   333A      5.480951  
     334A      5.558942   335A      5.584668   336A      5.632028  
     337A      5.904167   338A      5.929028   339A      6.109972  
     340A      6.114002   341A      6.163472   342A      6.201487  
     343A      6.261562   344A      6.322495   345A      6.367336  
     346A      6.374908   347A      6.442400   348A      6.603921  
     349A      6.626487   350A      6.692370   351A      6.698834  
     352A      6.736099   353A      6.792420   354A      6.811292  
     355A      6.847600   356A      6.859228   357A      6.872327  
     358A      6.882308   359A      6.947354   360A      6.950157  
     361A      6.959323   362A      6.964993   363A      6.978321  
     364A      6.999209   365A      7.078974   366A      7.093311  
     367A      7.146421   368A      7.306424   369A      7.323475  
     370A      7.347670   371A      7.447575   372A      7.574055  
     373A      7.600997   374A      7.613266   375A      7.685988  
     376A      7.689544   377A      7.766666   378A      7.786090  
     379A      7.809132   380A      7.858549   381A      7.873165  
     382A      7.876521   383A      7.888373   384A      7.894353  
     385A      7.923090   386A      7.950724   387A      7.998563  
     388A      8.073974   389A      8.214521   390A      8.271662  
     391A      8.279828   392A      8.388422   393A      8.397507  
     394A      8.404812   395A      8.415803   396A      8.519353  
     397A      8.593732   398A      8.599847   399A      8.618040  
     400A      8.620635   401A      8.773144   402A      8.798340  
     403A      8.859944   404A      8.868735   405A      8.897009  
     406A      8.933262   407A      8.934388   408A      9.005224  
     409A      9.014845   410A      9.125133   411A      9.156938  
     412A      9.181159   413A      9.192092   414A      9.204856  
     415A      9.223540   416A      9.413563   417A      9.431015  
     418A      9.562209   419A      9.565003   420A      9.568621  
     421A      9.587630   422A      9.675238   423A      9.684868  
     424A      9.886470   425A      9.944787   426A      9.984843  
     427A      9.996657   428A     10.030367   429A     10.038968  
     430A     10.130265   431A     10.132781   432A     10.332414  
     433A     10.335698   434A     10.378296   435A     10.468304  
     436A     10.544565   437A     10.772185   438A     10.786009  
     439A     10.800099   440A     10.847882   441A     10.960700  
     442A     10.974366   443A     11.026749   444A     11.072665  
     445A     11.172380   446A     11.290132   447A     11.409250  
     448A     11.437017   449A     11.478106   450A     11.720994  
     451A     11.841779   452A     11.884670   453A     12.061424  
     454A     12.203733   455A     12.280609   456A     12.588199  
     457A     12.786008   458A     12.901308   459A     12.911795  
     460A     13.122681   461A     13.144090   462A     13.248295  
     463A     13.323950   464A     14.018569   465A     14.153293  
     466A     14.507235   467A     14.859328   468A     14.911854  
     469A     15.335986   470A     16.993022   471A     17.300159  
     472A     26.449391   473A     28.629040   474A     45.675438  

    Final Occupation by Irrep:
              A 
    DOCC [    18 ]

  @DF-RHF Final Energy:  -575.22180912637884

   => Energetics <=

    Nuclear Repulsion Energy =             94.9387033949682007
    One-Electron Energy =                -981.8350035020165478
    Two-Electron Energy =                 311.6744909806694750
    Total Energy =                       -575.2218091263788438

Computation Completed


Properties will be evaluated at   0.000000,  -0.000000,   0.000000 [a0]

Properties computed using the SCF density matrix

  Nuclear Dipole Moment: [e a0]
     X:    -2.5632      Y:    -4.1649      Z:     2.4329

  Electronic Dipole Moment: [e a0]
     X:     1.0141      Y:     3.8639      Z:    -2.2291

  Dipole Moment: [e a0]
     X:    -1.5492      Y:    -0.3009      Z:     0.2038     Total:     1.5913

  Dipole Moment: [D]
     X:    -3.9376      Y:    -0.7649      Z:     0.5181     Total:     4.0446


*** tstop() called on node37.bme.utexas.edu at Tue Feb 22 17:54:21 2022
Module time:
	user time   =      94.44 seconds =       1.57 minutes
	system time =       5.41 seconds =       0.09 minutes
	total time  =         37 seconds =       0.62 minutes
Total time:
	user time   =     484.58 seconds =       8.08 minutes
	system time =      31.57 seconds =       0.53 minutes
	total time  =        208 seconds =       3.47 minutes

*** tstart() called on node37.bme.utexas.edu
*** at Tue Feb 22 17:54:21 2022


  //>>>>>>>>>>>>>>>>>>>>>>>>>>>>>>>>>>>//
  //               DFMP2               //
  //<<<<<<<<<<<<<<<<<<<<<<<<<<<<<<<<<<<//

   => Loading Basis Set <=

    Name: (AUG-CC-PVQZ AUX)
    Role: RIFIT
    Keyword: DF_BASIS_MP2
    atoms 1        entry CL         line   914 file /home/bdw2292/miniconda3/envs/amoebamdpoltype/share/psi4/basis/aug-cc-pvqz-ri.gbs 
    atoms 2        entry C          line   184 file /home/bdw2292/miniconda3/envs/amoebamdpoltype/share/psi4/basis/aug-cc-pvqz-ri.gbs 
    atoms 3-5, 7-8 entry H          line    30 file /home/bdw2292/miniconda3/envs/amoebamdpoltype/share/psi4/basis/aug-cc-pvqz-ri.gbs 
    atoms 6        entry O          line   332 file /home/bdw2292/miniconda3/envs/amoebamdpoltype/share/psi4/basis/aug-cc-pvqz-ri.gbs 

	 --------------------------------------------------------
	                          DF-MP2                         
	      2nd-Order Density-Fitted Moller-Plesset Theory     
	              RMP2 Wavefunction,   4 Threads             
	                                                         
	        Rob Parrish, Justin Turney, Andy Simmonett,      
	           Ed Hohenstein, and C. David Sherrill          
	 --------------------------------------------------------

   => Auxiliary Basis Set <=

  Basis Set: (AUG-CC-PVQZ AUX)
    Blend: AUG-CC-PVQZ-RI
    Number of shells: 216
    Number of basis function: 930
    Number of Cartesian functions: 1267
    Spherical Harmonics?: true
    Max angular momentum: 5

	 --------------------------------------------------------
	                 NBF =   474, NAUX =   930
	 --------------------------------------------------------
	   CLASS    FOCC     OCC    AOCC    AVIR     VIR    FVIR
	   PAIRS       7      18      11     456     456       0
	 --------------------------------------------------------

	-----------------------------------------------------------
	 ==================> DF-MP2 Energies <==================== 
	-----------------------------------------------------------
	 Reference Energy          =    -575.2218091263788438 [Eh]
	 Singles Energy            =      -0.0000000000000000 [Eh]
	 Same-Spin Energy          =      -0.1560598690976844 [Eh]
	 Opposite-Spin Energy      =      -0.5382202057782373 [Eh]
	 Correlation Energy        =      -0.6942800748759217 [Eh]
	 Total Energy              =    -575.9160892012547492 [Eh]
	-----------------------------------------------------------
	 ================> DF-SCS-MP2 Energies <================== 
	-----------------------------------------------------------
	 SCS Same-Spin Scale       =       0.3333333333333333 [-]
	 SCS Opposite-Spin Scale   =       1.2000000000000000 [-]
	 SCS Same-Spin Energy      =      -0.0520199563658948 [Eh]
	 SCS Opposite-Spin Energy  =      -0.6458642469338847 [Eh]
	 SCS Correlation Energy    =      -0.6978842032997795 [Eh]
	 SCS Total Energy          =    -575.9196933296785801 [Eh]
	-----------------------------------------------------------


*** tstop() called on node37.bme.utexas.edu at Tue Feb 22 17:54:35 2022
Module time:
	user time   =      32.81 seconds =       0.55 minutes
	system time =       2.85 seconds =       0.05 minutes
	total time  =         14 seconds =       0.23 minutes
Total time:
	user time   =     517.39 seconds =       8.62 minutes
	system time =      34.42 seconds =       0.57 minutes
	total time  =        222 seconds =       3.70 minutes

  //>>>>>>>>>>>>>>>>>>>>>>>>>>>>>>>>>>>//
  //  CBS Results: mp2/aug-cc-pV[TQ]Z  //
  //<<<<<<<<<<<<<<<<<<<<<<<<<<<<<<<<<<<//


   ==> HF <==

   HI-zeta (4) Energy:               -575.221809126379


   ==> Helgaker 2-point correlated extrapolation for method: MP2 <==

   LO-zeta (3) Energy:               -575.860466848570
   HI-zeta (4) Energy:               -575.916089201255
   Alpha (exponent) Value:             3.000000000000
   Extrapolated Energy:              -575.956678485646

   @Extrapolated MP2/(T,Q):          -575.956678485646



   ==> Helgaker 2-point correlated extrapolation for method: HF <==

   LO-zeta (3) Energy:               -575.210372213282
   HI-zeta (4) Energy:               -575.221809126379
   Alpha (exponent) Value:             3.000000000000
   Extrapolated Energy:              -575.230154981882

   @Extrapolated HF/(T,Q):           -575.230154981882


   ==> Components <==

  ---------------------------------------------------------------------------------------------------------
                          Method / Basis                      Rqd      Energy [Eh]   Variable
  ---------------------------------------------------------------------------------------------------------
                              hf / aug-cc-pvtz                  *    -575.21037221   HF TOTAL ENERGY
                             mp2 / aug-cc-pvtz                  *    -575.86046685   MP2 TOTAL ENERGY
                              hf / aug-cc-pvqz                  *    -575.22180913   HF TOTAL ENERGY
                             mp2 / aug-cc-pvqz                  *    -575.91608920   MP2 TOTAL ENERGY
  ---------------------------------------------------------------------------------------------------------

   ==> Stages <==

  ---------------------------------------------------------------------------------------------------------
      Stage               Method / Basis                       Wt      Energy [Eh]   Scheme
  ---------------------------------------------------------------------------------------------------------
        scf                   hf / aug-cc-pvqz                  1    -575.22180913   xtpl_highest_1
       corl                  mp2 / aug-cc-pv[tq]z               1    -575.95667849   corl_xtpl_helgaker_2
       corl                   hf / aug-cc-pv[tq]z              -1    -575.23015498   corl_xtpl_helgaker_2
  ---------------------------------------------------------------------------------------------------------

   ==> CBS <==

  ---------------------------------------------------------------------------------------------------------
      Stage               Method / Basis                               Energy [Eh]   Scheme
  ---------------------------------------------------------------------------------------------------------
        scf                   hf / aug-cc-pvqz                       -575.22180913   xtpl_highest_1
       corl                  mp2 / aug-cc-pv[tq]z                      -0.72652350   corl_xtpl_helgaker_2
      total                  CBS                                     -575.94833263   
  ---------------------------------------------------------------------------------------------------------
   => Loading Basis Set <=

    Name: DEF2-SVP
    Role: ORBITAL
    Keyword: BASIS
    atoms 1        entry CL         line   356 file /home/bdw2292/miniconda3/envs/amoebamdpoltype/share/psi4/basis/def2-svp.gbs 
    atoms 2        entry C          line    90 file /home/bdw2292/miniconda3/envs/amoebamdpoltype/share/psi4/basis/def2-svp.gbs 
    atoms 3-5, 7-8 entry H          line    15 file /home/bdw2292/miniconda3/envs/amoebamdpoltype/share/psi4/basis/def2-svp.gbs 
    atoms 6        entry O          line   130 file /home/bdw2292/miniconda3/envs/amoebamdpoltype/share/psi4/basis/def2-svp.gbs 


       N-Body: Complex Energy (fragments = (1, 2), basis = (1, 2):  -575.94833263014311)

   ==> N-Body: Counterpoise Corrected (CP) energies <==

   n-Body     Total Energy [Eh]       I.E. [kcal/mol]      Delta [kcal/mol]
        1     -575.945672468300        0.000000000000        0.000000000000
        2     -575.948287855746       -1.641180399669       -1.641180399669

   => Loading Basis Set <=

    Name: DEF2-SVP
    Role: ORBITAL
    Keyword: BASIS
    atoms 1        entry CL         line   356 file /home/bdw2292/miniconda3/envs/amoebamdpoltype/share/psi4/basis/def2-svp.gbs 
    atoms 2        entry C          line    90 file /home/bdw2292/miniconda3/envs/amoebamdpoltype/share/psi4/basis/def2-svp.gbs 
    atoms 3-5, 7-8 entry H          line    15 file /home/bdw2292/miniconda3/envs/amoebamdpoltype/share/psi4/basis/def2-svp.gbs 
    atoms 6        entry O          line   130 file /home/bdw2292/miniconda3/envs/amoebamdpoltype/share/psi4/basis/def2-svp.gbs 

CP Energy =  -0.002615
    Psi4 stopped on: Tuesday, 22 February 2022 05:54PM
    Psi4 wall time for execution: 0:03:43.66

*** Psi4 exiting successfully. Buy a developer a beer!
