
    -----------------------------------------------------------------------
          Psi4: An Open-Source Ab Initio Electronic Structure Package
                               Psi4 1.3.2 release

                         Git: Rev {HEAD} ecbda83 


    R. M. Parrish, L. A. Burns, D. G. A. Smith, A. C. Simmonett,
    A. E. DePrince III, E. G. Hohenstein, U. Bozkaya, A. Yu. Sokolov,
    R. Di Remigio, R. M. Richard, J. F. Gonthier, A. M. James,
    H. R. McAlexander, A. Kumar, M. Saitow, X. Wang, B. P. Pritchard,
    P. Verma, H. F. Schaefer III, K. Patkowski, R. A. King, E. F. Valeev,
    F. A. Evangelista, J. M. Turney, T. D. Crawford, and C. D. Sherrill,
    J. Chem. Theory Comput. 13(7) pp 3185--3197 (2017).
    (doi: 10.1021/acs.jctc.7b00174)


                         Additional Contributions by
    P. Kraus, H. Kruse, M. H. Lechner, M. C. Schieber, R. A. Shaw,
    A. Alenaizan, R. Galvelis, Z. L. Glick, S. Lehtola, and J. P. Misiewicz

    -----------------------------------------------------------------------


    Psi4 started on: Tuesday, 22 February 2022 06:04PM

    Process ID: 28899
    Host:       node37.bme.utexas.edu
    PSIDATADIR: /home/bdw2292/miniconda3/envs/amoebamdpoltype/share/psi4
    Memory:     500.0 MiB
    Threads:    1
    
  ==> Input File <==

--------------------------------------------------------------------------
molecule { 
0 1
 Cl                 -0.0649832    -0.8758863    -1.3634788
  C                 -0.8615178    -0.1109893     0.0354210
  H                 -1.8997533    -0.4392969     0.0837063
  H                 -0.3333493    -0.4029180     0.9437515
  H                 -0.8158170     0.9717065    -0.0827292
--
0 1
  O                  2.5855932     0.9203184     0.4053964
  H                  2.3025440     0.3552924    -0.3159817
  H                  3.2505327     1.5210992     0.0694355
}
memory 15GB
set_num_threads(4)
psi4_io.set_default_path("/scratch/bdw2292/Psi4-CH3Cl")
set maxiter 500
set freeze_core True
set PROPERTIES_ORIGIN ["COM"]
e_dim= energy('mp2/aug-cc-pV[TQ]Z',bsse_type='cp')

psi4.print_out('CP Energy = %10.6f' % (e_dim))
clean()
--------------------------------------------------------------------------

  Memory set to  13.970 GiB by Python driver.
  Threads set to 4 by Python driver.


   ===> N-Body Interaction Abacus <===
        BSSE Treatment:                     cp
        Number of 1-body computations:     4
        Number of 2-body computations:     1

   ==> N-Body: Now computing 1-body complexes <==


       N-Body: Computing complex (1/4) with fragments (2,) in the basis of fragments (2,).


  //>>>>>>>>>>>>>>>>>>>>>>>>>>>>>>>>>>>//
  //   CBS Setup: mp2/aug-cc-pV[TQ]Z   //
  //<<<<<<<<<<<<<<<<<<<<<<<<<<<<<<<<<<<//

    Naive listing of computations required.
             hf / aug-cc-pvqz              for  HF TOTAL ENERGY
            mp2 / aug-cc-pvtz              for  MP2 TOTAL ENERGY
            mp2 / aug-cc-pvqz              for  MP2 TOTAL ENERGY
             hf / aug-cc-pvtz              for  HF TOTAL ENERGY
             hf / aug-cc-pvqz              for  HF TOTAL ENERGY

    Enlightened listing of computations required.
            mp2 / aug-cc-pvtz              for  MP2 TOTAL ENERGY
            mp2 / aug-cc-pvqz              for  MP2 TOTAL ENERGY

    Full listing of computations to be obtained (required and bonus).
             hf / aug-cc-pvtz              for  HF TOTAL ENERGY
            mp2 / aug-cc-pvtz              for  MP2 TOTAL ENERGY
             hf / aug-cc-pvqz              for  HF TOTAL ENERGY
            mp2 / aug-cc-pvqz              for  MP2 TOTAL ENERGY

  //>>>>>>>>>>>>>>>>>>>>>>>>>>>>>>>>>>>>//
  // CBS Computation: MP2 / AUG-CC-PVTZ //
  //<<<<<<<<<<<<<<<<<<<<<<<<<<<<<<<<<<<<//

    SCF Algorithm Type (re)set to DF.

*** tstart() called on node37.bme.utexas.edu
*** at Tue Feb 22 18:04:50 2022

   => Loading Basis Set <=

    Name: AUG-CC-PVTZ
    Role: ORBITAL
    Keyword: BASIS
    atoms 1   entry O          line   327 file /home/bdw2292/miniconda3/envs/amoebamdpoltype/share/psi4/basis/aug-cc-pvtz.gbs 
    atoms 2-3 entry H          line    36 file /home/bdw2292/miniconda3/envs/amoebamdpoltype/share/psi4/basis/aug-cc-pvtz.gbs 


         ---------------------------------------------------------
                                   SCF
               by Justin Turney, Rob Parrish, Andy Simmonett
                          and Daniel G. A. Smith
                              RHF Reference
                        4 Threads,  14305 MiB Core
         ---------------------------------------------------------

  ==> Geometry <==

    Molecular point group: c1
    Full point group: C1

    Geometry (in Angstrom), charge = 0, multiplicity = 1:

       Center              X                  Y                   Z               Mass       
    ------------   -----------------  -----------------  -----------------  -----------------
         O            2.125767271941     1.144112072713     0.994581791038    15.994914619570
         H            1.842718071941     0.579086072713     0.273203691038     1.007825032230
         H            2.790706771941     1.744892872713     0.658620891038     1.007825032230

  Running in c1 symmetry.

  Rotational constants: A =     22.66498  B =      0.13632  C =      0.13589 [cm^-1]
  Rotational constants: A = 679478.99596  B =   4086.81464  C =   4073.91739 [MHz]
  Nuclear repulsion =    9.178742766157097

  Charge       = 0
  Multiplicity = 1
  Electrons    = 10
  Nalpha       = 5
  Nbeta        = 5

  ==> Algorithm <==

  SCF Algorithm Type is DF.
  DIIS enabled.
  MOM disabled.
  Fractional occupation disabled.
  Guess Type is SAD.
  Energy threshold   = 1.00e-08
  Density threshold  = 1.00e-08
  Integral threshold = 0.00e+00

  ==> Primary Basis <==

  Basis Set: AUG-CC-PVTZ
    Blend: AUG-CC-PVTZ
    Number of shells: 32
    Number of basis function: 92
    Number of Cartesian functions: 105
    Spherical Harmonics?: true
    Max angular momentum: 3

   => Loading Basis Set <=

    Name: (AUG-CC-PVTZ AUX)
    Role: JKFIT
    Keyword: DF_BASIS_SCF
    atoms 1   entry O          line   286 file /home/bdw2292/miniconda3/envs/amoebamdpoltype/share/psi4/basis/aug-cc-pvtz-jkfit.gbs 
    atoms 2-3 entry H          line    70 file /home/bdw2292/miniconda3/envs/amoebamdpoltype/share/psi4/basis/aug-cc-pvtz-jkfit.gbs 

  ==> Pre-Iterations <==

   -------------------------------------------------------
    Irrep   Nso     Nmo     Nalpha   Nbeta   Ndocc  Nsocc
   -------------------------------------------------------
     A         92      92       0       0       0       0
   -------------------------------------------------------
    Total      92      92       5       5       5       0
   -------------------------------------------------------

  ==> Integral Setup <==

  DFHelper Memory: AOs need 0.015 GiB; user supplied 10.477 GiB. Using in-core AOs.

  ==> MemDFJK: Density-Fitted J/K Matrices <==

    J tasked:                   Yes
    K tasked:                   Yes
    wK tasked:                   No
    OpenMP threads:               4
    Memory [MiB]:             10728
    Algorithm:                 Core
    Schwarz Cutoff:           1E-12
    Mask sparsity (%):       0.0000
    Fitting Condition:        1E-10

   => Auxiliary Basis Set <=

  Basis Set: (AUG-CC-PVTZ AUX)
    Blend: AUG-CC-PVTZ-JKFIT
    Number of shells: 58
    Number of basis function: 196
    Number of Cartesian functions: 241
    Spherical Harmonics?: true
    Max angular momentum: 4

  Minimum eigenvalue in the overlap matrix is 3.7831923473E-04.
  Using Symmetric Orthogonalization.

  SCF Guess: Superposition of Atomic Densities via on-the-fly atomic UHF.

  ==> Iterations <==

                           Total Energy        Delta E     RMS |[F,P]|

   @DF-RHF iter SAD:   -75.47358576399795   -7.54736e+01   0.00000e+00 
   @DF-RHF iter   1:   -75.97652930124954   -5.02944e-01   5.09341e-03 DIIS
   @DF-RHF iter   2:   -76.02893783990602   -5.24085e-02   3.45451e-03 DIIS
   @DF-RHF iter   3:   -76.06001873467235   -3.10809e-02   2.34643e-04 DIIS
   @DF-RHF iter   4:   -76.06040894387537   -3.90209e-04   5.60768e-05 DIIS
   @DF-RHF iter   5:   -76.06043299298888   -2.40491e-05   1.26329e-05 DIIS
   @DF-RHF iter   6:   -76.06043495766731   -1.96468e-06   2.80891e-06 DIIS
   @DF-RHF iter   7:   -76.06043506565365   -1.07986e-07   5.29240e-07 DIIS
   @DF-RHF iter   8:   -76.06043506905223   -3.39858e-09   8.79265e-08 DIIS
   @DF-RHF iter   9:   -76.06043506912638   -7.41522e-11   2.18708e-08 DIIS
   @DF-RHF iter  10:   -76.06043506913038   -3.99325e-12   2.99458e-09 DIIS
  Energy and wave function converged.


  ==> Post-Iterations <==

    Orbital Energies [Eh]
    ---------------------

    Doubly Occupied:                                                      

       1A    -20.565726     2A     -1.350644     3A     -0.724219  
       4A     -0.577784     5A     -0.509223  

    Virtual:                                                              

       6A      0.029647     7A      0.047459     8A      0.136442  
       9A      0.157942    10A      0.174323    11A      0.182106  
      12A      0.228703    13A      0.244480    14A      0.263948  
      15A      0.304382    16A      0.312986    17A      0.365256  
      18A      0.437862    19A      0.466707    20A      0.602004  
      21A      0.654530    22A      0.710942    23A      0.719520  
      24A      0.731335    25A      0.828062    26A      0.843850  
      27A      0.890184    28A      0.912839    29A      0.920743  
      30A      0.923565    31A      0.928078    32A      0.970583  
      33A      1.022734    34A      1.045089    35A      1.084937  
      36A      1.113603    37A      1.172928    38A      1.177531  
      39A      1.259745    40A      1.514028    41A      1.561870  
      42A      1.594873    43A      1.787278    44A      1.797844  
      45A      2.001711    46A      2.115640    47A      2.259872  
      48A      2.318349    49A      2.321430    50A      2.413921  
      51A      2.414844    52A      2.438917    53A      2.472037  
      54A      2.686316    55A      2.702861    56A      2.767606  
      57A      2.854325    58A      2.883784    59A      3.645219  
      60A      3.767917    61A      4.007538    62A      4.089440  
      63A      4.208878    64A      4.231936    65A      4.332843  
      66A      4.381409    67A      4.400787    68A      4.413359  
      69A      4.494871    70A      4.708534    71A      4.814530  
      72A      5.124352    73A      5.170307    74A      5.301821  
      75A      5.329154    76A      5.513137    77A      5.717358  
      78A      6.142116    79A      6.533427    80A      6.713474  
      81A      6.861117    82A      7.145576    83A      7.261615  
      84A      7.301099    85A      7.308216    86A      7.370267  
      87A      7.381718    88A      7.556032    89A      7.898602  
      90A      7.959664    91A      8.788930    92A     15.841032  

    Final Occupation by Irrep:
              A 
    DOCC [     5 ]

  @DF-RHF Final Energy:   -76.06043506913038

   => Energetics <=

    Nuclear Repulsion Energy =              9.1787427661570966
    One-Electron Energy =                -123.0231637656999624
    Two-Electron Energy =                  37.7839859304124843
    Total Energy =                        -76.0604350691303779

Computation Completed


Properties will be evaluated at   4.057501,   2.165839,   1.767680 [a0]

Properties computed using the SCF density matrix

  Nuclear Dipole Moment: [e a0]
     X:     0.3178      Y:     0.0298      Z:    -0.8800

  Electronic Dipole Moment: [e a0]
     X:    -0.0608      Y:    -0.0055      Z:     0.1689

  Dipole Moment: [e a0]
     X:     0.2571      Y:     0.0243      Z:    -0.7111     Total:     0.7565

  Dipole Moment: [D]
     X:     0.6534      Y:     0.0617      Z:    -1.8075     Total:     1.9229


*** tstop() called on node37.bme.utexas.edu at Tue Feb 22 18:04:54 2022
Module time:
	user time   =       5.46 seconds =       0.09 minutes
	system time =       0.37 seconds =       0.01 minutes
	total time  =          4 seconds =       0.07 minutes
Total time:
	user time   =       5.46 seconds =       0.09 minutes
	system time =       0.37 seconds =       0.01 minutes
	total time  =          4 seconds =       0.07 minutes

*** tstart() called on node37.bme.utexas.edu
*** at Tue Feb 22 18:04:54 2022


  //>>>>>>>>>>>>>>>>>>>>>>>>>>>>>>>>>>>//
  //               DFMP2               //
  //<<<<<<<<<<<<<<<<<<<<<<<<<<<<<<<<<<<//

   => Loading Basis Set <=

    Name: (AUG-CC-PVTZ AUX)
    Role: RIFIT
    Keyword: DF_BASIS_MP2
    atoms 1   entry O          line   264 file /home/bdw2292/miniconda3/envs/amoebamdpoltype/share/psi4/basis/aug-cc-pvtz-ri.gbs 
    atoms 2-3 entry H          line    30 file /home/bdw2292/miniconda3/envs/amoebamdpoltype/share/psi4/basis/aug-cc-pvtz-ri.gbs 

	 --------------------------------------------------------
	                          DF-MP2                         
	      2nd-Order Density-Fitted Moller-Plesset Theory     
	              RMP2 Wavefunction,   4 Threads             
	                                                         
	        Rob Parrish, Justin Turney, Andy Simmonett,      
	           Ed Hohenstein, and C. David Sherrill          
	 --------------------------------------------------------

   => Auxiliary Basis Set <=

  Basis Set: (AUG-CC-PVTZ AUX)
    Blend: AUG-CC-PVTZ-RI
    Number of shells: 56
    Number of basis function: 198
    Number of Cartesian functions: 246
    Spherical Harmonics?: true
    Max angular momentum: 4

	 --------------------------------------------------------
	                 NBF =    92, NAUX =   198
	 --------------------------------------------------------
	   CLASS    FOCC     OCC    AOCC    AVIR     VIR    FVIR
	   PAIRS       1       5       4      87      87       0
	 --------------------------------------------------------

	-----------------------------------------------------------
	 ==================> DF-MP2 Energies <==================== 
	-----------------------------------------------------------
	 Reference Energy          =     -76.0604350691303779 [Eh]
	 Singles Energy            =      -0.0000000000000000 [Eh]
	 Same-Spin Energy          =      -0.0651071392583957 [Eh]
	 Opposite-Spin Energy      =      -0.2030207639408902 [Eh]
	 Correlation Energy        =      -0.2681279031992859 [Eh]
	 Total Energy              =     -76.3285629723296637 [Eh]
	-----------------------------------------------------------
	 ================> DF-SCS-MP2 Energies <================== 
	-----------------------------------------------------------
	 SCS Same-Spin Scale       =       0.3333333333333333 [-]
	 SCS Opposite-Spin Scale   =       1.2000000000000000 [-]
	 SCS Same-Spin Energy      =      -0.0217023797527986 [Eh]
	 SCS Opposite-Spin Energy  =      -0.2436249167290682 [Eh]
	 SCS Correlation Energy    =      -0.2653272964818668 [Eh]
	 SCS Total Energy          =     -76.3257623656122490 [Eh]
	-----------------------------------------------------------


*** tstop() called on node37.bme.utexas.edu at Tue Feb 22 18:04:55 2022
Module time:
	user time   =       1.75 seconds =       0.03 minutes
	system time =       0.13 seconds =       0.00 minutes
	total time  =          1 seconds =       0.02 minutes
Total time:
	user time   =       7.21 seconds =       0.12 minutes
	system time =       0.50 seconds =       0.01 minutes
	total time  =          5 seconds =       0.08 minutes

  //>>>>>>>>>>>>>>>>>>>>>>>>>>>>>>>>>>>>//
  // CBS Computation: MP2 / AUG-CC-PVQZ //
  //<<<<<<<<<<<<<<<<<<<<<<<<<<<<<<<<<<<<//

    SCF Algorithm Type (re)set to DF.

*** tstart() called on node37.bme.utexas.edu
*** at Tue Feb 22 18:04:55 2022

   => Loading Basis Set <=

    Name: AUG-CC-PVQZ
    Role: ORBITAL
    Keyword: BASIS
    atoms 1   entry O          line   419 file /home/bdw2292/miniconda3/envs/amoebamdpoltype/share/psi4/basis/aug-cc-pvqz.gbs 
    atoms 2-3 entry H          line    36 file /home/bdw2292/miniconda3/envs/amoebamdpoltype/share/psi4/basis/aug-cc-pvqz.gbs 


         ---------------------------------------------------------
                                   SCF
               by Justin Turney, Rob Parrish, Andy Simmonett
                          and Daniel G. A. Smith
                              RHF Reference
                        4 Threads,  14305 MiB Core
         ---------------------------------------------------------

  ==> Geometry <==

    Molecular point group: c1
    Full point group: C1

    Geometry (in Angstrom), charge = 0, multiplicity = 1:

       Center              X                  Y                   Z               Mass       
    ------------   -----------------  -----------------  -----------------  -----------------
         O            2.125767271941     1.144112072713     0.994581791038    15.994914619570
         H            1.842718071941     0.579086072713     0.273203691038     1.007825032230
         H            2.790706771941     1.744892872713     0.658620891038     1.007825032230

  Running in c1 symmetry.

  Rotational constants: A =     22.66498  B =      0.13632  C =      0.13589 [cm^-1]
  Rotational constants: A = 679478.99596  B =   4086.81464  C =   4073.91739 [MHz]
  Nuclear repulsion =    9.178742766157097

  Charge       = 0
  Multiplicity = 1
  Electrons    = 10
  Nalpha       = 5
  Nbeta        = 5

  ==> Algorithm <==

  SCF Algorithm Type is DF.
  DIIS enabled.
  MOM disabled.
  Fractional occupation disabled.
  Guess Type is SAD.
  Energy threshold   = 1.00e-08
  Density threshold  = 1.00e-08
  Integral threshold = 0.00e+00

  ==> Primary Basis <==

  Basis Set: AUG-CC-PVQZ
    Blend: AUG-CC-PVQZ
    Number of shells: 48
    Number of basis function: 172
    Number of Cartesian functions: 215
    Spherical Harmonics?: true
    Max angular momentum: 4

   => Loading Basis Set <=

    Name: (AUG-CC-PVQZ AUX)
    Role: JKFIT
    Keyword: DF_BASIS_SCF
    atoms 1   entry O          line   318 file /home/bdw2292/miniconda3/envs/amoebamdpoltype/share/psi4/basis/aug-cc-pvqz-jkfit.gbs 
    atoms 2-3 entry H          line    70 file /home/bdw2292/miniconda3/envs/amoebamdpoltype/share/psi4/basis/aug-cc-pvqz-jkfit.gbs 

  ==> Pre-Iterations <==

   -------------------------------------------------------
    Irrep   Nso     Nmo     Nalpha   Nbeta   Ndocc  Nsocc
   -------------------------------------------------------
     A        172     172       0       0       0       0
   -------------------------------------------------------
    Total     172     172       5       5       5       0
   -------------------------------------------------------

  ==> Integral Setup <==

  DFHelper Memory: AOs need 0.074 GiB; user supplied 10.477 GiB. Using in-core AOs.

  ==> MemDFJK: Density-Fitted J/K Matrices <==

    J tasked:                   Yes
    K tasked:                   Yes
    wK tasked:                   No
    OpenMP threads:               4
    Memory [MiB]:             10728
    Algorithm:                 Core
    Schwarz Cutoff:           1E-12
    Mask sparsity (%):       0.0000
    Fitting Condition:        1E-10

   => Auxiliary Basis Set <=

  Basis Set: (AUG-CC-PVQZ AUX)
    Blend: AUG-CC-PVQZ-JKFIT
    Number of shells: 70
    Number of basis function: 294
    Number of Cartesian functions: 400
    Spherical Harmonics?: true
    Max angular momentum: 5

  Minimum eigenvalue in the overlap matrix is 8.5630431205E-05.
  Using Symmetric Orthogonalization.

  SCF Guess: Superposition of Atomic Densities via on-the-fly atomic UHF.

  ==> Iterations <==

                           Total Energy        Delta E     RMS |[F,P]|

   @DF-RHF iter SAD:   -75.47874036753566   -7.54787e+01   0.00000e+00 
   @DF-RHF iter   1:   -75.98160924100380   -5.02869e-01   2.73017e-03 DIIS
   @DF-RHF iter   2:   -76.03412168194001   -5.25124e-02   1.85599e-03 DIIS
   @DF-RHF iter   3:   -76.06540064607128   -3.12790e-02   1.26424e-04 DIIS
   @DF-RHF iter   4:   -76.06579291949440   -3.92273e-04   3.09137e-05 DIIS
   @DF-RHF iter   5:   -76.06581787042256   -2.49509e-05   6.93848e-06 DIIS
   @DF-RHF iter   6:   -76.06581991762486   -2.04720e-06   1.58417e-06 DIIS
   @DF-RHF iter   7:   -76.06582003690941   -1.19285e-07   3.08078e-07 DIIS
   @DF-RHF iter   8:   -76.06582004091564   -4.00622e-09   4.93680e-08 DIIS
   @DF-RHF iter   9:   -76.06582004099934   -8.37019e-11   1.19637e-08 DIIS
   @DF-RHF iter  10:   -76.06582004100352   -4.17799e-12   1.66962e-09 DIIS
  Energy and wave function converged.


  ==> Post-Iterations <==

    Orbital Energies [Eh]
    ---------------------

    Doubly Occupied:                                                      

       1A    -20.563270     2A     -1.349918     3A     -0.724185  
       4A     -0.577836     5A     -0.509353  

    Virtual:                                                              

       6A      0.027128     7A      0.042889     8A      0.114662  
       9A      0.132688    10A      0.150394    11A      0.157915  
      12A      0.185898    13A      0.197103    14A      0.208336  
      15A      0.241041    16A      0.258802    17A      0.290489  
      18A      0.357995    19A      0.390504    20A      0.471647  
      21A      0.506839    22A      0.542960    23A      0.545802  
      24A      0.554312    25A      0.613322    26A      0.634128  
      27A      0.649413    28A      0.662723    29A      0.665883  
      30A      0.689916    31A      0.705271    32A      0.715113  
      33A      0.769520    34A      0.787578    35A      0.803440  
      36A      0.809263    37A      0.846469    38A      0.855350  
      39A      0.967531    40A      1.134264    41A      1.139870  
      42A      1.216056    43A      1.329192    44A      1.419406  
      45A      1.480446    46A      1.506335    47A      1.520982  
      48A      1.525220    49A      1.555718    50A      1.595342  
      51A      1.618225    52A      1.636558    53A      1.659871  
      54A      1.671851    55A      1.686259    56A      1.702563  
      57A      1.720777    58A      1.762711    59A      1.780500  
      60A      1.792638    61A      1.829164    62A      1.863085  
      63A      1.882519    64A      1.901349    65A      1.955387  
      66A      2.013772    67A      2.022636    68A      2.029838  
      69A      2.099282    70A      2.217970    71A      2.225332  
      72A      2.307284    73A      2.488630    74A      2.640869  
      75A      2.642176    76A      2.889988    77A      2.961699  
      78A      3.009052    79A      3.024662    80A      3.060905  
      81A      3.087861    82A      3.255122    83A      3.284449  
      84A      3.307896    85A      3.527185    86A      3.591080  
      87A      3.657007    88A      3.683136    89A      3.738714  
      90A      3.742032    91A      3.921076    92A      4.067310  
      93A      4.159907    94A      4.170501    95A      4.175021  
      96A      4.181092    97A      4.250057    98A      4.343099  
      99A      4.420045   100A      4.566431   101A      4.667127  
     102A      4.759685   103A      4.802588   104A      4.805158  
     105A      4.835944   106A      4.875288   107A      4.998481  
     108A      5.273381   109A      5.315716   110A      5.512548  
     111A      5.545193   112A      5.878000   113A      5.880201  
     114A      6.079115   115A      6.229736   116A      6.837779  
     117A      6.857156   118A      6.862611   119A      6.953160  
     120A      7.712974   121A      7.780263   122A      7.826819  
     123A      7.843967   124A      7.871812   125A      7.917152  
     126A      7.944833   127A      8.007591   128A      8.198392  
     129A      8.331003   130A      8.535534   131A      8.593801  
     132A      8.699078   133A      8.755239   134A      8.797065  
     135A      8.873204   136A      8.982384   137A      9.061357  
     138A      9.145967   139A      9.537805   140A      9.842320  
     141A      9.959206   142A      9.960824   143A     10.010372  
     144A     10.431879   145A     10.477162   146A     10.656611  
     147A     10.994302   148A     11.040403   149A     11.080916  
     150A     11.260697   151A     11.365135   152A     11.436895  
     153A     11.697107   154A     11.795965   155A     11.835001  
     156A     12.010550   157A     12.177129   158A     12.222438  
     159A     12.536481   160A     12.733928   161A     12.870765  
     162A     12.895228   163A     13.210137   164A     13.996154  
     165A     14.036127   166A     14.486327   167A     14.841140  
     168A     14.873752   169A     15.294388   170A     16.919518  
     171A     17.265153   172A     45.488745  

    Final Occupation by Irrep:
              A 
    DOCC [     5 ]

  @DF-RHF Final Energy:   -76.06582004100352

   => Energetics <=

    Nuclear Repulsion Energy =              9.1787427661570966
    One-Electron Energy =                -123.0400045685285590
    Two-Electron Energy =                  37.7954417613679468
    Total Energy =                        -76.0658200410035192

Computation Completed


Properties will be evaluated at   4.057501,   2.165839,   1.767680 [a0]

Properties computed using the SCF density matrix

  Nuclear Dipole Moment: [e a0]
     X:     0.3178      Y:     0.0298      Z:    -0.8800

  Electronic Dipole Moment: [e a0]
     X:    -0.0611      Y:    -0.0055      Z:     0.1697

  Dipole Moment: [e a0]
     X:     0.2568      Y:     0.0243      Z:    -0.7103     Total:     0.7557

  Dipole Moment: [D]
     X:     0.6526      Y:     0.0616      Z:    -1.8054     Total:     1.9207


*** tstop() called on node37.bme.utexas.edu at Tue Feb 22 18:04:59 2022
Module time:
	user time   =       8.67 seconds =       0.14 minutes
	system time =       0.58 seconds =       0.01 minutes
	total time  =          4 seconds =       0.07 minutes
Total time:
	user time   =      15.92 seconds =       0.27 minutes
	system time =       1.08 seconds =       0.02 minutes
	total time  =          9 seconds =       0.15 minutes

*** tstart() called on node37.bme.utexas.edu
*** at Tue Feb 22 18:04:59 2022


  //>>>>>>>>>>>>>>>>>>>>>>>>>>>>>>>>>>>//
  //               DFMP2               //
  //<<<<<<<<<<<<<<<<<<<<<<<<<<<<<<<<<<<//

   => Loading Basis Set <=

    Name: (AUG-CC-PVQZ AUX)
    Role: RIFIT
    Keyword: DF_BASIS_MP2
    atoms 1   entry O          line   332 file /home/bdw2292/miniconda3/envs/amoebamdpoltype/share/psi4/basis/aug-cc-pvqz-ri.gbs 
    atoms 2-3 entry H          line    30 file /home/bdw2292/miniconda3/envs/amoebamdpoltype/share/psi4/basis/aug-cc-pvqz-ri.gbs 

	 --------------------------------------------------------
	                          DF-MP2                         
	      2nd-Order Density-Fitted Moller-Plesset Theory     
	              RMP2 Wavefunction,   4 Threads             
	                                                         
	        Rob Parrish, Justin Turney, Andy Simmonett,      
	           Ed Hohenstein, and C. David Sherrill          
	 --------------------------------------------------------

   => Auxiliary Basis Set <=

  Basis Set: (AUG-CC-PVQZ AUX)
    Blend: AUG-CC-PVQZ-RI
    Number of shells: 76
    Number of basis function: 328
    Number of Cartesian functions: 447
    Spherical Harmonics?: true
    Max angular momentum: 5

	 --------------------------------------------------------
	                 NBF =   172, NAUX =   328
	 --------------------------------------------------------
	   CLASS    FOCC     OCC    AOCC    AVIR     VIR    FVIR
	   PAIRS       1       5       4     167     167       0
	 --------------------------------------------------------

	-----------------------------------------------------------
	 ==================> DF-MP2 Energies <==================== 
	-----------------------------------------------------------
	 Reference Energy          =     -76.0658200410035192 [Eh]
	 Singles Energy            =      -0.0000000000000000 [Eh]
	 Same-Spin Energy          =      -0.0671761947785051 [Eh]
	 Opposite-Spin Energy      =      -0.2185573999792856 [Eh]
	 Correlation Energy        =      -0.2857335947577907 [Eh]
	 Total Energy              =     -76.3515536357613058 [Eh]
	-----------------------------------------------------------
	 ================> DF-SCS-MP2 Energies <================== 
	-----------------------------------------------------------
	 SCS Same-Spin Scale       =       0.3333333333333333 [-]
	 SCS Opposite-Spin Scale   =       1.2000000000000000 [-]
	 SCS Same-Spin Energy      =      -0.0223920649261684 [Eh]
	 SCS Opposite-Spin Energy  =      -0.2622688799751428 [Eh]
	 SCS Correlation Energy    =      -0.2846609449013111 [Eh]
	 SCS Total Energy          =     -76.3504809859048237 [Eh]
	-----------------------------------------------------------


*** tstop() called on node37.bme.utexas.edu at Tue Feb 22 18:05:00 2022
Module time:
	user time   =       2.70 seconds =       0.04 minutes
	system time =       0.17 seconds =       0.00 minutes
	total time  =          1 seconds =       0.02 minutes
Total time:
	user time   =      18.62 seconds =       0.31 minutes
	system time =       1.25 seconds =       0.02 minutes
	total time  =         10 seconds =       0.17 minutes

  //>>>>>>>>>>>>>>>>>>>>>>>>>>>>>>>>>>>//
  //  CBS Results: mp2/aug-cc-pV[TQ]Z  //
  //<<<<<<<<<<<<<<<<<<<<<<<<<<<<<<<<<<<//


   ==> HF <==

   HI-zeta (4) Energy:               -76.065820041004


   ==> Helgaker 2-point correlated extrapolation for method: MP2 <==

   LO-zeta (3) Energy:               -76.328562972330
   HI-zeta (4) Energy:               -76.351553635761
   Alpha (exponent) Value:             3.000000000000
   Extrapolated Energy:              -76.368330606374

   @Extrapolated MP2/(T,Q):          -76.368330606374



   ==> Helgaker 2-point correlated extrapolation for method: HF <==

   LO-zeta (3) Energy:               -76.060435069130
   HI-zeta (4) Energy:               -76.065820041004
   Alpha (exponent) Value:             3.000000000000
   Extrapolated Energy:              -76.069749615073

   @Extrapolated HF/(T,Q):           -76.069749615073


   ==> Components <==

  ---------------------------------------------------------------------------------------------------------
                          Method / Basis                      Rqd      Energy [Eh]   Variable
  ---------------------------------------------------------------------------------------------------------
                              hf / aug-cc-pvtz                  *     -76.06043507   HF TOTAL ENERGY
                             mp2 / aug-cc-pvtz                  *     -76.32856297   MP2 TOTAL ENERGY
                              hf / aug-cc-pvqz                  *     -76.06582004   HF TOTAL ENERGY
                             mp2 / aug-cc-pvqz                  *     -76.35155364   MP2 TOTAL ENERGY
  ---------------------------------------------------------------------------------------------------------

   ==> Stages <==

  ---------------------------------------------------------------------------------------------------------
      Stage               Method / Basis                       Wt      Energy [Eh]   Scheme
  ---------------------------------------------------------------------------------------------------------
        scf                   hf / aug-cc-pvqz                  1     -76.06582004   xtpl_highest_1
       corl                  mp2 / aug-cc-pv[tq]z               1     -76.36833061   corl_xtpl_helgaker_2
       corl                   hf / aug-cc-pv[tq]z              -1     -76.06974962   corl_xtpl_helgaker_2
  ---------------------------------------------------------------------------------------------------------

   ==> CBS <==

  ---------------------------------------------------------------------------------------------------------
      Stage               Method / Basis                               Energy [Eh]   Scheme
  ---------------------------------------------------------------------------------------------------------
        scf                   hf / aug-cc-pvqz                        -76.06582004   xtpl_highest_1
       corl                  mp2 / aug-cc-pv[tq]z                      -0.29858099   corl_xtpl_helgaker_2
      total                  CBS                                      -76.36440103   
  ---------------------------------------------------------------------------------------------------------
   => Loading Basis Set <=

    Name: DEF2-SVP
    Role: ORBITAL
    Keyword: BASIS
    atoms 1   entry O          line   130 file /home/bdw2292/miniconda3/envs/amoebamdpoltype/share/psi4/basis/def2-svp.gbs 
    atoms 2-3 entry H          line    15 file /home/bdw2292/miniconda3/envs/amoebamdpoltype/share/psi4/basis/def2-svp.gbs 


       N-Body: Complex Energy (fragments = (2,), basis = (2,):   -76.36440103230402)

       N-Body: Computing complex (2/4) with fragments (2,) in the basis of fragments (1, 2).


  //>>>>>>>>>>>>>>>>>>>>>>>>>>>>>>>>>>>//
  //   CBS Setup: mp2/aug-cc-pV[TQ]Z   //
  //<<<<<<<<<<<<<<<<<<<<<<<<<<<<<<<<<<<//

    Naive listing of computations required.
             hf / aug-cc-pvqz              for  HF TOTAL ENERGY
            mp2 / aug-cc-pvtz              for  MP2 TOTAL ENERGY
            mp2 / aug-cc-pvqz              for  MP2 TOTAL ENERGY
             hf / aug-cc-pvtz              for  HF TOTAL ENERGY
             hf / aug-cc-pvqz              for  HF TOTAL ENERGY

    Enlightened listing of computations required.
            mp2 / aug-cc-pvtz              for  MP2 TOTAL ENERGY
            mp2 / aug-cc-pvqz              for  MP2 TOTAL ENERGY

    Full listing of computations to be obtained (required and bonus).
             hf / aug-cc-pvtz              for  HF TOTAL ENERGY
            mp2 / aug-cc-pvtz              for  MP2 TOTAL ENERGY
             hf / aug-cc-pvqz              for  HF TOTAL ENERGY
            mp2 / aug-cc-pvqz              for  MP2 TOTAL ENERGY

  //>>>>>>>>>>>>>>>>>>>>>>>>>>>>>>>>>>>>//
  // CBS Computation: MP2 / AUG-CC-PVTZ //
  //<<<<<<<<<<<<<<<<<<<<<<<<<<<<<<<<<<<<//

    SCF Algorithm Type (re)set to DF.

*** tstart() called on node37.bme.utexas.edu
*** at Tue Feb 22 18:05:02 2022

   => Loading Basis Set <=

    Name: AUG-CC-PVTZ
    Role: ORBITAL
    Keyword: BASIS
    atoms 1        entry CL         line   984 file /home/bdw2292/miniconda3/envs/amoebamdpoltype/share/psi4/basis/aug-cc-pvtz.gbs 
    atoms 2        entry C          line   235 file /home/bdw2292/miniconda3/envs/amoebamdpoltype/share/psi4/basis/aug-cc-pvtz.gbs 
    atoms 3-5, 7-8 entry H          line    36 file /home/bdw2292/miniconda3/envs/amoebamdpoltype/share/psi4/basis/aug-cc-pvtz.gbs 
    atoms 6        entry O          line   327 file /home/bdw2292/miniconda3/envs/amoebamdpoltype/share/psi4/basis/aug-cc-pvtz.gbs 


         ---------------------------------------------------------
                                   SCF
               by Justin Turney, Rob Parrish, Andy Simmonett
                          and Daniel G. A. Smith
                              RHF Reference
                        4 Threads,  14305 MiB Core
         ---------------------------------------------------------

  ==> Geometry <==

    Molecular point group: c1
    Full point group: C1

    Geometry (in Angstrom), charge = 0, multiplicity = 1:

       Center              X                  Y                   Z               Mass       
    ------------   -----------------  -----------------  -----------------  -----------------
      Gh(CL)         -0.524809128059    -0.652092627287    -0.774293408962    34.968852682000
      Gh(C)          -1.321343728059     0.112804372713     0.624606391038    12.000000000000
      Gh(H)          -2.359579228059    -0.215503227287     0.672891691038     1.007825032230
      Gh(H)          -0.793175228059    -0.179124327287     1.532936891038     1.007825032230
      Gh(H)          -1.275642928059     1.195500172713     0.506456191038     1.007825032230
         O            2.125767271941     1.144112072713     0.994581791038    15.994914619570
         H            1.842718071941     0.579086072713     0.273203691038     1.007825032230
         H            2.790706771941     1.744892872713     0.658620891038     1.007825032230

  Running in c1 symmetry.

  Rotational constants: A =      0.44031  B =      0.09826  C =      0.08180 [cm^-1]
  Rotational constants: A =  13200.09330  B =   2945.72381  C =   2452.27133 [MHz]
  Nuclear repulsion =    9.178742766157097

  Charge       = 0
  Multiplicity = 1
  Electrons    = 10
  Nalpha       = 5
  Nbeta        = 5

  ==> Algorithm <==

  SCF Algorithm Type is DF.
  DIIS enabled.
  MOM disabled.
  Fractional occupation disabled.
  Guess Type is SAD.
  Energy threshold   = 1.00e-08
  Density threshold  = 1.00e-08
  Integral threshold = 0.00e+00

  ==> Primary Basis <==

  Basis Set: AUG-CC-PVTZ
    Blend: AUG-CC-PVTZ
    Number of shells: 89
    Number of basis function: 257
    Number of Cartesian functions: 294
    Spherical Harmonics?: true
    Max angular momentum: 3

   => Loading Basis Set <=

    Name: (AUG-CC-PVTZ AUX)
    Role: JKFIT
    Keyword: DF_BASIS_SCF
    atoms 1        entry CL         line   816 file /home/bdw2292/miniconda3/envs/amoebamdpoltype/share/psi4/basis/aug-cc-pvtz-jkfit.gbs 
    atoms 2        entry C          line   162 file /home/bdw2292/miniconda3/envs/amoebamdpoltype/share/psi4/basis/aug-cc-pvtz-jkfit.gbs 
    atoms 3-5, 7-8 entry H          line    70 file /home/bdw2292/miniconda3/envs/amoebamdpoltype/share/psi4/basis/aug-cc-pvtz-jkfit.gbs 
    atoms 6        entry O          line   286 file /home/bdw2292/miniconda3/envs/amoebamdpoltype/share/psi4/basis/aug-cc-pvtz-jkfit.gbs 

  ==> Pre-Iterations <==

   -------------------------------------------------------
    Irrep   Nso     Nmo     Nalpha   Nbeta   Ndocc  Nsocc
   -------------------------------------------------------
     A        257     257       0       0       0       0
   -------------------------------------------------------
    Total     257     257       5       5       5       0
   -------------------------------------------------------

  ==> Integral Setup <==

  DFHelper Memory: AOs need 0.297 GiB; user supplied 10.477 GiB. Using in-core AOs.

  ==> MemDFJK: Density-Fitted J/K Matrices <==

    J tasked:                   Yes
    K tasked:                   Yes
    wK tasked:                   No
    OpenMP threads:               4
    Memory [MiB]:             10728
    Algorithm:                 Core
    Schwarz Cutoff:           1E-12
    Mask sparsity (%):       2.7646
    Fitting Condition:        1E-10

   => Auxiliary Basis Set <=

  Basis Set: (AUG-CC-PVTZ AUX)
    Blend: AUG-CC-PVTZ-JKFIT
    Number of shells: 172
    Number of basis function: 584
    Number of Cartesian functions: 717
    Spherical Harmonics?: true
    Max angular momentum: 4

  Minimum eigenvalue in the overlap matrix is 6.1980416140E-05.
  Using Symmetric Orthogonalization.

  SCF Guess: Superposition of Atomic Densities via on-the-fly atomic UHF.

  ==> Iterations <==

                           Total Energy        Delta E     RMS |[F,P]|

   @DF-RHF iter SAD:   -75.47358575579153   -7.54736e+01   0.00000e+00 
   @DF-RHF iter   1:   -75.97655467523865   -5.02969e-01   1.82341e-03 DIIS
   @DF-RHF iter   2:   -76.02896851514905   -5.24138e-02   1.23674e-03 DIIS
   @DF-RHF iter   3:   -76.06005125960694   -3.10827e-02   8.40054e-05 DIIS
   @DF-RHF iter   4:   -76.06044155291680   -3.90293e-04   2.00825e-05 DIIS
   @DF-RHF iter   5:   -76.06046562139252   -2.40685e-05   4.52399e-06 DIIS
   @DF-RHF iter   6:   -76.06046758823038   -1.96684e-06   1.00643e-06 DIIS
   @DF-RHF iter   7:   -76.06046769650865   -1.08278e-07   1.89859e-07 DIIS
   @DF-RHF iter   8:   -76.06046769992520   -3.41655e-09   3.15366e-08 DIIS
   @DF-RHF iter   9:   -76.06046769999948   -7.42801e-11   7.84218e-09 DIIS
  Energy and wave function converged.


  ==> Post-Iterations <==

    Orbital Energies [Eh]
    ---------------------

    Doubly Occupied:                                                      

       1A    -20.565693     2A     -1.350620     3A     -0.724198  
       4A     -0.577758     5A     -0.509217  

    Virtual:                                                              

       6A      0.022916     7A      0.035775     8A      0.047354  
       9A      0.051446    10A      0.059377    11A      0.079918  
      12A      0.103690    13A      0.111469    14A      0.114390  
      15A      0.121227    16A      0.132866    17A      0.142778  
      18A      0.163273    19A      0.172144    20A      0.181163  
      21A      0.193614    22A      0.219419    23A      0.232736  
      24A      0.263393    25A      0.274415    26A      0.281895  
      27A      0.296267    28A      0.297907    29A      0.305061  
      30A      0.311164    31A      0.314598    32A      0.322077  
      33A      0.330249    34A      0.334036    35A      0.356194  
      36A      0.381814    37A      0.388912    38A      0.409087  
      39A      0.415893    40A      0.425994    41A      0.435027  
      42A      0.448748    43A      0.460752    44A      0.465623  
      45A      0.477738    46A      0.495140    47A      0.513217  
      48A      0.532343    49A      0.539754    50A      0.571011  
      51A      0.583291    52A      0.604429    53A      0.609198  
      54A      0.641954    55A      0.644778    56A      0.665313  
      57A      0.667960    58A      0.680443    59A      0.694629  
      60A      0.716792    61A      0.728258    62A      0.751977  
      63A      0.756143    64A      0.788020    65A      0.811373  
      66A      0.862307    67A      0.875922    68A      0.900707  
      69A      0.928426    70A      0.947456    71A      0.956962  
      72A      0.967540    73A      0.980191    74A      0.996327  
      75A      1.016492    76A      1.030919    77A      1.034694  
      78A      1.050406    79A      1.057468    80A      1.070523  
      81A      1.079915    82A      1.086989    83A      1.097154  
      84A      1.103355    85A      1.129954    86A      1.136391  
      87A      1.153004    88A      1.155949    89A      1.171693  
      90A      1.192774    91A      1.208046    92A      1.212845  
      93A      1.230413    94A      1.258066    95A      1.266666  
      96A      1.275919    97A      1.292378    98A      1.314092  
      99A      1.331956   100A      1.353900   101A      1.383840  
     102A      1.393570   103A      1.414132   104A      1.425575  
     105A      1.437094   106A      1.460189   107A      1.475847  
     108A      1.519629   109A      1.523749   110A      1.545134  
     111A      1.554618   112A      1.564373   113A      1.577377  
     114A      1.586916   115A      1.615697   116A      1.639331  
     117A      1.654592   118A      1.689057   119A      1.754971  
     120A      1.788975   121A      1.805065   122A      1.863889  
     123A      1.902656   124A      1.907820   125A      1.917479  
     126A      1.963477   127A      1.972782   128A      2.004679  
     129A      2.049350   130A      2.059882   131A      2.080553  
     132A      2.113576   133A      2.128032   134A      2.140516  
     135A      2.147768   136A      2.165657   137A      2.229446  
     138A      2.314612   139A      2.329130   140A      2.352615  
     141A      2.376853   142A      2.412608   143A      2.471529  
     144A      2.484579   145A      2.502280   146A      2.511575  
     147A      2.523011   148A      2.527079   149A      2.565705  
     150A      2.593027   151A      2.701682   152A      2.716142  
     153A      2.745653   154A      2.820506   155A      2.832286  
     156A      2.911426   157A      2.963960   158A      2.986157  
     159A      3.690276   160A      3.801188   161A      3.827252  
     162A      3.914766   163A      3.945569   164A      3.973219  
     165A      3.976418   166A      3.988945   167A      3.999687  
     168A      4.042419   169A      4.077658   170A      4.084003  
     171A      4.101204   172A      4.146214   173A      4.166642  
     174A      4.177707   175A      4.190858   176A      4.230410  
     177A      4.233936   178A      4.250520   179A      4.264382  
     180A      4.339893   181A      4.383014   182A      4.412593  
     183A      4.414707   184A      4.428990   185A      4.458508  
     186A      4.466713   187A      4.479036   188A      4.530177  
     189A      4.540753   190A      4.562102   191A      4.595283  
     192A      4.598070   193A      4.601341   194A      4.706242  
     195A      4.745509   196A      4.753253   197A      4.773491  
     198A      4.814925   199A      4.838896   200A      4.853229  
     201A      4.885133   202A      4.895028   203A      4.904716  
     204A      4.982774   205A      5.084227   206A      5.103862  
     207A      5.149821   208A      5.182252   209A      5.216430  
     210A      5.245286   211A      5.334151   212A      5.342548  
     213A      5.345748   214A      5.367352   215A      5.406254  
     216A      5.482846   217A      5.484754   218A      5.518863  
     219A      5.523506   220A      5.710148   221A      5.729331  
     222A      5.777743   223A      6.037769   224A      6.148714  
     225A      6.156471   226A      6.177394   227A      6.214639  
     228A      6.231777   229A      6.572740   230A      6.671375  
     231A      6.696251   232A      6.771477   233A      6.882912  
     234A      7.140491   235A      7.167152   236A      7.299081  
     237A      7.324763   238A      7.347907   239A      7.396147  
     240A      7.439161   241A      7.611751   242A      7.754412  
     243A      7.775707   244A      7.854385   245A      7.930883  
     246A      7.987062   247A      8.141465   248A      8.188784  
     249A      8.813332   250A     10.261777   251A     15.987758  
     252A     16.240069   253A     28.038097   254A     28.210198  
     255A     28.967115   256A     51.253625   257A    161.020537  

    Final Occupation by Irrep:
              A 
    DOCC [     5 ]

  @DF-RHF Final Energy:   -76.06046769999948

   => Energetics <=

    Nuclear Repulsion Energy =              9.1787427661570966
    One-Electron Energy =                -123.0234460632897253
    Two-Electron Energy =                  37.7842355971331472
    Total Energy =                        -76.0604676999994780

Computation Completed


Properties will be evaluated at   0.000000,  -0.000000,  -0.000000 [a0]

Properties computed using the SCF density matrix

  Nuclear Dipole Moment: [e a0]
     X:    40.8928      Y:    21.6882      Z:    16.7968

  Electronic Dipole Moment: [e a0]
     X:   -40.6357      Y:   -21.6640      Z:   -17.5080

  Dipole Moment: [e a0]
     X:     0.2572      Y:     0.0241      Z:    -0.7112     Total:     0.7567

  Dipole Moment: [D]
     X:     0.6537      Y:     0.0613      Z:    -1.8077     Total:     1.9232


*** tstop() called on node37.bme.utexas.edu at Tue Feb 22 18:05:11 2022
Module time:
	user time   =      20.53 seconds =       0.34 minutes
	system time =       1.22 seconds =       0.02 minutes
	total time  =          9 seconds =       0.15 minutes
Total time:
	user time   =      40.90 seconds =       0.68 minutes
	system time =       2.54 seconds =       0.04 minutes
	total time  =         21 seconds =       0.35 minutes

*** tstart() called on node37.bme.utexas.edu
*** at Tue Feb 22 18:05:11 2022


  //>>>>>>>>>>>>>>>>>>>>>>>>>>>>>>>>>>>//
  //               DFMP2               //
  //<<<<<<<<<<<<<<<<<<<<<<<<<<<<<<<<<<<//

   => Loading Basis Set <=

    Name: (AUG-CC-PVTZ AUX)
    Role: RIFIT
    Keyword: DF_BASIS_MP2
    atoms 1        entry CL         line   742 file /home/bdw2292/miniconda3/envs/amoebamdpoltype/share/psi4/basis/aug-cc-pvtz-ri.gbs 
    atoms 2        entry C          line   148 file /home/bdw2292/miniconda3/envs/amoebamdpoltype/share/psi4/basis/aug-cc-pvtz-ri.gbs 
    atoms 3-5, 7-8 entry H          line    30 file /home/bdw2292/miniconda3/envs/amoebamdpoltype/share/psi4/basis/aug-cc-pvtz-ri.gbs 
    atoms 6        entry O          line   264 file /home/bdw2292/miniconda3/envs/amoebamdpoltype/share/psi4/basis/aug-cc-pvtz-ri.gbs 

	 --------------------------------------------------------
	                          DF-MP2                         
	      2nd-Order Density-Fitted Moller-Plesset Theory     
	              RMP2 Wavefunction,   4 Threads             
	                                                         
	        Rob Parrish, Justin Turney, Andy Simmonett,      
	           Ed Hohenstein, and C. David Sherrill          
	 --------------------------------------------------------

   => Auxiliary Basis Set <=

  Basis Set: (AUG-CC-PVTZ AUX)
    Blend: AUG-CC-PVTZ-RI
    Number of shells: 163
    Number of basis function: 589
    Number of Cartesian functions: 738
    Spherical Harmonics?: true
    Max angular momentum: 4

	 --------------------------------------------------------
	                 NBF =   257, NAUX =   589
	 --------------------------------------------------------
	   CLASS    FOCC     OCC    AOCC    AVIR     VIR    FVIR
	   PAIRS       1       5       4     252     252       0
	 --------------------------------------------------------

	-----------------------------------------------------------
	 ==================> DF-MP2 Energies <==================== 
	-----------------------------------------------------------
	 Reference Energy          =     -76.0604676999994780 [Eh]
	 Singles Energy            =      -0.0000000000000000 [Eh]
	 Same-Spin Energy          =      -0.0651202696461713 [Eh]
	 Opposite-Spin Energy      =      -0.2031544686041507 [Eh]
	 Correlation Energy        =      -0.2682747382503220 [Eh]
	 Total Energy              =     -76.3287424382498045 [Eh]
	-----------------------------------------------------------
	 ================> DF-SCS-MP2 Energies <================== 
	-----------------------------------------------------------
	 SCS Same-Spin Scale       =       0.3333333333333333 [-]
	 SCS Opposite-Spin Scale   =       1.2000000000000000 [-]
	 SCS Same-Spin Energy      =      -0.0217067565487238 [Eh]
	 SCS Opposite-Spin Energy  =      -0.2437853623249808 [Eh]
	 SCS Correlation Energy    =      -0.2654921188737046 [Eh]
	 SCS Total Energy          =     -76.3259598188731871 [Eh]
	-----------------------------------------------------------


*** tstop() called on node37.bme.utexas.edu at Tue Feb 22 18:05:13 2022
Module time:
	user time   =       6.66 seconds =       0.11 minutes
	system time =       0.38 seconds =       0.01 minutes
	total time  =          2 seconds =       0.03 minutes
Total time:
	user time   =      47.57 seconds =       0.79 minutes
	system time =       2.92 seconds =       0.05 minutes
	total time  =         23 seconds =       0.38 minutes

  //>>>>>>>>>>>>>>>>>>>>>>>>>>>>>>>>>>>>//
  // CBS Computation: MP2 / AUG-CC-PVQZ //
  //<<<<<<<<<<<<<<<<<<<<<<<<<<<<<<<<<<<<//

    SCF Algorithm Type (re)set to DF.

*** tstart() called on node37.bme.utexas.edu
*** at Tue Feb 22 18:05:13 2022

   => Loading Basis Set <=

    Name: AUG-CC-PVQZ
    Role: ORBITAL
    Keyword: BASIS
    atoms 1        entry CL         line  1218 file /home/bdw2292/miniconda3/envs/amoebamdpoltype/share/psi4/basis/aug-cc-pvqz.gbs 
    atoms 2        entry C          line   299 file /home/bdw2292/miniconda3/envs/amoebamdpoltype/share/psi4/basis/aug-cc-pvqz.gbs 
    atoms 3-5, 7-8 entry H          line    36 file /home/bdw2292/miniconda3/envs/amoebamdpoltype/share/psi4/basis/aug-cc-pvqz.gbs 
    atoms 6        entry O          line   419 file /home/bdw2292/miniconda3/envs/amoebamdpoltype/share/psi4/basis/aug-cc-pvqz.gbs 


         ---------------------------------------------------------
                                   SCF
               by Justin Turney, Rob Parrish, Andy Simmonett
                          and Daniel G. A. Smith
                              RHF Reference
                        4 Threads,  14305 MiB Core
         ---------------------------------------------------------

  ==> Geometry <==

    Molecular point group: c1
    Full point group: C1

    Geometry (in Angstrom), charge = 0, multiplicity = 1:

       Center              X                  Y                   Z               Mass       
    ------------   -----------------  -----------------  -----------------  -----------------
      Gh(CL)         -0.524809128059    -0.652092627287    -0.774293408962    34.968852682000
      Gh(C)          -1.321343728059     0.112804372713     0.624606391038    12.000000000000
      Gh(H)          -2.359579228059    -0.215503227287     0.672891691038     1.007825032230
      Gh(H)          -0.793175228059    -0.179124327287     1.532936891038     1.007825032230
      Gh(H)          -1.275642928059     1.195500172713     0.506456191038     1.007825032230
         O            2.125767271941     1.144112072713     0.994581791038    15.994914619570
         H            1.842718071941     0.579086072713     0.273203691038     1.007825032230
         H            2.790706771941     1.744892872713     0.658620891038     1.007825032230

  Running in c1 symmetry.

  Rotational constants: A =      0.44031  B =      0.09826  C =      0.08180 [cm^-1]
  Rotational constants: A =  13200.09330  B =   2945.72381  C =   2452.27133 [MHz]
  Nuclear repulsion =    9.178742766157097

  Charge       = 0
  Multiplicity = 1
  Electrons    = 10
  Nalpha       = 5
  Nbeta        = 5

  ==> Algorithm <==

  SCF Algorithm Type is DF.
  DIIS enabled.
  MOM disabled.
  Fractional occupation disabled.
  Guess Type is SAD.
  Energy threshold   = 1.00e-08
  Density threshold  = 1.00e-08
  Integral threshold = 0.00e+00

  ==> Primary Basis <==

  Basis Set: AUG-CC-PVQZ
    Blend: AUG-CC-PVQZ
    Number of shells: 132
    Number of basis function: 474
    Number of Cartesian functions: 594
    Spherical Harmonics?: true
    Max angular momentum: 4

   => Loading Basis Set <=

    Name: (AUG-CC-PVQZ AUX)
    Role: JKFIT
    Keyword: DF_BASIS_SCF
    atoms 1        entry CL         line   904 file /home/bdw2292/miniconda3/envs/amoebamdpoltype/share/psi4/basis/aug-cc-pvqz-jkfit.gbs 
    atoms 2        entry C          line   178 file /home/bdw2292/miniconda3/envs/amoebamdpoltype/share/psi4/basis/aug-cc-pvqz-jkfit.gbs 
    atoms 3-5, 7-8 entry H          line    70 file /home/bdw2292/miniconda3/envs/amoebamdpoltype/share/psi4/basis/aug-cc-pvqz-jkfit.gbs 
    atoms 6        entry O          line   318 file /home/bdw2292/miniconda3/envs/amoebamdpoltype/share/psi4/basis/aug-cc-pvqz-jkfit.gbs 

  ==> Pre-Iterations <==

   -------------------------------------------------------
    Irrep   Nso     Nmo     Nalpha   Nbeta   Ndocc  Nsocc
   -------------------------------------------------------
     A        474     474       0       0       0       0
   -------------------------------------------------------
    Total     474     474       5       5       5       0
   -------------------------------------------------------

  ==> Integral Setup <==

  DFHelper Memory: AOs need 1.404 GiB; user supplied 10.477 GiB. Using in-core AOs.

  ==> MemDFJK: Density-Fitted J/K Matrices <==

    J tasked:                   Yes
    K tasked:                   Yes
    wK tasked:                   No
    OpenMP threads:               4
    Memory [MiB]:             10728
    Algorithm:                 Core
    Schwarz Cutoff:           1E-12
    Mask sparsity (%):       5.8511
    Fitting Condition:        1E-10

   => Auxiliary Basis Set <=

  Basis Set: (AUG-CC-PVQZ AUX)
    Blend: AUG-CC-PVQZ-JKFIT
    Number of shells: 204
    Number of basis function: 848
    Number of Cartesian functions: 1148
    Spherical Harmonics?: true
    Max angular momentum: 5

  Minimum eigenvalue in the overlap matrix is 1.3124894529E-05.
  Using Symmetric Orthogonalization.

  SCF Guess: Superposition of Atomic Densities via on-the-fly atomic UHF.

  ==> Iterations <==

                           Total Energy        Delta E     RMS |[F,P]|

   @DF-RHF iter SAD:   -75.47874036230760   -7.54787e+01   0.00000e+00 
   @DF-RHF iter   1:   -75.98162160803578   -5.02881e-01   9.90713e-04 DIIS
   @DF-RHF iter   2:   -76.03413633614331   -5.25147e-02   6.73506e-04 DIIS
   @DF-RHF iter   3:   -76.06541581978901   -3.12795e-02   4.58780e-05 DIIS
   @DF-RHF iter   4:   -76.06580812334749   -3.92304e-04   1.12180e-05 DIIS
   @DF-RHF iter   5:   -76.06583307571806   -2.49524e-05   2.51812e-06 DIIS
   @DF-RHF iter   6:   -76.06583512357963   -2.04786e-06   5.74958e-07 DIIS
   @DF-RHF iter   7:   -76.06583524295397   -1.19374e-07   1.11919e-07 DIIS
   @DF-RHF iter   8:   -76.06583524697369   -4.01972e-09   1.79384e-08 DIIS
   @DF-RHF iter   9:   -76.06583524705735   -8.36593e-11   4.34626e-09 DIIS
  Energy and wave function converged.


  ==> Post-Iterations <==

    Orbital Energies [Eh]
    ---------------------

    Doubly Occupied:                                                      

       1A    -20.563252     2A     -1.349902     3A     -0.724171  
       4A     -0.577821     5A     -0.509347  

    Virtual:                                                              

       6A      0.020159     7A      0.032382     8A      0.042480  
       9A      0.046162    10A      0.054244    11A      0.070682  
      12A      0.091485    13A      0.094839    14A      0.097520  
      15A      0.103220    16A      0.117062    17A      0.120953  
      18A      0.140146    19A      0.147546    20A      0.154102  
      21A      0.164524    22A      0.183282    23A      0.197210  
      24A      0.221895    25A      0.226011    26A      0.228719  
      27A      0.245519    28A      0.248245    29A      0.256195  
      30A      0.258504    31A      0.262783    32A      0.272491  
      33A      0.275104    34A      0.280175    35A      0.289193  
      36A      0.297936    37A      0.309251    38A      0.328711  
      39A      0.341985    40A      0.347835    41A      0.355985  
      42A      0.361427    43A      0.365183    44A      0.378807  
      45A      0.382708    46A      0.393366    47A      0.406232  
      48A      0.420143    49A      0.426960    50A      0.432224  
      51A      0.436919    52A      0.473036    53A      0.480976  
      54A      0.494503    55A      0.508831    56A      0.523721  
      57A      0.528256    58A      0.535275    59A      0.552807  
      60A      0.563463    61A      0.566760    62A      0.594435  
      63A      0.598921    64A      0.607326    65A      0.626675  
      66A      0.650683    67A      0.675181    68A      0.681664  
      69A      0.682615    70A      0.696856    71A      0.705899  
      72A      0.715430    73A      0.725084    74A      0.727630  
      75A      0.730830    76A      0.756129    77A      0.759843  
      78A      0.783443    79A      0.786935    80A      0.799391  
      81A      0.807656    82A      0.821279    83A      0.833060  
      84A      0.836090    85A      0.849206    86A      0.860312  
      87A      0.868807    88A      0.873712    89A      0.886977  
      90A      0.903228    91A      0.914719    92A      0.925187  
      93A      0.934124    94A      0.939642    95A      0.965260  
      96A      0.977481    97A      0.992775    98A      1.000099  
      99A      1.003054   100A      1.018487   101A      1.032139  
     102A      1.046350   103A      1.050568   104A      1.058260  
     105A      1.081224   106A      1.084498   107A      1.093722  
     108A      1.099425   109A      1.116877   110A      1.125018  
     111A      1.137708   112A      1.164319   113A      1.179001  
     114A      1.187177   115A      1.195873   116A      1.198683  
     117A      1.229647   118A      1.248349   119A      1.257506  
     120A      1.300145   121A      1.323595   122A      1.338745  
     123A      1.345818   124A      1.398215   125A      1.414231  
     126A      1.435972   127A      1.456907   128A      1.474437  
     129A      1.488124   130A      1.506876   131A      1.535473  
     132A      1.545885   133A      1.551033   134A      1.568790  
     135A      1.590915   136A      1.599230   137A      1.603601  
     138A      1.613211   139A      1.627027   140A      1.639081  
     141A      1.649335   142A      1.668468   143A      1.678127  
     144A      1.687215   145A      1.709774   146A      1.722004  
     147A      1.747586   148A      1.751063   149A      1.763143  
     150A      1.783108   151A      1.794861   152A      1.808080  
     153A      1.821816   154A      1.827374   155A      1.839500  
     156A      1.854707   157A      1.880916   158A      1.885142  
     159A      1.896116   160A      1.906912   161A      1.916205  
     162A      1.928240   163A      1.936324   164A      1.943638  
     165A      1.952961   166A      1.973149   167A      1.975571  
     168A      1.997554   169A      2.019475   170A      2.029006  
     171A      2.044567   172A      2.054761   173A      2.072244  
     174A      2.078172   175A      2.102203   176A      2.112307  
     177A      2.121169   178A      2.136187   179A      2.151221  
     180A      2.160068   181A      2.201611   182A      2.209978  
     183A      2.216295   184A      2.226375   185A      2.247585  
     186A      2.263747   187A      2.273220   188A      2.287341  
     189A      2.297176   190A      2.310271   191A      2.326506  
     192A      2.347360   193A      2.357505   194A      2.386463  
     195A      2.426306   196A      2.433771   197A      2.474187  
     198A      2.484798   199A      2.485712   200A      2.500850  
     201A      2.501897   202A      2.530258   203A      2.552411  
     204A      2.573672   205A      2.578769   206A      2.597246  
     207A      2.613795   208A      2.635696   209A      2.656524  
     210A      2.711448   211A      2.736723   212A      2.747845  
     213A      2.768657   214A      2.805793   215A      2.814834  
     216A      2.816558   217A      2.826084   218A      2.845911  
     219A      2.878683   220A      2.889043   221A      2.936423  
     222A      2.974701   223A      2.980512   224A      2.999204  
     225A      3.017630   226A      3.028257   227A      3.041782  
     228A      3.068649   229A      3.077908   230A      3.092597  
     231A      3.109506   232A      3.126470   233A      3.193270  
     234A      3.203888   235A      3.215700   236A      3.231142  
     237A      3.268150   238A      3.274820   239A      3.291921  
     240A      3.303596   241A      3.349871   242A      3.368971  
     243A      3.391255   244A      3.412182   245A      3.427177  
     246A      3.437457   247A      3.458261   248A      3.487975  
     249A      3.506068   250A      3.527749   251A      3.578059  
     252A      3.610643   253A      3.647362   254A      3.655654  
     255A      3.715449   256A      3.721792   257A      3.764294  
     258A      3.804345   259A      3.814314   260A      3.817951  
     261A      3.838386   262A      3.870968   263A      3.885149  
     264A      3.925746   265A      3.939519   266A      3.997009  
     267A      4.065929   268A      4.078609   269A      4.113922  
     270A      4.143404   271A      4.159142   272A      4.192470  
     273A      4.203418   274A      4.222955   275A      4.244879  
     276A      4.256045   277A      4.264792   278A      4.277970  
     279A      4.355115   280A      4.401874   281A      4.434020  
     282A      4.450242   283A      4.467430   284A      4.530039  
     285A      4.611468   286A      4.629632   287A      4.710397  
     288A      4.733988   289A      4.815022   290A      4.833499  
     291A      4.863223   292A      4.879490   293A      4.890275  
     294A      4.904683   295A      4.951934   296A      4.974190  
     297A      4.987499   298A      5.026113   299A      5.096274  
     300A      5.141411   301A      5.186119   302A      5.257137  
     303A      5.359994   304A      5.394990   305A      5.445122  
     306A      5.473354   307A      5.489123   308A      5.538790  
     309A      5.559872   310A      5.582185   311A      5.614578  
     312A      5.635600   313A      5.686240   314A      5.799805  
     315A      5.836701   316A      5.846154   317A      5.903377  
     318A      5.928415   319A      5.984501   320A      6.073791  
     321A      6.124917   322A      6.341903   323A      6.354964  
     324A      6.367963   325A      6.391964   326A      6.445270  
     327A      6.492910   328A      6.514395   329A      6.643036  
     330A      6.760532   331A      6.776717   332A      6.819977  
     333A      6.879002   334A      6.908432   335A      6.939158  
     336A      6.970289   337A      6.986395   338A      7.012677  
     339A      7.022079   340A      7.038256   341A      7.132547  
     342A      7.174508   343A      7.240093   344A      7.243070  
     345A      7.294009   346A      7.362969   347A      7.376322  
     348A      7.405237   349A      7.633902   350A      7.654137  
     351A      7.669959   352A      7.674811   353A      7.711743  
     354A      7.740664   355A      7.755430   356A      7.824310  
     357A      7.854609   358A      7.860461   359A      7.867487  
     360A      7.878543   361A      7.898520   362A      7.917248  
     363A      7.921319   364A      7.940593   365A      7.997054  
     366A      8.009378   367A      8.029939   368A      8.038883  
     369A      8.088495   370A      8.149282   371A      8.182180  
     372A      8.231134   373A      8.327067   374A      8.333805  
     375A      8.376980   376A      8.416325   377A      8.529841  
     378A      8.553575   379A      8.573614   380A      8.629796  
     381A      8.691438   382A      8.751441   383A      8.817312  
     384A      8.842059   385A      8.863539   386A      8.870380  
     387A      8.883058   388A      8.892061   389A      8.916248  
     390A      8.936239   391A      9.027567   392A      9.099745  
     393A      9.191455   394A      9.220081   395A      9.318614  
     396A      9.338851   397A      9.395782   398A      9.525959  
     399A      9.536626   400A      9.572020   401A      9.599133  
     402A      9.701394   403A      9.705873   404A      9.775890  
     405A      9.789989   406A      9.841620   407A      9.845065  
     408A      9.886848   409A      9.898836   410A     10.020852  
     411A     10.033158   412A     10.053268   413A     10.074951  
     414A     10.091078   415A     10.306184   416A     10.323460  
     417A     10.473366   418A     10.505037   419A     10.511276  
     420A     10.611793   421A     10.635665   422A     10.739128  
     423A     10.756297   424A     10.771062   425A     10.787763  
     426A     10.797000   427A     10.916466   428A     11.035884  
     429A     11.061344   430A     11.164829   431A     11.185081  
     432A     11.210051   433A     11.328408   434A     11.337226  
     435A     11.386617   436A     11.412586   437A     11.480773  
     438A     11.745816   439A     11.853398   440A     11.904783  
     441A     12.022408   442A     12.043788   443A     12.111167  
     444A     12.173024   445A     12.223469   446A     12.284330  
     447A     12.336027   448A     12.580259   449A     12.762715  
     450A     12.893615   451A     12.929622   452A     13.119637  
     453A     13.178969   454A     13.238569   455A     13.570763  
     456A     14.006106   457A     14.106280   458A     14.494062  
     459A     14.811910   460A     14.850734   461A     14.894229  
     462A     15.321376   463A     16.484097   464A     17.013314  
     465A     17.290362   466A     17.315432   467A     17.367418  
     468A     31.097856   469A     31.116601   470A     31.344287  
     471A     43.238126   472A     45.639910   473A     71.640042  
     474A    160.401880  

    Final Occupation by Irrep:
              A 
    DOCC [     5 ]

  @DF-RHF Final Energy:   -76.06583524705735

   => Energetics <=

    Nuclear Repulsion Energy =              9.1787427661570966
    One-Electron Energy =                -123.0401666558946658
    Two-Electron Energy =                  37.7955886426802294
    Total Energy =                        -76.0658352470573362

Computation Completed


Properties will be evaluated at   0.000000,  -0.000000,  -0.000000 [a0]

Properties computed using the SCF density matrix

  Nuclear Dipole Moment: [e a0]
     X:    40.8928      Y:    21.6882      Z:    16.7968

  Electronic Dipole Moment: [e a0]
     X:   -40.6361      Y:   -21.6639      Z:   -17.5071

  Dipole Moment: [e a0]
     X:     0.2568      Y:     0.0242      Z:    -0.7103     Total:     0.7557

  Dipole Moment: [D]
     X:     0.6527      Y:     0.0615      Z:    -1.8053     Total:     1.9207


*** tstop() called on node37.bme.utexas.edu at Tue Feb 22 18:05:40 2022
Module time:
	user time   =      64.78 seconds =       1.08 minutes
	system time =       3.36 seconds =       0.06 minutes
	total time  =         27 seconds =       0.45 minutes
Total time:
	user time   =     112.40 seconds =       1.87 minutes
	system time =       6.28 seconds =       0.10 minutes
	total time  =         50 seconds =       0.83 minutes

*** tstart() called on node37.bme.utexas.edu
*** at Tue Feb 22 18:05:40 2022


  //>>>>>>>>>>>>>>>>>>>>>>>>>>>>>>>>>>>//
  //               DFMP2               //
  //<<<<<<<<<<<<<<<<<<<<<<<<<<<<<<<<<<<//

   => Loading Basis Set <=

    Name: (AUG-CC-PVQZ AUX)
    Role: RIFIT
    Keyword: DF_BASIS_MP2
    atoms 1        entry CL         line   914 file /home/bdw2292/miniconda3/envs/amoebamdpoltype/share/psi4/basis/aug-cc-pvqz-ri.gbs 
    atoms 2        entry C          line   184 file /home/bdw2292/miniconda3/envs/amoebamdpoltype/share/psi4/basis/aug-cc-pvqz-ri.gbs 
    atoms 3-5, 7-8 entry H          line    30 file /home/bdw2292/miniconda3/envs/amoebamdpoltype/share/psi4/basis/aug-cc-pvqz-ri.gbs 
    atoms 6        entry O          line   332 file /home/bdw2292/miniconda3/envs/amoebamdpoltype/share/psi4/basis/aug-cc-pvqz-ri.gbs 

	 --------------------------------------------------------
	                          DF-MP2                         
	      2nd-Order Density-Fitted Moller-Plesset Theory     
	              RMP2 Wavefunction,   4 Threads             
	                                                         
	        Rob Parrish, Justin Turney, Andy Simmonett,      
	           Ed Hohenstein, and C. David Sherrill          
	 --------------------------------------------------------

   => Auxiliary Basis Set <=

  Basis Set: (AUG-CC-PVQZ AUX)
    Blend: AUG-CC-PVQZ-RI
    Number of shells: 216
    Number of basis function: 930
    Number of Cartesian functions: 1267
    Spherical Harmonics?: true
    Max angular momentum: 5

	 --------------------------------------------------------
	                 NBF =   474, NAUX =   930
	 --------------------------------------------------------
	   CLASS    FOCC     OCC    AOCC    AVIR     VIR    FVIR
	   PAIRS       1       5       4     469     469       0
	 --------------------------------------------------------

	-----------------------------------------------------------
	 ==================> DF-MP2 Energies <==================== 
	-----------------------------------------------------------
	 Reference Energy          =     -76.0658352470573504 [Eh]
	 Singles Energy            =      -0.0000000000000000 [Eh]
	 Same-Spin Energy          =      -0.0671803284466639 [Eh]
	 Opposite-Spin Energy      =      -0.2186181718781447 [Eh]
	 Correlation Energy        =      -0.2857985003248086 [Eh]
	 Total Energy              =     -76.3516337473821523 [Eh]
	-----------------------------------------------------------
	 ================> DF-SCS-MP2 Energies <================== 
	-----------------------------------------------------------
	 SCS Same-Spin Scale       =       0.3333333333333333 [-]
	 SCS Opposite-Spin Scale   =       1.2000000000000000 [-]
	 SCS Same-Spin Energy      =      -0.0223934428155546 [Eh]
	 SCS Opposite-Spin Energy  =      -0.2623418062537736 [Eh]
	 SCS Correlation Energy    =      -0.2847352490693282 [Eh]
	 SCS Total Energy          =     -76.3505704961266787 [Eh]
	-----------------------------------------------------------


*** tstop() called on node37.bme.utexas.edu at Tue Feb 22 18:05:53 2022
Module time:
	user time   =      29.88 seconds =       0.50 minutes
	system time =       2.11 seconds =       0.04 minutes
	total time  =         13 seconds =       0.22 minutes
Total time:
	user time   =     142.28 seconds =       2.37 minutes
	system time =       8.39 seconds =       0.14 minutes
	total time  =         63 seconds =       1.05 minutes

  //>>>>>>>>>>>>>>>>>>>>>>>>>>>>>>>>>>>//
  //  CBS Results: mp2/aug-cc-pV[TQ]Z  //
  //<<<<<<<<<<<<<<<<<<<<<<<<<<<<<<<<<<<//


   ==> HF <==

   HI-zeta (4) Energy:               -76.065835247057


   ==> Helgaker 2-point correlated extrapolation for method: MP2 <==

   LO-zeta (3) Energy:               -76.328742438250
   HI-zeta (4) Energy:               -76.351633747382
   Alpha (exponent) Value:             3.000000000000
   Extrapolated Energy:              -76.368338216208

   @Extrapolated MP2/(T,Q):          -76.368338216208



   ==> Helgaker 2-point correlated extrapolation for method: HF <==

   LO-zeta (3) Energy:               -76.060467699999
   HI-zeta (4) Energy:               -76.065835247057
   Alpha (exponent) Value:             3.000000000000
   Extrapolated Energy:              -76.069752105721

   @Extrapolated HF/(T,Q):           -76.069752105721


   ==> Components <==

  ---------------------------------------------------------------------------------------------------------
                          Method / Basis                      Rqd      Energy [Eh]   Variable
  ---------------------------------------------------------------------------------------------------------
                              hf / aug-cc-pvtz                  *     -76.06046770   HF TOTAL ENERGY
                             mp2 / aug-cc-pvtz                  *     -76.32874244   MP2 TOTAL ENERGY
                              hf / aug-cc-pvqz                  *     -76.06583525   HF TOTAL ENERGY
                             mp2 / aug-cc-pvqz                  *     -76.35163375   MP2 TOTAL ENERGY
  ---------------------------------------------------------------------------------------------------------

   ==> Stages <==

  ---------------------------------------------------------------------------------------------------------
      Stage               Method / Basis                       Wt      Energy [Eh]   Scheme
  ---------------------------------------------------------------------------------------------------------
        scf                   hf / aug-cc-pvqz                  1     -76.06583525   xtpl_highest_1
       corl                  mp2 / aug-cc-pv[tq]z               1     -76.36833822   corl_xtpl_helgaker_2
       corl                   hf / aug-cc-pv[tq]z              -1     -76.06975211   corl_xtpl_helgaker_2
  ---------------------------------------------------------------------------------------------------------

   ==> CBS <==

  ---------------------------------------------------------------------------------------------------------
      Stage               Method / Basis                               Energy [Eh]   Scheme
  ---------------------------------------------------------------------------------------------------------
        scf                   hf / aug-cc-pvqz                        -76.06583525   xtpl_highest_1
       corl                  mp2 / aug-cc-pv[tq]z                      -0.29858611   corl_xtpl_helgaker_2
      total                  CBS                                      -76.36442136   
  ---------------------------------------------------------------------------------------------------------
   => Loading Basis Set <=

    Name: DEF2-SVP
    Role: ORBITAL
    Keyword: BASIS
    atoms 1        entry CL         line   356 file /home/bdw2292/miniconda3/envs/amoebamdpoltype/share/psi4/basis/def2-svp.gbs 
    atoms 2        entry C          line    90 file /home/bdw2292/miniconda3/envs/amoebamdpoltype/share/psi4/basis/def2-svp.gbs 
    atoms 3-5, 7-8 entry H          line    15 file /home/bdw2292/miniconda3/envs/amoebamdpoltype/share/psi4/basis/def2-svp.gbs 
    atoms 6        entry O          line   130 file /home/bdw2292/miniconda3/envs/amoebamdpoltype/share/psi4/basis/def2-svp.gbs 


       N-Body: Complex Energy (fragments = (2,), basis = (1, 2):   -76.36442135754460)

       N-Body: Computing complex (3/4) with fragments (1,) in the basis of fragments (1, 2).


  //>>>>>>>>>>>>>>>>>>>>>>>>>>>>>>>>>>>//
  //   CBS Setup: mp2/aug-cc-pV[TQ]Z   //
  //<<<<<<<<<<<<<<<<<<<<<<<<<<<<<<<<<<<//

    Naive listing of computations required.
             hf / aug-cc-pvqz              for  HF TOTAL ENERGY
            mp2 / aug-cc-pvtz              for  MP2 TOTAL ENERGY
            mp2 / aug-cc-pvqz              for  MP2 TOTAL ENERGY
             hf / aug-cc-pvtz              for  HF TOTAL ENERGY
             hf / aug-cc-pvqz              for  HF TOTAL ENERGY

    Enlightened listing of computations required.
            mp2 / aug-cc-pvtz              for  MP2 TOTAL ENERGY
            mp2 / aug-cc-pvqz              for  MP2 TOTAL ENERGY

    Full listing of computations to be obtained (required and bonus).
             hf / aug-cc-pvtz              for  HF TOTAL ENERGY
            mp2 / aug-cc-pvtz              for  MP2 TOTAL ENERGY
             hf / aug-cc-pvqz              for  HF TOTAL ENERGY
            mp2 / aug-cc-pvqz              for  MP2 TOTAL ENERGY

  //>>>>>>>>>>>>>>>>>>>>>>>>>>>>>>>>>>>>//
  // CBS Computation: MP2 / AUG-CC-PVTZ //
  //<<<<<<<<<<<<<<<<<<<<<<<<<<<<<<<<<<<<//

    SCF Algorithm Type (re)set to DF.

*** tstart() called on node37.bme.utexas.edu
*** at Tue Feb 22 18:05:56 2022

   => Loading Basis Set <=

    Name: AUG-CC-PVTZ
    Role: ORBITAL
    Keyword: BASIS
    atoms 1        entry CL         line   984 file /home/bdw2292/miniconda3/envs/amoebamdpoltype/share/psi4/basis/aug-cc-pvtz.gbs 
    atoms 2        entry C          line   235 file /home/bdw2292/miniconda3/envs/amoebamdpoltype/share/psi4/basis/aug-cc-pvtz.gbs 
    atoms 3-5, 7-8 entry H          line    36 file /home/bdw2292/miniconda3/envs/amoebamdpoltype/share/psi4/basis/aug-cc-pvtz.gbs 
    atoms 6        entry O          line   327 file /home/bdw2292/miniconda3/envs/amoebamdpoltype/share/psi4/basis/aug-cc-pvtz.gbs 


         ---------------------------------------------------------
                                   SCF
               by Justin Turney, Rob Parrish, Andy Simmonett
                          and Daniel G. A. Smith
                              RHF Reference
                        4 Threads,  14305 MiB Core
         ---------------------------------------------------------

  ==> Geometry <==

    Molecular point group: c1
    Full point group: C1

    Geometry (in Angstrom), charge = 0, multiplicity = 1:

       Center              X                  Y                   Z               Mass       
    ------------   -----------------  -----------------  -----------------  -----------------
         CL          -0.524809128059    -0.652092627287    -0.774293408962    34.968852682000
         C           -1.321343728059     0.112804372713     0.624606391038    12.000000000000
         H           -2.359579228059    -0.215503227287     0.672891691038     1.007825032230
         H           -0.793175228059    -0.179124327287     1.532936891038     1.007825032230
         H           -1.275642928059     1.195500172713     0.506456191038     1.007825032230
      Gh(O)           2.125767271941     1.144112072713     0.994581791038    15.994914619570
      Gh(H)           1.842718071941     0.579086072713     0.273203691038     1.007825032230
[...]
      28A      0.118130    29A      0.121141    30A      0.131551  
      31A      0.144371    32A      0.154406    33A      0.161072  
      34A      0.169304    35A      0.175477    36A      0.201834  
      37A      0.215137    38A      0.219167    39A      0.233601  
      40A      0.238049    41A      0.241661    42A      0.248317  
      43A      0.256778    44A      0.266998    45A      0.278336  
      46A      0.280397    47A      0.282599    48A      0.296545  
      49A      0.310844    50A      0.323910    51A      0.326561  
      52A      0.335924    53A      0.343895    54A      0.350605  
      55A      0.358698    56A      0.363461    57A      0.367869  
      58A      0.375199    59A      0.381272    60A      0.387978  
      61A      0.399449    62A      0.406318    63A      0.414022  
      64A      0.424770    65A      0.464705    66A      0.471448  
      67A      0.511388    68A      0.516791    69A      0.528011  
      70A      0.550166    71A      0.555382    72A      0.572938  
      73A      0.573387    74A      0.577138    75A      0.595845  
      76A      0.605254    77A      0.615073    78A      0.621421  
      79A      0.629820    80A      0.643728    81A      0.654663  
      82A      0.664437    83A      0.668368    84A      0.681438  
      85A      0.690320    86A      0.699482    87A      0.703785  
      88A      0.704725    89A      0.725940    90A      0.734237  
      91A      0.739928    92A      0.752662    93A      0.758643  
      94A      0.763419    95A      0.767060    96A      0.781976  
      97A      0.783418    98A      0.799852    99A      0.816481  
     100A      0.818404   101A      0.823878   102A      0.829546  
     103A      0.853362   104A      0.864360   105A      0.879401  
     106A      0.889448   107A      0.904859   108A      0.918381  
     109A      0.931640   110A      0.940050   111A      0.944492  
     112A      0.970688   113A      0.992751   114A      1.000055  
     115A      1.013580   116A      1.034792   117A      1.050412  
     118A      1.059008   119A      1.076812   120A      1.098649  
     121A      1.118145   122A      1.135028   123A      1.140850  
     124A      1.166562   125A      1.173733   126A      1.183256  
     127A      1.194182   128A      1.196452   129A      1.205164  
     130A      1.221618   131A      1.240509   132A      1.252266  
     133A      1.257193   134A      1.273673   135A      1.295966  
     136A      1.303487   137A      1.312274   138A      1.323249  
     139A      1.381397   140A      1.398767   141A      1.418330  
     142A      1.443153   143A      1.465512   144A      1.476852  
     145A      1.488709   146A      1.497727   147A      1.534694  
     148A      1.543011   149A      1.562189   150A      1.577083  
     151A      1.607441   152A      1.612165   153A      1.633559  
     154A      1.640853   155A      1.656434   156A      1.672294  
     157A      1.695423   158A      1.705648   159A      1.717997  
     160A      1.729929   161A      1.735273   162A      1.739703  
     163A      1.743400   164A      1.769476   165A      1.783458  
     166A      1.793215   167A      1.801254   168A      1.816425  
     169A      1.826787   170A      1.833420   171A      1.840267  
     172A      1.848422   173A      1.867775   174A      1.877033  
     175A      1.886768   176A      1.894176   177A      1.915315  
     178A      1.928494   179A      1.942263   180A      1.958472  
     181A      1.965714   182A      1.979229   183A      1.990496  
     184A      1.994249   185A      2.004726   186A      2.015389  
     187A      2.019975   188A      2.042123   189A      2.052335  
     190A      2.060347   191A      2.075902   192A      2.089468  
     193A      2.091009   194A      2.116670   195A      2.129174  
     196A      2.144770   197A      2.153226   198A      2.172502  
     199A      2.179232   200A      2.191527   201A      2.197367  
     202A      2.209290   203A      2.231661   204A      2.247830  
     205A      2.255513   206A      2.265109   207A      2.275776  
     208A      2.289805   209A      2.292531   210A      2.317456  
     211A      2.336055   212A      2.339301   213A      2.369632  
     214A      2.379218   215A      2.385690   216A      2.392066  
     217A      2.409305   218A      2.424081   219A      2.449268  
     220A      2.450923   221A      2.470698   222A      2.512940  
     223A      2.539741   224A      2.579055   225A      2.595279  
     226A      2.607096   227A      2.652934   228A      2.665624  
     229A      2.673279   230A      2.684488   231A      2.698409  
     232A      2.742826   233A      2.776634   234A      2.799606  
     235A      2.813153   236A      2.838809   237A      2.861995  
     238A      2.868435   239A      2.891765   240A      2.934010  
     241A      2.966604   242A      2.972641   243A      2.991060  
     244A      3.031131   245A      3.037648   246A      3.061367  
     247A      3.091330   248A      3.101179   249A      3.113360  
     250A      3.119035   251A      3.155881   252A      3.165746  
     253A      3.185987   254A      3.225693   255A      3.285641  
     256A      3.304023   257A      3.354526   258A      3.368333  
     259A      3.382643   260A      3.432990   261A      3.438649  
     262A      3.501826   263A      3.582967   264A      3.609837  
     265A      3.630797   266A      3.634415   267A      3.694622  
     268A      3.717610   269A      3.722457   270A      3.785775  
     271A      3.801368   272A      3.815649   273A      3.824858  
     274A      3.843404   275A      3.864236   276A      3.870337  
     277A      3.875305   278A      3.895637   279A      3.994560  
     280A      4.052586   281A      4.065423   282A      4.115316  
     283A      4.127963   284A      4.151680   285A      4.154721  
     286A      4.184234   287A      4.201544   288A      4.220104  
     289A      4.227436   290A      4.230933   291A      4.271894  
     292A      4.284368   293A      4.298446   294A      4.351089  
     295A      4.414639   296A      4.431233   297A      4.452745  
     298A      4.504969   299A      4.514459   300A      4.534784  
     301A      4.611259   302A      4.637564   303A      4.676960  
     304A      4.689139   305A      4.701041   306A      4.725366  
     307A      4.749333   308A      4.789214   309A      4.799320  
     310A      4.809052   311A      4.822974   312A      4.845682  
     313A      4.863085   314A      4.876965   315A      4.883881  
     316A      4.885442   317A      4.910173   318A      4.922924  
     319A      4.959996   320A      4.983244   321A      4.995812  
     322A      5.040677   323A      5.072057   324A      5.082755  
     325A      5.110117   326A      5.137357   327A      5.186043  
     328A      5.195408   329A      5.292803   330A      5.371858  
     331A      5.389437   332A      5.404841   333A      5.439510  
     334A      5.569946   335A      5.580814   336A      5.646495  
     337A      5.939943   338A      5.993792   339A      6.120257  
     340A      6.125754   341A      6.155446   342A      6.225214  
     343A      6.280521   344A      6.347364   345A      6.379530  
     346A      6.399620   347A      6.533095   348A      6.612481  
     349A      6.638820   350A      6.709282   351A      6.730783  
     352A      6.760625   353A      6.812715   354A      6.834720  
     355A      6.858561   356A      6.892301   357A      6.925294  
     358A      6.946801   359A      6.959872   360A      6.964035  
     361A      6.984988   362A      6.988688   363A      6.999720  
     364A      7.020130   365A      7.112182   366A      7.136093  
     367A      7.160054   368A      7.333273   369A      7.338198  
     370A      7.362073   371A      7.506529   372A      7.593521  
     373A      7.615026   374A      7.659965   375A      7.700467  
     376A      7.704986   377A      7.750115   378A      7.793004  
     379A      7.840204   380A      7.865176   381A      7.874044  
     382A      7.883672   383A      7.902399   384A      7.922194  
     385A      7.943009   386A      7.959762   387A      8.037383  
     388A      8.049868   389A      8.226521   390A      8.289060  
     391A      8.317639   392A      8.403861   393A      8.412462  
     394A      8.417928   395A      8.446136   396A      8.526183  
     397A      8.605904   398A      8.630771   399A      8.640138  
     400A      8.683692   401A      8.756547   402A      8.821819  
     403A      8.871962   404A      8.879729   405A      8.881977  
     406A      8.924747   407A      8.944909   408A      9.023172  
     409A      9.029342   410A      9.102619   411A      9.171757  
     412A      9.189526   413A      9.218125   414A      9.239605  
     415A      9.256851   416A      9.440983   417A      9.454312  
     418A      9.571603   419A      9.584705   420A      9.589988  
     421A      9.611030   422A      9.692400   423A      9.698814  
     424A      9.896959   425A      9.958234   426A     10.009549  
     427A     10.025147   428A     10.043062   429A     10.085183  
     430A     10.144655   431A     10.181499   432A     10.350748  
     433A     10.353788   434A     10.395149   435A     10.479248  
     436A     10.518490   437A     10.792195   438A     10.798412  
     439A     10.828120   440A     10.879122   441A     10.973456  
     442A     10.992519   443A     11.049242   444A     11.066552  
     445A     11.180888   446A     11.337722   447A     11.391622  
     448A     11.450927   449A     11.484257   450A     11.748905  
     451A     11.857166   452A     11.908107   453A     12.041668  
     454A     12.225663   455A     12.286836   456A     12.583020  
     457A     12.766209   458A     12.898270   459A     12.933119  
     460A     13.139690   461A     13.187426   462A     13.239614  
     463A     13.348318   464A     14.010828   465A     14.111278  
     466A     14.498394   467A     14.854821   468A     14.897183  
     469A     15.325893   470A     17.017421   471A     17.355485  
     472A     26.553760   473A     28.680991   474A     45.644123  

    Final Occupation by Irrep:
              A 
    DOCC [    18 ]

  @DF-RHF Final Energy:  -575.22327273913982

   => Energetics <=

    Nuclear Repulsion Energy =             98.3317400026965913
    One-Electron Energy =                -988.7857290074407501
    Two-Electron Energy =                 315.2307162656042578
    Total Energy =                       -575.2232727391399294

Computation Completed


Properties will be evaluated at   0.000000,  -0.000000,  -0.000000 [a0]

Properties computed using the SCF density matrix

  Nuclear Dipole Moment: [e a0]
     X:     0.6828      Y:     3.5319      Z:     4.1298

  Electronic Dipole Moment: [e a0]
     X:    -0.8630      Y:    -3.1533      Z:    -4.1590

  Dipole Moment: [e a0]
     X:    -0.1801      Y:     0.3786      Z:    -0.0292     Total:     0.4202

  Dipole Moment: [D]
     X:    -0.4578      Y:     0.9622      Z:    -0.0742     Total:     1.0682


*** tstop() called on node37.bme.utexas.edu at Tue Feb 22 18:08:14 2022
Module time:
	user time   =      90.80 seconds =       1.51 minutes
	system time =       5.20 seconds =       0.09 minutes
	total time  =         35 seconds =       0.58 minutes
Total time:
	user time   =     458.54 seconds =       7.64 minutes
	system time =      26.81 seconds =       0.45 minutes
	total time  =        204 seconds =       3.40 minutes

*** tstart() called on node37.bme.utexas.edu
*** at Tue Feb 22 18:08:14 2022


  //>>>>>>>>>>>>>>>>>>>>>>>>>>>>>>>>>>>//
  //               DFMP2               //
  //<<<<<<<<<<<<<<<<<<<<<<<<<<<<<<<<<<<//

   => Loading Basis Set <=

    Name: (AUG-CC-PVQZ AUX)
    Role: RIFIT
    Keyword: DF_BASIS_MP2
    atoms 1        entry CL         line   914 file /home/bdw2292/miniconda3/envs/amoebamdpoltype/share/psi4/basis/aug-cc-pvqz-ri.gbs 
    atoms 2        entry C          line   184 file /home/bdw2292/miniconda3/envs/amoebamdpoltype/share/psi4/basis/aug-cc-pvqz-ri.gbs 
    atoms 3-5, 7-8 entry H          line    30 file /home/bdw2292/miniconda3/envs/amoebamdpoltype/share/psi4/basis/aug-cc-pvqz-ri.gbs 
    atoms 6        entry O          line   332 file /home/bdw2292/miniconda3/envs/amoebamdpoltype/share/psi4/basis/aug-cc-pvqz-ri.gbs 

	 --------------------------------------------------------
	                          DF-MP2                         
	      2nd-Order Density-Fitted Moller-Plesset Theory     
	              RMP2 Wavefunction,   4 Threads             
	                                                         
	        Rob Parrish, Justin Turney, Andy Simmonett,      
	           Ed Hohenstein, and C. David Sherrill          
	 --------------------------------------------------------

   => Auxiliary Basis Set <=

  Basis Set: (AUG-CC-PVQZ AUX)
    Blend: AUG-CC-PVQZ-RI
    Number of shells: 216
    Number of basis function: 930
    Number of Cartesian functions: 1267
    Spherical Harmonics?: true
    Max angular momentum: 5

	 --------------------------------------------------------
	                 NBF =   474, NAUX =   930
	 --------------------------------------------------------
	   CLASS    FOCC     OCC    AOCC    AVIR     VIR    FVIR
	   PAIRS       7      18      11     456     456       0
	 --------------------------------------------------------

	-----------------------------------------------------------
	 ==================> DF-MP2 Energies <==================== 
	-----------------------------------------------------------
	 Reference Energy          =    -575.2232727391398157 [Eh]
	 Singles Energy            =      -0.0000000000000000 [Eh]
	 Same-Spin Energy          =      -0.1563326822564101 [Eh]
	 Opposite-Spin Energy      =      -0.5384433055665717 [Eh]
	 Correlation Energy        =      -0.6947759878229818 [Eh]
	 Total Energy              =    -575.9180487269627520 [Eh]
	-----------------------------------------------------------
	 ================> DF-SCS-MP2 Energies <================== 
	-----------------------------------------------------------
	 SCS Same-Spin Scale       =       0.3333333333333333 [-]
	 SCS Opposite-Spin Scale   =       1.2000000000000000 [-]
	 SCS Same-Spin Energy      =      -0.0521108940854700 [Eh]
	 SCS Opposite-Spin Energy  =      -0.6461319666798860 [Eh]
	 SCS Correlation Energy    =      -0.6982428607653560 [Eh]
	 SCS Total Energy          =    -575.9215155999052058 [Eh]
	-----------------------------------------------------------


*** tstop() called on node37.bme.utexas.edu at Tue Feb 22 18:08:26 2022
Module time:
	user time   =      33.15 seconds =       0.55 minutes
	system time =       2.26 seconds =       0.04 minutes
	total time  =         12 seconds =       0.20 minutes
Total time:
	user time   =     491.69 seconds =       8.19 minutes
	system time =      29.07 seconds =       0.48 minutes
	total time  =        216 seconds =       3.60 minutes

  //>>>>>>>>>>>>>>>>>>>>>>>>>>>>>>>>>>>//
  //  CBS Results: mp2/aug-cc-pV[TQ]Z  //
  //<<<<<<<<<<<<<<<<<<<<<<<<<<<<<<<<<<<//


   ==> HF <==

   HI-zeta (4) Energy:               -575.223272739140


   ==> Helgaker 2-point correlated extrapolation for method: MP2 <==

   LO-zeta (3) Energy:               -575.862440722057
   HI-zeta (4) Energy:               -575.918048726963
   Alpha (exponent) Value:             3.000000000000
   Extrapolated Energy:              -575.958627541353

   @Extrapolated MP2/(T,Q):          -575.958627541353



   ==> Helgaker 2-point correlated extrapolation for method: HF <==

   LO-zeta (3) Energy:               -575.211859025409
   HI-zeta (4) Energy:               -575.223272739140
   Alpha (exponent) Value:             3.000000000000
   Extrapolated Energy:              -575.231601665376

   @Extrapolated HF/(T,Q):           -575.231601665376


   ==> Components <==

  ---------------------------------------------------------------------------------------------------------
                          Method / Basis                      Rqd      Energy [Eh]   Variable
  ---------------------------------------------------------------------------------------------------------
                              hf / aug-cc-pvtz                  *    -575.21185903   HF TOTAL ENERGY
                             mp2 / aug-cc-pvtz                  *    -575.86244072   MP2 TOTAL ENERGY
                              hf / aug-cc-pvqz                  *    -575.22327274   HF TOTAL ENERGY
                             mp2 / aug-cc-pvqz                  *    -575.91804873   MP2 TOTAL ENERGY
  ---------------------------------------------------------------------------------------------------------

   ==> Stages <==

  ---------------------------------------------------------------------------------------------------------
      Stage               Method / Basis                       Wt      Energy [Eh]   Scheme
  ---------------------------------------------------------------------------------------------------------
        scf                   hf / aug-cc-pvqz                  1    -575.22327274   xtpl_highest_1
       corl                  mp2 / aug-cc-pv[tq]z               1    -575.95862754   corl_xtpl_helgaker_2
       corl                   hf / aug-cc-pv[tq]z              -1    -575.23160167   corl_xtpl_helgaker_2
  ---------------------------------------------------------------------------------------------------------

   ==> CBS <==

  ---------------------------------------------------------------------------------------------------------
      Stage               Method / Basis                               Energy [Eh]   Scheme
  ---------------------------------------------------------------------------------------------------------
        scf                   hf / aug-cc-pvqz                       -575.22327274   xtpl_highest_1
       corl                  mp2 / aug-cc-pv[tq]z                      -0.72702588   corl_xtpl_helgaker_2
      total                  CBS                                     -575.95029862   
  ---------------------------------------------------------------------------------------------------------
   => Loading Basis Set <=

    Name: DEF2-SVP
    Role: ORBITAL
    Keyword: BASIS
    atoms 1        entry CL         line   356 file /home/bdw2292/miniconda3/envs/amoebamdpoltype/share/psi4/basis/def2-svp.gbs 
    atoms 2        entry C          line    90 file /home/bdw2292/miniconda3/envs/amoebamdpoltype/share/psi4/basis/def2-svp.gbs 
    atoms 3-5, 7-8 entry H          line    15 file /home/bdw2292/miniconda3/envs/amoebamdpoltype/share/psi4/basis/def2-svp.gbs 
    atoms 6        entry O          line   130 file /home/bdw2292/miniconda3/envs/amoebamdpoltype/share/psi4/basis/def2-svp.gbs 


       N-Body: Complex Energy (fragments = (1, 2), basis = (1, 2):  -575.95029861511682)

   ==> N-Body: Counterpoise Corrected (CP) energies <==

   n-Body     Total Energy [Eh]       I.E. [kcal/mol]      Delta [kcal/mol]
        1     -575.945684151399        0.000000000000        0.000000000000
        2     -575.950239721536       -2.858663419194       -2.858663419194

   => Loading Basis Set <=

    Name: DEF2-SVP
    Role: ORBITAL
    Keyword: BASIS
    atoms 1        entry CL         line   356 file /home/bdw2292/miniconda3/envs/amoebamdpoltype/share/psi4/basis/def2-svp.gbs 
    atoms 2        entry C          line    90 file /home/bdw2292/miniconda3/envs/amoebamdpoltype/share/psi4/basis/def2-svp.gbs 
    atoms 3-5, 7-8 entry H          line    15 file /home/bdw2292/miniconda3/envs/amoebamdpoltype/share/psi4/basis/def2-svp.gbs 
    atoms 6        entry O          line   130 file /home/bdw2292/miniconda3/envs/amoebamdpoltype/share/psi4/basis/def2-svp.gbs 

CP Energy =  -0.004556
    Psi4 stopped on: Tuesday, 22 February 2022 06:08PM
    Psi4 wall time for execution: 0:03:37.48

*** Psi4 exiting successfully. Buy a developer a beer!
