
    -----------------------------------------------------------------------
          Psi4: An Open-Source Ab Initio Electronic Structure Package
                               Psi4 1.3.2 release

                         Git: Rev {HEAD} ecbda83 


    R. M. Parrish, L. A. Burns, D. G. A. Smith, A. C. Simmonett,
    A. E. DePrince III, E. G. Hohenstein, U. Bozkaya, A. Yu. Sokolov,
    R. Di Remigio, R. M. Richard, J. F. Gonthier, A. M. James,
    H. R. McAlexander, A. Kumar, M. Saitow, X. Wang, B. P. Pritchard,
    P. Verma, H. F. Schaefer III, K. Patkowski, R. A. King, E. F. Valeev,
    F. A. Evangelista, J. M. Turney, T. D. Crawford, and C. D. Sherrill,
    J. Chem. Theory Comput. 13(7) pp 3185--3197 (2017).
    (doi: 10.1021/acs.jctc.7b00174)


                         Additional Contributions by
    P. Kraus, H. Kruse, M. H. Lechner, M. C. Schieber, R. A. Shaw,
    A. Alenaizan, R. Galvelis, Z. L. Glick, S. Lehtola, and J. P. Misiewicz

    -----------------------------------------------------------------------


    Psi4 started on: Tuesday, 22 February 2022 06:01PM

    Process ID: 27952
    Host:       node37.bme.utexas.edu
    PSIDATADIR: /home/bdw2292/miniconda3/envs/amoebamdpoltype/share/psi4
    Memory:     500.0 MiB
    Threads:    1
    
  ==> Input File <==

--------------------------------------------------------------------------
molecule { 
0 1
 Cl                 -0.0649832    -0.8758863    -1.3634788
  C                 -0.8615178    -0.1109893     0.0354210
  H                 -1.8997533    -0.4392969     0.0837063
  H                 -0.3333493    -0.4029180     0.9437515
  H                 -0.8158170     0.9717065    -0.0827292
--
0 1
  O                  2.1551337     0.6964677     0.2149424
  H                  1.8720845     0.1314417    -0.5064358
  H                  2.8200732     1.2972486    -0.1210185
}
memory 15GB
set_num_threads(4)
psi4_io.set_default_path("/scratch/bdw2292/Psi4-CH3Cl")
set maxiter 500
set freeze_core True
set PROPERTIES_ORIGIN ["COM"]
e_dim= energy('mp2/aug-cc-pV[TQ]Z',bsse_type='cp')

psi4.print_out('CP Energy = %10.6f' % (e_dim))
clean()
--------------------------------------------------------------------------

  Memory set to  13.970 GiB by Python driver.
  Threads set to 4 by Python driver.


   ===> N-Body Interaction Abacus <===
        BSSE Treatment:                     cp
        Number of 1-body computations:     4
        Number of 2-body computations:     1

   ==> N-Body: Now computing 1-body complexes <==


       N-Body: Computing complex (1/4) with fragments (2,) in the basis of fragments (2,).


  //>>>>>>>>>>>>>>>>>>>>>>>>>>>>>>>>>>>//
  //   CBS Setup: mp2/aug-cc-pV[TQ]Z   //
  //<<<<<<<<<<<<<<<<<<<<<<<<<<<<<<<<<<<//

    Naive listing of computations required.
             hf / aug-cc-pvqz              for  HF TOTAL ENERGY
            mp2 / aug-cc-pvtz              for  MP2 TOTAL ENERGY
            mp2 / aug-cc-pvqz              for  MP2 TOTAL ENERGY
             hf / aug-cc-pvtz              for  HF TOTAL ENERGY
             hf / aug-cc-pvqz              for  HF TOTAL ENERGY

    Enlightened listing of computations required.
            mp2 / aug-cc-pvtz              for  MP2 TOTAL ENERGY
            mp2 / aug-cc-pvqz              for  MP2 TOTAL ENERGY

    Full listing of computations to be obtained (required and bonus).
             hf / aug-cc-pvtz              for  HF TOTAL ENERGY
            mp2 / aug-cc-pvtz              for  MP2 TOTAL ENERGY
             hf / aug-cc-pvqz              for  HF TOTAL ENERGY
            mp2 / aug-cc-pvqz              for  MP2 TOTAL ENERGY

  //>>>>>>>>>>>>>>>>>>>>>>>>>>>>>>>>>>>>//
  // CBS Computation: MP2 / AUG-CC-PVTZ //
  //<<<<<<<<<<<<<<<<<<<<<<<<<<<<<<<<<<<<//

    SCF Algorithm Type (re)set to DF.

*** tstart() called on node37.bme.utexas.edu
*** at Tue Feb 22 18:01:30 2022

   => Loading Basis Set <=

    Name: AUG-CC-PVTZ
    Role: ORBITAL
    Keyword: BASIS
    atoms 1   entry O          line   327 file /home/bdw2292/miniconda3/envs/amoebamdpoltype/share/psi4/basis/aug-cc-pvtz.gbs 
    atoms 2-3 entry H          line    36 file /home/bdw2292/miniconda3/envs/amoebamdpoltype/share/psi4/basis/aug-cc-pvtz.gbs 


         ---------------------------------------------------------
                                   SCF
               by Justin Turney, Rob Parrish, Andy Simmonett
                          and Daniel G. A. Smith
                              RHF Reference
                        4 Threads,  14305 MiB Core
         ---------------------------------------------------------

  ==> Geometry <==

    Molecular point group: c1
    Full point group: C1

    Geometry (in Angstrom), charge = 0, multiplicity = 1:

       Center              X                  Y                   Z               Mass       
    ------------   -----------------  -----------------  -----------------  -----------------
         O            1.809314961751     0.979548224568     0.854569530542    15.994914619570
         H            1.526265761751     0.414522224568     0.133191330542     1.007825032230
         H            2.474254461751     1.580329124568     0.518608630542     1.007825032230

  Running in c1 symmetry.

  Rotational constants: A =     22.73162  B =      0.18665  C =      0.18584 [cm^-1]
  Rotational constants: A = 681476.84159  B =   5595.51101  C =   5571.23816 [MHz]
  Nuclear repulsion =    9.178742107819064

  Charge       = 0
  Multiplicity = 1
  Electrons    = 10
  Nalpha       = 5
  Nbeta        = 5

  ==> Algorithm <==

  SCF Algorithm Type is DF.
  DIIS enabled.
  MOM disabled.
  Fractional occupation disabled.
  Guess Type is SAD.
  Energy threshold   = 1.00e-08
  Density threshold  = 1.00e-08
  Integral threshold = 0.00e+00

  ==> Primary Basis <==

  Basis Set: AUG-CC-PVTZ
    Blend: AUG-CC-PVTZ
    Number of shells: 32
    Number of basis function: 92
    Number of Cartesian functions: 105
    Spherical Harmonics?: true
    Max angular momentum: 3

   => Loading Basis Set <=

    Name: (AUG-CC-PVTZ AUX)
    Role: JKFIT
    Keyword: DF_BASIS_SCF
    atoms 1   entry O          line   286 file /home/bdw2292/miniconda3/envs/amoebamdpoltype/share/psi4/basis/aug-cc-pvtz-jkfit.gbs 
    atoms 2-3 entry H          line    70 file /home/bdw2292/miniconda3/envs/amoebamdpoltype/share/psi4/basis/aug-cc-pvtz-jkfit.gbs 

  ==> Pre-Iterations <==

   -------------------------------------------------------
    Irrep   Nso     Nmo     Nalpha   Nbeta   Ndocc  Nsocc
   -------------------------------------------------------
     A         92      92       0       0       0       0
   -------------------------------------------------------
    Total      92      92       5       5       5       0
   -------------------------------------------------------

  ==> Integral Setup <==

  DFHelper Memory: AOs need 0.015 GiB; user supplied 10.477 GiB. Using in-core AOs.

  ==> MemDFJK: Density-Fitted J/K Matrices <==

    J tasked:                   Yes
    K tasked:                   Yes
    wK tasked:                   No
    OpenMP threads:               4
    Memory [MiB]:             10728
    Algorithm:                 Core
    Schwarz Cutoff:           1E-12
    Mask sparsity (%):       0.0000
    Fitting Condition:        1E-10

   => Auxiliary Basis Set <=

  Basis Set: (AUG-CC-PVTZ AUX)
    Blend: AUG-CC-PVTZ-JKFIT
    Number of shells: 58
    Number of basis function: 196
    Number of Cartesian functions: 241
    Spherical Harmonics?: true
    Max angular momentum: 4

  Minimum eigenvalue in the overlap matrix is 3.7831929402E-04.
  Using Symmetric Orthogonalization.

  SCF Guess: Superposition of Atomic Densities via on-the-fly atomic UHF.

  ==> Iterations <==

                           Total Energy        Delta E     RMS |[F,P]|

   @DF-RHF iter SAD:   -75.47358568606697   -7.54736e+01   0.00000e+00 
   @DF-RHF iter   1:   -75.97652929341767   -5.02944e-01   5.09341e-03 DIIS
   @DF-RHF iter   2:   -76.02893782975437   -5.24085e-02   3.45451e-03 DIIS
   @DF-RHF iter   3:   -76.06001872953821   -3.10809e-02   2.34643e-04 DIIS
   @DF-RHF iter   4:   -76.06040893883534   -3.90209e-04   5.60768e-05 DIIS
   @DF-RHF iter   5:   -76.06043298796361   -2.40491e-05   1.26329e-05 DIIS
   @DF-RHF iter   6:   -76.06043495264346   -1.96468e-06   2.80891e-06 DIIS
   @DF-RHF iter   7:   -76.06043506062960   -1.07986e-07   5.29240e-07 DIIS
   @DF-RHF iter   8:   -76.06043506402851   -3.39891e-09   8.79265e-08 DIIS
   @DF-RHF iter   9:   -76.06043506410242   -7.39107e-11   2.18708e-08 DIIS
   @DF-RHF iter  10:   -76.06043506410640   -3.97904e-12   2.99458e-09 DIIS
  Energy and wave function converged.


  ==> Post-Iterations <==

    Orbital Energies [Eh]
    ---------------------

    Doubly Occupied:                                                      

       1A    -20.565726     2A     -1.350644     3A     -0.724219  
       4A     -0.577784     5A     -0.509223  

    Virtual:                                                              

       6A      0.029647     7A      0.047459     8A      0.136442  
       9A      0.157942    10A      0.174323    11A      0.182106  
      12A      0.228703    13A      0.244480    14A      0.263948  
      15A      0.304382    16A      0.312986    17A      0.365256  
      18A      0.437862    19A      0.466707    20A      0.602004  
      21A      0.654530    22A      0.710942    23A      0.719520  
      24A      0.731335    25A      0.828062    26A      0.843850  
      27A      0.890184    28A      0.912839    29A      0.920743  
      30A      0.923565    31A      0.928078    32A      0.970583  
      33A      1.022734    34A      1.045089    35A      1.084937  
      36A      1.113603    37A      1.172928    38A      1.177531  
      39A      1.259745    40A      1.514028    41A      1.561870  
      42A      1.594873    43A      1.787278    44A      1.797844  
      45A      2.001711    46A      2.115640    47A      2.259872  
      48A      2.318349    49A      2.321430    50A      2.413921  
      51A      2.414844    52A      2.438917    53A      2.472037  
      54A      2.686316    55A      2.702862    56A      2.767606  
      57A      2.854325    58A      2.883784    59A      3.645219  
      60A      3.767917    61A      4.007538    62A      4.089440  
      63A      4.208878    64A      4.231936    65A      4.332843  
      66A      4.381409    67A      4.400787    68A      4.413359  
      69A      4.494871    70A      4.708534    71A      4.814530  
      72A      5.124352    73A      5.170307    74A      5.301821  
      75A      5.329154    76A      5.513137    77A      5.717358  
      78A      6.142116    79A      6.533427    80A      6.713474  
      81A      6.861117    82A      7.145576    83A      7.261615  
      84A      7.301099    85A      7.308216    86A      7.370267  
      87A      7.381718    88A      7.556032    89A      7.898602  
      90A      7.959664    91A      8.788929    92A     15.841030  

    Final Occupation by Irrep:
              A 
    DOCC [     5 ]

  @DF-RHF Final Energy:   -76.06043506410640

   => Energetics <=

    Nuclear Repulsion Energy =              9.1787421078190636
    One-Electron Energy =                -123.0231625972901952
    Two-Electron Energy =                  37.7839854253647331
    Total Energy =                        -76.0604350641064002

Computation Completed


Properties will be evaluated at   3.459492,   1.854859,   1.503095 [a0]

Properties computed using the SCF density matrix

  Nuclear Dipole Moment: [e a0]
     X:     0.3178      Y:     0.0298      Z:    -0.8800

  Electronic Dipole Moment: [e a0]
     X:    -0.0608      Y:    -0.0055      Z:     0.1689

  Dipole Moment: [e a0]
     X:     0.2571      Y:     0.0243      Z:    -0.7111     Total:     0.7565

  Dipole Moment: [D]
     X:     0.6534      Y:     0.0617      Z:    -1.8075     Total:     1.9229


*** tstop() called on node37.bme.utexas.edu at Tue Feb 22 18:01:34 2022
Module time:
	user time   =       5.20 seconds =       0.09 minutes
	system time =       0.36 seconds =       0.01 minutes
	total time  =          4 seconds =       0.07 minutes
Total time:
	user time   =       5.20 seconds =       0.09 minutes
	system time =       0.36 seconds =       0.01 minutes
	total time  =          4 seconds =       0.07 minutes

*** tstart() called on node37.bme.utexas.edu
*** at Tue Feb 22 18:01:34 2022


  //>>>>>>>>>>>>>>>>>>>>>>>>>>>>>>>>>>>//
  //               DFMP2               //
  //<<<<<<<<<<<<<<<<<<<<<<<<<<<<<<<<<<<//

   => Loading Basis Set <=

    Name: (AUG-CC-PVTZ AUX)
    Role: RIFIT
    Keyword: DF_BASIS_MP2
    atoms 1   entry O          line   264 file /home/bdw2292/miniconda3/envs/amoebamdpoltype/share/psi4/basis/aug-cc-pvtz-ri.gbs 
    atoms 2-3 entry H          line    30 file /home/bdw2292/miniconda3/envs/amoebamdpoltype/share/psi4/basis/aug-cc-pvtz-ri.gbs 

	 --------------------------------------------------------
	                          DF-MP2                         
	      2nd-Order Density-Fitted Moller-Plesset Theory     
	              RMP2 Wavefunction,   4 Threads             
	                                                         
	        Rob Parrish, Justin Turney, Andy Simmonett,      
	           Ed Hohenstein, and C. David Sherrill          
	 --------------------------------------------------------

   => Auxiliary Basis Set <=

  Basis Set: (AUG-CC-PVTZ AUX)
    Blend: AUG-CC-PVTZ-RI
    Number of shells: 56
    Number of basis function: 198
    Number of Cartesian functions: 246
    Spherical Harmonics?: true
    Max angular momentum: 4

	 --------------------------------------------------------
	                 NBF =    92, NAUX =   198
	 --------------------------------------------------------
	   CLASS    FOCC     OCC    AOCC    AVIR     VIR    FVIR
	   PAIRS       1       5       4      87      87       0
	 --------------------------------------------------------

	-----------------------------------------------------------
	 ==================> DF-MP2 Energies <==================== 
	-----------------------------------------------------------
	 Reference Energy          =     -76.0604350641064002 [Eh]
	 Singles Energy            =      -0.0000000000000000 [Eh]
	 Same-Spin Energy          =      -0.0651071405244194 [Eh]
	 Opposite-Spin Energy      =      -0.2030207682072720 [Eh]
	 Correlation Energy        =      -0.2681279087316914 [Eh]
	 Total Energy              =     -76.3285629728380854 [Eh]
	-----------------------------------------------------------
	 ================> DF-SCS-MP2 Energies <================== 
	-----------------------------------------------------------
	 SCS Same-Spin Scale       =       0.3333333333333333 [-]
	 SCS Opposite-Spin Scale   =       1.2000000000000000 [-]
	 SCS Same-Spin Energy      =      -0.0217023801748065 [Eh]
	 SCS Opposite-Spin Energy  =      -0.2436249218487264 [Eh]
	 SCS Correlation Energy    =      -0.2653273020235328 [Eh]
	 SCS Total Energy          =     -76.3257623661299363 [Eh]
	-----------------------------------------------------------


*** tstop() called on node37.bme.utexas.edu at Tue Feb 22 18:01:34 2022
Module time:
	user time   =       1.81 seconds =       0.03 minutes
	system time =       0.15 seconds =       0.00 minutes
	total time  =          0 seconds =       0.00 minutes
Total time:
	user time   =       7.02 seconds =       0.12 minutes
	system time =       0.51 seconds =       0.01 minutes
	total time  =          4 seconds =       0.07 minutes

  //>>>>>>>>>>>>>>>>>>>>>>>>>>>>>>>>>>>>//
  // CBS Computation: MP2 / AUG-CC-PVQZ //
  //<<<<<<<<<<<<<<<<<<<<<<<<<<<<<<<<<<<<//

    SCF Algorithm Type (re)set to DF.

*** tstart() called on node37.bme.utexas.edu
*** at Tue Feb 22 18:01:34 2022

   => Loading Basis Set <=

    Name: AUG-CC-PVQZ
    Role: ORBITAL
    Keyword: BASIS
    atoms 1   entry O          line   419 file /home/bdw2292/miniconda3/envs/amoebamdpoltype/share/psi4/basis/aug-cc-pvqz.gbs 
    atoms 2-3 entry H          line    36 file /home/bdw2292/miniconda3/envs/amoebamdpoltype/share/psi4/basis/aug-cc-pvqz.gbs 


         ---------------------------------------------------------
                                   SCF
               by Justin Turney, Rob Parrish, Andy Simmonett
                          and Daniel G. A. Smith
                              RHF Reference
                        4 Threads,  14305 MiB Core
         ---------------------------------------------------------

  ==> Geometry <==

    Molecular point group: c1
    Full point group: C1

    Geometry (in Angstrom), charge = 0, multiplicity = 1:

       Center              X                  Y                   Z               Mass       
    ------------   -----------------  -----------------  -----------------  -----------------
         O            1.809314961751     0.979548224568     0.854569530542    15.994914619570
         H            1.526265761751     0.414522224568     0.133191330542     1.007825032230
         H            2.474254461751     1.580329124568     0.518608630542     1.007825032230

  Running in c1 symmetry.

  Rotational constants: A =     22.73162  B =      0.18665  C =      0.18584 [cm^-1]
  Rotational constants: A = 681476.84159  B =   5595.51101  C =   5571.23816 [MHz]
  Nuclear repulsion =    9.178742107819064

  Charge       = 0
  Multiplicity = 1
  Electrons    = 10
  Nalpha       = 5
  Nbeta        = 5

  ==> Algorithm <==

  SCF Algorithm Type is DF.
  DIIS enabled.
  MOM disabled.
  Fractional occupation disabled.
  Guess Type is SAD.
  Energy threshold   = 1.00e-08
  Density threshold  = 1.00e-08
  Integral threshold = 0.00e+00

  ==> Primary Basis <==

  Basis Set: AUG-CC-PVQZ
    Blend: AUG-CC-PVQZ
    Number of shells: 48
    Number of basis function: 172
    Number of Cartesian functions: 215
    Spherical Harmonics?: true
    Max angular momentum: 4

   => Loading Basis Set <=

    Name: (AUG-CC-PVQZ AUX)
    Role: JKFIT
    Keyword: DF_BASIS_SCF
    atoms 1   entry O          line   318 file /home/bdw2292/miniconda3/envs/amoebamdpoltype/share/psi4/basis/aug-cc-pvqz-jkfit.gbs 
    atoms 2-3 entry H          line    70 file /home/bdw2292/miniconda3/envs/amoebamdpoltype/share/psi4/basis/aug-cc-pvqz-jkfit.gbs 

  ==> Pre-Iterations <==

   -------------------------------------------------------
    Irrep   Nso     Nmo     Nalpha   Nbeta   Ndocc  Nsocc
   -------------------------------------------------------
     A        172     172       0       0       0       0
   -------------------------------------------------------
    Total     172     172       5       5       5       0
   -------------------------------------------------------

  ==> Integral Setup <==

  DFHelper Memory: AOs need 0.074 GiB; user supplied 10.477 GiB. Using in-core AOs.

  ==> MemDFJK: Density-Fitted J/K Matrices <==

    J tasked:                   Yes
    K tasked:                   Yes
    wK tasked:                   No
    OpenMP threads:               4
    Memory [MiB]:             10728
    Algorithm:                 Core
    Schwarz Cutoff:           1E-12
    Mask sparsity (%):       0.0000
    Fitting Condition:        1E-10

   => Auxiliary Basis Set <=

  Basis Set: (AUG-CC-PVQZ AUX)
    Blend: AUG-CC-PVQZ-JKFIT
    Number of shells: 70
    Number of basis function: 294
    Number of Cartesian functions: 400
    Spherical Harmonics?: true
    Max angular momentum: 5

  Minimum eigenvalue in the overlap matrix is 8.5630451580E-05.
  Using Symmetric Orthogonalization.

  SCF Guess: Superposition of Atomic Densities via on-the-fly atomic UHF.

  ==> Iterations <==

                           Total Energy        Delta E     RMS |[F,P]|

   @DF-RHF iter SAD:   -75.47874028944817   -7.54787e+01   0.00000e+00 
   @DF-RHF iter   1:   -75.98160923284370   -5.02869e-01   2.73017e-03 DIIS
   @DF-RHF iter   2:   -76.03412167142386   -5.25124e-02   1.85599e-03 DIIS
   @DF-RHF iter   3:   -76.06540064056944   -3.12790e-02   1.26424e-04 DIIS
   @DF-RHF iter   4:   -76.06579291408768   -3.92274e-04   3.09137e-05 DIIS
   @DF-RHF iter   5:   -76.06581786503098   -2.49509e-05   6.93848e-06 DIIS
   @DF-RHF iter   6:   -76.06581991223477   -2.04720e-06   1.58417e-06 DIIS
   @DF-RHF iter   7:   -76.06582003151955   -1.19285e-07   3.08078e-07 DIIS
   @DF-RHF iter   8:   -76.06582003552538   -4.00583e-09   4.93680e-08 DIIS
   @DF-RHF iter   9:   -76.06582003560928   -8.39009e-11   1.19637e-08 DIIS
   @DF-RHF iter  10:   -76.06582003561365   -4.37694e-12   1.66962e-09 DIIS
  Energy and wave function converged.


  ==> Post-Iterations <==

    Orbital Energies [Eh]
    ---------------------

    Doubly Occupied:                                                      

       1A    -20.563270     2A     -1.349918     3A     -0.724185  
       4A     -0.577836     5A     -0.509353  

    Virtual:                                                              

       6A      0.027128     7A      0.042889     8A      0.114662  
       9A      0.132688    10A      0.150394    11A      0.157915  
      12A      0.185898    13A      0.197103    14A      0.208336  
      15A      0.241041    16A      0.258802    17A      0.290489  
      18A      0.357995    19A      0.390504    20A      0.471647  
      21A      0.506839    22A      0.542960    23A      0.545802  
      24A      0.554312    25A      0.613322    26A      0.634128  
      27A      0.649413    28A      0.662723    29A      0.665883  
      30A      0.689916    31A      0.705271    32A      0.715113  
      33A      0.769520    34A      0.787578    35A      0.803440  
      36A      0.809263    37A      0.846469    38A      0.855350  
      39A      0.967531    40A      1.134264    41A      1.139870  
      42A      1.216056    43A      1.329192    44A      1.419406  
      45A      1.480446    46A      1.506335    47A      1.520982  
      48A      1.525220    49A      1.555718    50A      1.595342  
      51A      1.618224    52A      1.636558    53A      1.659871  
      54A      1.671851    55A      1.686259    56A      1.702563  
      57A      1.720777    58A      1.762711    59A      1.780500  
      60A      1.792638    61A      1.829164    62A      1.863085  
      63A      1.882519    64A      1.901349    65A      1.955387  
      66A      2.013772    67A      2.022636    68A      2.029838  
      69A      2.099282    70A      2.217970    71A      2.225332  
      72A      2.307284    73A      2.488630    74A      2.640868  
      75A      2.642176    76A      2.889988    77A      2.961699  
      78A      3.009052    79A      3.024662    80A      3.060905  
      81A      3.087861    82A      3.255122    83A      3.284449  
      84A      3.307896    85A      3.527185    86A      3.591080  
      87A      3.657007    88A      3.683136    89A      3.738714  
      90A      3.742032    91A      3.921076    92A      4.067310  
      93A      4.159907    94A      4.170501    95A      4.175021  
      96A      4.181092    97A      4.250057    98A      4.343099  
      99A      4.420045   100A      4.566431   101A      4.667126  
     102A      4.759685   103A      4.802588   104A      4.805158  
     105A      4.835944   106A      4.875288   107A      4.998481  
     108A      5.273381   109A      5.315716   110A      5.512547  
     111A      5.545193   112A      5.878000   113A      5.880201  
     114A      6.079115   115A      6.229736   116A      6.837779  
     117A      6.857156   118A      6.862611   119A      6.953160  
     120A      7.712974   121A      7.780263   122A      7.826819  
     123A      7.843967   124A      7.871812   125A      7.917152  
     126A      7.944833   127A      8.007591   128A      8.198391  
     129A      8.331003   130A      8.535534   131A      8.593801  
     132A      8.699077   133A      8.755239   134A      8.797064  
     135A      8.873204   136A      8.982384   137A      9.061357  
     138A      9.145967   139A      9.537804   140A      9.842319  
     141A      9.959205   142A      9.960823   143A     10.010371  
     144A     10.431879   145A     10.477162   146A     10.656612  
     147A     10.994302   148A     11.040403   149A     11.080916  
     150A     11.260697   151A     11.365135   152A     11.436895  
     153A     11.697107   154A     11.795965   155A     11.835001  
     156A     12.010550   157A     12.177129   158A     12.222437  
     159A     12.536481   160A     12.733928   161A     12.870765  
     162A     12.895228   163A     13.210137   164A     13.996154  
     165A     14.036127   166A     14.486327   167A     14.841139  
     168A     14.873751   169A     15.294387   170A     16.919518  
     171A     17.265153   172A     45.488744  

    Final Occupation by Irrep:
              A 
    DOCC [     5 ]

  @DF-RHF Final Energy:   -76.06582003561365

   => Energetics <=

    Nuclear Repulsion Energy =              9.1787421078190636
    One-Electron Energy =                -123.0400033997598825
    Two-Electron Energy =                  37.7954412563271660
    Total Energy =                        -76.0658200356136547

Computation Completed


Properties will be evaluated at   3.459492,   1.854859,   1.503095 [a0]

Properties computed using the SCF density matrix

  Nuclear Dipole Moment: [e a0]
     X:     0.3178      Y:     0.0298      Z:    -0.8800

  Electronic Dipole Moment: [e a0]
     X:    -0.0611      Y:    -0.0055      Z:     0.1697

  Dipole Moment: [e a0]
     X:     0.2568      Y:     0.0243      Z:    -0.7103     Total:     0.7557

  Dipole Moment: [D]
     X:     0.6526      Y:     0.0616      Z:    -1.8054     Total:     1.9207


*** tstop() called on node37.bme.utexas.edu at Tue Feb 22 18:01:38 2022
Module time:
	user time   =       9.33 seconds =       0.16 minutes
	system time =       0.73 seconds =       0.01 minutes
	total time  =          4 seconds =       0.07 minutes
Total time:
	user time   =      16.40 seconds =       0.27 minutes
	system time =       1.24 seconds =       0.02 minutes
	total time  =          8 seconds =       0.13 minutes

*** tstart() called on node37.bme.utexas.edu
*** at Tue Feb 22 18:01:38 2022


  //>>>>>>>>>>>>>>>>>>>>>>>>>>>>>>>>>>>//
  //               DFMP2               //
  //<<<<<<<<<<<<<<<<<<<<<<<<<<<<<<<<<<<//

   => Loading Basis Set <=

    Name: (AUG-CC-PVQZ AUX)
    Role: RIFIT
    Keyword: DF_BASIS_MP2
    atoms 1   entry O          line   332 file /home/bdw2292/miniconda3/envs/amoebamdpoltype/share/psi4/basis/aug-cc-pvqz-ri.gbs 
    atoms 2-3 entry H          line    30 file /home/bdw2292/miniconda3/envs/amoebamdpoltype/share/psi4/basis/aug-cc-pvqz-ri.gbs 

	 --------------------------------------------------------
	                          DF-MP2                         
	      2nd-Order Density-Fitted Moller-Plesset Theory     
	              RMP2 Wavefunction,   4 Threads             
	                                                         
	        Rob Parrish, Justin Turney, Andy Simmonett,      
	           Ed Hohenstein, and C. David Sherrill          
	 --------------------------------------------------------

   => Auxiliary Basis Set <=

  Basis Set: (AUG-CC-PVQZ AUX)
    Blend: AUG-CC-PVQZ-RI
    Number of shells: 76
    Number of basis function: 328
    Number of Cartesian functions: 447
    Spherical Harmonics?: true
    Max angular momentum: 5

	 --------------------------------------------------------
	                 NBF =   172, NAUX =   328
	 --------------------------------------------------------
	   CLASS    FOCC     OCC    AOCC    AVIR     VIR    FVIR
	   PAIRS       1       5       4     167     167       0
	 --------------------------------------------------------

	-----------------------------------------------------------
	 ==================> DF-MP2 Energies <==================== 
	-----------------------------------------------------------
	 Reference Energy          =     -76.0658200356136547 [Eh]
	 Singles Energy            =      -0.0000000000000000 [Eh]
	 Same-Spin Energy          =      -0.0671761960014575 [Eh]
	 Opposite-Spin Energy      =      -0.2185574039940939 [Eh]
	 Correlation Energy        =      -0.2857335999955515 [Eh]
	 Total Energy              =     -76.3515536356092070 [Eh]
	-----------------------------------------------------------
	 ================> DF-SCS-MP2 Energies <================== 
	-----------------------------------------------------------
	 SCS Same-Spin Scale       =       0.3333333333333333 [-]
	 SCS Opposite-Spin Scale   =       1.2000000000000000 [-]
	 SCS Same-Spin Energy      =      -0.0223920653338192 [Eh]
	 SCS Opposite-Spin Energy  =      -0.2622688847929127 [Eh]
	 SCS Correlation Energy    =      -0.2846609501267319 [Eh]
	 SCS Total Energy          =     -76.3504809857403899 [Eh]
	-----------------------------------------------------------


*** tstop() called on node37.bme.utexas.edu at Tue Feb 22 18:01:40 2022
Module time:
	user time   =       2.88 seconds =       0.05 minutes
	system time =       0.22 seconds =       0.00 minutes
	total time  =          2 seconds =       0.03 minutes
Total time:
	user time   =      19.28 seconds =       0.32 minutes
	system time =       1.46 seconds =       0.02 minutes
	total time  =         10 seconds =       0.17 minutes

  //>>>>>>>>>>>>>>>>>>>>>>>>>>>>>>>>>>>//
  //  CBS Results: mp2/aug-cc-pV[TQ]Z  //
  //<<<<<<<<<<<<<<<<<<<<<<<<<<<<<<<<<<<//


   ==> HF <==

   HI-zeta (4) Energy:               -76.065820035614


   ==> Helgaker 2-point correlated extrapolation for method: MP2 <==

   LO-zeta (3) Energy:               -76.328562972838
   HI-zeta (4) Energy:               -76.351553635609
   Alpha (exponent) Value:             3.000000000000
   Extrapolated Energy:              -76.368330605739

   @Extrapolated MP2/(T,Q):          -76.368330605739



   ==> Helgaker 2-point correlated extrapolation for method: HF <==

   LO-zeta (3) Energy:               -76.060435064106
   HI-zeta (4) Energy:               -76.065820035614
   Alpha (exponent) Value:             3.000000000000
   Extrapolated Energy:              -76.069749609416

   @Extrapolated HF/(T,Q):           -76.069749609416


   ==> Components <==

  ---------------------------------------------------------------------------------------------------------
                          Method / Basis                      Rqd      Energy [Eh]   Variable
  ---------------------------------------------------------------------------------------------------------
                              hf / aug-cc-pvtz                  *     -76.06043506   HF TOTAL ENERGY
                             mp2 / aug-cc-pvtz                  *     -76.32856297   MP2 TOTAL ENERGY
                              hf / aug-cc-pvqz                  *     -76.06582004   HF TOTAL ENERGY
                             mp2 / aug-cc-pvqz                  *     -76.35155364   MP2 TOTAL ENERGY
  ---------------------------------------------------------------------------------------------------------

   ==> Stages <==

  ---------------------------------------------------------------------------------------------------------
      Stage               Method / Basis                       Wt      Energy [Eh]   Scheme
  ---------------------------------------------------------------------------------------------------------
        scf                   hf / aug-cc-pvqz                  1     -76.06582004   xtpl_highest_1
       corl                  mp2 / aug-cc-pv[tq]z               1     -76.36833061   corl_xtpl_helgaker_2
       corl                   hf / aug-cc-pv[tq]z              -1     -76.06974961   corl_xtpl_helgaker_2
  ---------------------------------------------------------------------------------------------------------

   ==> CBS <==

  ---------------------------------------------------------------------------------------------------------
      Stage               Method / Basis                               Energy [Eh]   Scheme
  ---------------------------------------------------------------------------------------------------------
        scf                   hf / aug-cc-pvqz                        -76.06582004   xtpl_highest_1
       corl                  mp2 / aug-cc-pv[tq]z                      -0.29858100   corl_xtpl_helgaker_2
      total                  CBS                                      -76.36440103   
  ---------------------------------------------------------------------------------------------------------
   => Loading Basis Set <=

    Name: DEF2-SVP
    Role: ORBITAL
    Keyword: BASIS
    atoms 1   entry O          line   130 file /home/bdw2292/miniconda3/envs/amoebamdpoltype/share/psi4/basis/def2-svp.gbs 
    atoms 2-3 entry H          line    15 file /home/bdw2292/miniconda3/envs/amoebamdpoltype/share/psi4/basis/def2-svp.gbs 


       N-Body: Complex Energy (fragments = (2,), basis = (2,):   -76.36440103193689)

       N-Body: Computing complex (2/4) with fragments (2,) in the basis of fragments (1, 2).


  //>>>>>>>>>>>>>>>>>>>>>>>>>>>>>>>>>>>//
  //   CBS Setup: mp2/aug-cc-pV[TQ]Z   //
  //<<<<<<<<<<<<<<<<<<<<<<<<<<<<<<<<<<<//

    Naive listing of computations required.
             hf / aug-cc-pvqz              for  HF TOTAL ENERGY
            mp2 / aug-cc-pvtz              for  MP2 TOTAL ENERGY
            mp2 / aug-cc-pvqz              for  MP2 TOTAL ENERGY
             hf / aug-cc-pvtz              for  HF TOTAL ENERGY
             hf / aug-cc-pvqz              for  HF TOTAL ENERGY

    Enlightened listing of computations required.
            mp2 / aug-cc-pvtz              for  MP2 TOTAL ENERGY
            mp2 / aug-cc-pvqz              for  MP2 TOTAL ENERGY

    Full listing of computations to be obtained (required and bonus).
             hf / aug-cc-pvtz              for  HF TOTAL ENERGY
            mp2 / aug-cc-pvtz              for  MP2 TOTAL ENERGY
             hf / aug-cc-pvqz              for  HF TOTAL ENERGY
            mp2 / aug-cc-pvqz              for  MP2 TOTAL ENERGY

  //>>>>>>>>>>>>>>>>>>>>>>>>>>>>>>>>>>>>//
  // CBS Computation: MP2 / AUG-CC-PVTZ //
  //<<<<<<<<<<<<<<<<<<<<<<<<<<<<<<<<<<<<//

    SCF Algorithm Type (re)set to DF.

*** tstart() called on node37.bme.utexas.edu
*** at Tue Feb 22 18:01:41 2022

   => Loading Basis Set <=

    Name: AUG-CC-PVTZ
    Role: ORBITAL
    Keyword: BASIS
    atoms 1        entry CL         line   984 file /home/bdw2292/miniconda3/envs/amoebamdpoltype/share/psi4/basis/aug-cc-pvtz.gbs 
    atoms 2        entry C          line   235 file /home/bdw2292/miniconda3/envs/amoebamdpoltype/share/psi4/basis/aug-cc-pvtz.gbs 
    atoms 3-5, 7-8 entry H          line    36 file /home/bdw2292/miniconda3/envs/amoebamdpoltype/share/psi4/basis/aug-cc-pvtz.gbs 
    atoms 6        entry O          line   327 file /home/bdw2292/miniconda3/envs/amoebamdpoltype/share/psi4/basis/aug-cc-pvtz.gbs 


         ---------------------------------------------------------
                                   SCF
               by Justin Turney, Rob Parrish, Andy Simmonett
                          and Daniel G. A. Smith
                              RHF Reference
                        4 Threads,  14305 MiB Core
         ---------------------------------------------------------

  ==> Geometry <==

    Molecular point group: c1
    Full point group: C1

    Geometry (in Angstrom), charge = 0, multiplicity = 1:

       Center              X                  Y                   Z               Mass       
    ------------   -----------------  -----------------  -----------------  -----------------
      Gh(CL)         -0.410801938249    -0.592805775432    -0.723851669458    34.968852682000
      Gh(C)          -1.207336538249     0.172091224568     0.675048130542    12.000000000000
      Gh(H)          -2.245572038249    -0.156216375432     0.723333430542     1.007825032230
      Gh(H)          -0.679168038249    -0.119837475432     1.583378630542     1.007825032230
      Gh(H)          -1.161635738249     1.254787024568     0.556897930542     1.007825032230
         O            1.809314961751     0.979548224568     0.854569530542    15.994914619570
         H            1.526265761751     0.414522224568     0.133191330542     1.007825032230
         H            2.474254461751     1.580329124568     0.518608630542     1.007825032230

  Running in c1 symmetry.

  Rotational constants: A =      0.44096  B =      0.13351  C =      0.10488 [cm^-1]
  Rotational constants: A =  13219.53684  B =   4002.57559  C =   3144.19965 [MHz]
  Nuclear repulsion =    9.178742107819064

  Charge       = 0
  Multiplicity = 1
  Electrons    = 10
  Nalpha       = 5
  Nbeta        = 5

  ==> Algorithm <==

  SCF Algorithm Type is DF.
  DIIS enabled.
  MOM disabled.
  Fractional occupation disabled.
  Guess Type is SAD.
  Energy threshold   = 1.00e-08
  Density threshold  = 1.00e-08
  Integral threshold = 0.00e+00

  ==> Primary Basis <==

  Basis Set: AUG-CC-PVTZ
    Blend: AUG-CC-PVTZ
    Number of shells: 89
    Number of basis function: 257
    Number of Cartesian functions: 294
    Spherical Harmonics?: true
    Max angular momentum: 3

   => Loading Basis Set <=

    Name: (AUG-CC-PVTZ AUX)
    Role: JKFIT
    Keyword: DF_BASIS_SCF
    atoms 1        entry CL         line   816 file /home/bdw2292/miniconda3/envs/amoebamdpoltype/share/psi4/basis/aug-cc-pvtz-jkfit.gbs 
    atoms 2        entry C          line   162 file /home/bdw2292/miniconda3/envs/amoebamdpoltype/share/psi4/basis/aug-cc-pvtz-jkfit.gbs 
    atoms 3-5, 7-8 entry H          line    70 file /home/bdw2292/miniconda3/envs/amoebamdpoltype/share/psi4/basis/aug-cc-pvtz-jkfit.gbs 
    atoms 6        entry O          line   286 file /home/bdw2292/miniconda3/envs/amoebamdpoltype/share/psi4/basis/aug-cc-pvtz-jkfit.gbs 

  ==> Pre-Iterations <==

   -------------------------------------------------------
    Irrep   Nso     Nmo     Nalpha   Nbeta   Ndocc  Nsocc
   -------------------------------------------------------
     A        257     257       0       0       0       0
   -------------------------------------------------------
    Total     257     257       5       5       5       0
   -------------------------------------------------------

  ==> Integral Setup <==

  DFHelper Memory: AOs need 0.302 GiB; user supplied 10.477 GiB. Using in-core AOs.

  ==> MemDFJK: Density-Fitted J/K Matrices <==

    J tasked:                   Yes
    K tasked:                   Yes
    wK tasked:                   No
    OpenMP threads:               4
    Memory [MiB]:             10728
    Algorithm:                 Core
    Schwarz Cutoff:           1E-12
    Mask sparsity (%):       1.0568
    Fitting Condition:        1E-10

   => Auxiliary Basis Set <=

  Basis Set: (AUG-CC-PVTZ AUX)
    Blend: AUG-CC-PVTZ-JKFIT
    Number of shells: 172
    Number of basis function: 584
    Number of Cartesian functions: 717
    Spherical Harmonics?: true
    Max angular momentum: 4

  Minimum eigenvalue in the overlap matrix is 5.2885619541E-05.
  Using Symmetric Orthogonalization.

  SCF Guess: Superposition of Atomic Densities via on-the-fly atomic UHF.

  ==> Iterations <==

                           Total Energy        Delta E     RMS |[F,P]|

   @DF-RHF iter SAD:   -75.47358567916275   -7.54736e+01   0.00000e+00 
   @DF-RHF iter   1:   -75.97658165155929   -5.02996e-01   1.82346e-03 DIIS
   @DF-RHF iter   2:   -76.02899901789746   -5.24174e-02   1.23674e-03 DIIS
   @DF-RHF iter   3:   -76.06007916793230   -3.10802e-02   8.40113e-05 DIIS
   @DF-RHF iter   4:   -76.06046949738895   -3.90329e-04   2.00880e-05 DIIS
   @DF-RHF iter   5:   -76.06049358258386   -2.40852e-05   4.52587e-06 DIIS
   @DF-RHF iter   6:   -76.06049555135084   -1.96877e-06   1.00696e-06 DIIS
   @DF-RHF iter   7:   -76.06049565978813   -1.08437e-07   1.90118e-07 DIIS
   @DF-RHF iter   8:   -76.06049566321671   -3.42858e-09   3.15800e-08 DIIS
   @DF-RHF iter   9:   -76.06049566329141   -7.46923e-11   7.85095e-09 DIIS
  Energy and wave function converged.


  ==> Post-Iterations <==

    Orbital Energies [Eh]
    ---------------------

    Doubly Occupied:                                                      

       1A    -20.565639     2A     -1.350584     3A     -0.724165  
       4A     -0.577731     5A     -0.509200  

    Virtual:                                                              

       6A      0.023196     7A      0.036419     8A      0.047163  
       9A      0.051786    10A      0.060951    11A      0.081729  
      12A      0.105097    13A      0.110740    14A      0.114705  
      15A      0.121445    16A      0.133315    17A      0.145988  
      18A      0.167452    19A      0.172731    20A      0.180729  
      21A      0.199911    22A      0.228358    23A      0.238429  
      24A      0.263665    25A      0.281464    26A      0.283166  
      27A      0.301600    28A      0.304955    29A      0.310638  
      30A      0.314148    31A      0.319986    32A      0.327869  
      33A      0.339300    34A      0.344408    35A      0.358007  
      36A      0.382679    37A      0.395104    38A      0.417815  
      39A      0.425883    40A      0.439022    41A      0.452824  
      42A      0.459890    43A      0.469438    44A      0.477124  
      45A      0.484694    46A      0.501621    47A      0.517092  
      48A      0.541980    49A      0.549766    50A      0.588407  
      51A      0.597095    52A      0.605695    53A      0.617484  
      54A      0.641450    55A      0.651853    56A      0.667077  
      57A      0.670145    58A      0.683683    59A      0.707203  
      60A      0.732634    61A      0.738625    62A      0.763339  
      63A      0.782768    64A      0.804357    65A      0.821437  
      66A      0.885412    67A      0.903813    68A      0.915005  
      69A      0.935059    70A      0.955170    71A      0.969778  
      72A      0.985124    73A      0.994211    74A      1.015784  
      75A      1.031585    76A      1.041233    77A      1.054216  
      78A      1.062025    79A      1.072698    80A      1.087853  
      81A      1.103533    82A      1.106824    83A      1.112149  
      84A      1.133190    85A      1.140021    86A      1.153473  
      87A      1.166375    88A      1.175975    89A      1.189348  
      90A      1.214612    91A      1.233893    92A      1.251689  
      93A      1.258437    94A      1.275839    95A      1.294276  
      96A      1.319481    97A      1.341028    98A      1.349144  
      99A      1.377226   100A      1.388607   101A      1.394183  
     102A      1.406563   103A      1.414299   104A      1.439789  
     105A      1.474951   106A      1.486537   107A      1.524091  
     108A      1.536079   109A      1.556132   110A      1.565955  
     111A      1.594761   112A      1.607945   113A      1.610431  
     114A      1.626763   115A      1.650558   116A      1.692576  
     117A      1.736067   118A      1.776794   119A      1.783389  
     120A      1.808158   121A      1.847496   122A      1.896558  
     123A      1.907321   124A      1.927531   125A      1.953458  
     126A      1.984382   127A      2.003722   128A      2.032667  
     129A      2.065246   130A      2.085359   131A      2.105222  
     132A      2.123592   133A      2.146071   134A      2.154945  
     135A      2.160941   136A      2.216358   137A      2.315557  
     138A      2.333451   139A      2.341276   140A      2.399013  
     141A      2.439513   142A      2.477010   143A      2.493852  
     144A      2.517745   145A      2.519009   146A      2.544593  
     147A      2.553869   148A      2.558475   149A      2.593725  
     150A      2.634451   151A      2.710945   152A      2.762287  
     153A      2.766486   154A      2.856257   155A      2.864467  
     156A      2.931027   157A      2.974399   158A      3.064612  
     159A      3.749029   160A      3.853023   161A      3.896150  
     162A      3.915054   163A      3.965519   164A      3.981386  
     165A      4.006590   166A      4.015368   167A      4.047988  
     168A      4.059473   169A      4.089499   170A      4.105620  
     171A      4.121421   172A      4.164627   173A      4.189969  
     174A      4.201876   175A      4.226253   176A      4.242637  
     177A      4.258625   178A      4.272649   179A      4.315790  
     180A      4.381796   181A      4.416775   182A      4.447172  
     183A      4.450877   184A      4.467386   185A      4.470709  
     186A      4.497857   187A      4.500616   188A      4.551534  
     189A      4.571415   190A      4.599075   191A      4.612588  
     192A      4.642285   193A      4.662301   194A      4.724995  
     195A      4.770099   196A      4.781834   197A      4.789604  
     198A      4.824361   199A      4.871199   200A      4.892094  
     201A      4.900042   202A      4.918737   203A      4.968741  
     204A      5.083634   205A      5.130750   206A      5.161243  
     207A      5.201284   208A      5.210617   209A      5.259413  
     210A      5.276249   211A      5.336266   212A      5.353269  
     213A      5.363940   214A      5.403534   215A      5.434137  
     216A      5.485115   217A      5.498949   218A      5.530936  
     219A      5.585068   220A      5.716315   221A      5.738758  
     222A      5.814599   223A      6.049774   224A      6.152678  
     225A      6.165806   226A      6.205531   227A      6.232784  
     228A      6.245409   229A      6.585846   230A      6.683491  
     231A      6.706105   232A      6.802236   233A      6.909307  
     234A      7.146784   235A      7.194330   236A      7.331106  
     237A      7.345277   238A      7.385168   239A      7.409830  
     240A      7.464756   241A      7.685787   242A      7.763687  
     243A      7.786484   244A      7.859979   245A      7.971880  
     246A      8.013998   247A      8.158582   248A      8.205637  
     249A      8.843115   250A     10.360559   251A     16.152444  
     252A     16.497143   253A     28.046633   254A     28.260409  
     255A     28.992407   256A     51.497489   257A    161.036713  

    Final Occupation by Irrep:
              A 
    DOCC [     5 ]

  @DF-RHF Final Energy:   -76.06049566329141

   => Energetics <=

    Nuclear Repulsion Energy =              9.1787421078190636
    One-Electron Energy =                -123.0238340693359760
    Two-Electron Energy =                  37.7845962982255159
    Total Energy =                        -76.0604956632913911

Computation Completed


Properties will be evaluated at  -0.000000,  -0.000000,  -0.000000 [a0]

Properties computed using the SCF density matrix

  Nuclear Dipole Moment: [e a0]
     X:    34.9128      Y:    18.5783      Z:    14.1509

  Electronic Dipole Moment: [e a0]
     X:   -34.6557      Y:   -18.5544      Z:   -14.8618

  Dipole Moment: [e a0]
     X:     0.2571      Y:     0.0240      Z:    -0.7109     Total:     0.7563

  Dipole Moment: [D]
     X:     0.6535      Y:     0.0609      Z:    -1.8069     Total:     1.9224


*** tstop() called on node37.bme.utexas.edu at Tue Feb 22 18:01:49 2022
Module time:
	user time   =      19.40 seconds =       0.32 minutes
	system time =       1.22 seconds =       0.02 minutes
	total time  =          8 seconds =       0.13 minutes
Total time:
	user time   =      40.54 seconds =       0.68 minutes
	system time =       2.74 seconds =       0.05 minutes
	total time  =         19 seconds =       0.32 minutes

*** tstart() called on node37.bme.utexas.edu
*** at Tue Feb 22 18:01:49 2022


  //>>>>>>>>>>>>>>>>>>>>>>>>>>>>>>>>>>>//
  //               DFMP2               //
  //<<<<<<<<<<<<<<<<<<<<<<<<<<<<<<<<<<<//

   => Loading Basis Set <=

    Name: (AUG-CC-PVTZ AUX)
    Role: RIFIT
    Keyword: DF_BASIS_MP2
    atoms 1        entry CL         line   742 file /home/bdw2292/miniconda3/envs/amoebamdpoltype/share/psi4/basis/aug-cc-pvtz-ri.gbs 
    atoms 2        entry C          line   148 file /home/bdw2292/miniconda3/envs/amoebamdpoltype/share/psi4/basis/aug-cc-pvtz-ri.gbs 
    atoms 3-5, 7-8 entry H          line    30 file /home/bdw2292/miniconda3/envs/amoebamdpoltype/share/psi4/basis/aug-cc-pvtz-ri.gbs 
    atoms 6        entry O          line   264 file /home/bdw2292/miniconda3/envs/amoebamdpoltype/share/psi4/basis/aug-cc-pvtz-ri.gbs 

	 --------------------------------------------------------
	                          DF-MP2                         
	      2nd-Order Density-Fitted Moller-Plesset Theory     
	              RMP2 Wavefunction,   4 Threads             
	                                                         
	        Rob Parrish, Justin Turney, Andy Simmonett,      
	           Ed Hohenstein, and C. David Sherrill          
	 --------------------------------------------------------

   => Auxiliary Basis Set <=

  Basis Set: (AUG-CC-PVTZ AUX)
    Blend: AUG-CC-PVTZ-RI
    Number of shells: 163
    Number of basis function: 589
    Number of Cartesian functions: 738
    Spherical Harmonics?: true
    Max angular momentum: 4

	 --------------------------------------------------------
	                 NBF =   257, NAUX =   589
	 --------------------------------------------------------
	   CLASS    FOCC     OCC    AOCC    AVIR     VIR    FVIR
	   PAIRS       1       5       4     252     252       0
	 --------------------------------------------------------

	-----------------------------------------------------------
	 ==================> DF-MP2 Energies <==================== 
	-----------------------------------------------------------
	 Reference Energy          =     -76.0604956632914053 [Eh]
	 Singles Energy            =      -0.0000000000000000 [Eh]
	 Same-Spin Energy          =      -0.0651294506506932 [Eh]
	 Opposite-Spin Energy      =      -0.2032661707665941 [Eh]
	 Correlation Energy        =      -0.2683956214172872 [Eh]
	 Total Energy              =     -76.3288912847086891 [Eh]
	-----------------------------------------------------------
	 ================> DF-SCS-MP2 Energies <================== 
	-----------------------------------------------------------
	 SCS Same-Spin Scale       =       0.3333333333333333 [-]
	 SCS Opposite-Spin Scale   =       1.2000000000000000 [-]
	 SCS Same-Spin Energy      =      -0.0217098168835644 [Eh]
	 SCS Opposite-Spin Energy  =      -0.2439194049199129 [Eh]
	 SCS Correlation Energy    =      -0.2656292218034773 [Eh]
	 SCS Total Energy          =     -76.3261248850948846 [Eh]
	-----------------------------------------------------------


*** tstop() called on node37.bme.utexas.edu at Tue Feb 22 18:01:52 2022
Module time:
	user time   =       6.65 seconds =       0.11 minutes
	system time =       0.46 seconds =       0.01 minutes
	total time  =          3 seconds =       0.05 minutes
Total time:
	user time   =      47.19 seconds =       0.79 minutes
	system time =       3.20 seconds =       0.05 minutes
	total time  =         22 seconds =       0.37 minutes

  //>>>>>>>>>>>>>>>>>>>>>>>>>>>>>>>>>>>>//
  // CBS Computation: MP2 / AUG-CC-PVQZ //
  //<<<<<<<<<<<<<<<<<<<<<<<<<<<<<<<<<<<<//

    SCF Algorithm Type (re)set to DF.

*** tstart() called on node37.bme.utexas.edu
*** at Tue Feb 22 18:01:52 2022

   => Loading Basis Set <=

    Name: AUG-CC-PVQZ
    Role: ORBITAL
    Keyword: BASIS
    atoms 1        entry CL         line  1218 file /home/bdw2292/miniconda3/envs/amoebamdpoltype/share/psi4/basis/aug-cc-pvqz.gbs 
    atoms 2        entry C          line   299 file /home/bdw2292/miniconda3/envs/amoebamdpoltype/share/psi4/basis/aug-cc-pvqz.gbs 
    atoms 3-5, 7-8 entry H          line    36 file /home/bdw2292/miniconda3/envs/amoebamdpoltype/share/psi4/basis/aug-cc-pvqz.gbs 
    atoms 6        entry O          line   419 file /home/bdw2292/miniconda3/envs/amoebamdpoltype/share/psi4/basis/aug-cc-pvqz.gbs 


         ---------------------------------------------------------
                                   SCF
               by Justin Turney, Rob Parrish, Andy Simmonett
                          and Daniel G. A. Smith
                              RHF Reference
                        4 Threads,  14305 MiB Core
         ---------------------------------------------------------

  ==> Geometry <==

    Molecular point group: c1
    Full point group: C1

    Geometry (in Angstrom), charge = 0, multiplicity = 1:

       Center              X                  Y                   Z               Mass       
    ------------   -----------------  -----------------  -----------------  -----------------
      Gh(CL)         -0.410801938249    -0.592805775432    -0.723851669458    34.968852682000
      Gh(C)          -1.207336538249     0.172091224568     0.675048130542    12.000000000000
      Gh(H)          -2.245572038249    -0.156216375432     0.723333430542     1.007825032230
      Gh(H)          -0.679168038249    -0.119837475432     1.583378630542     1.007825032230
      Gh(H)          -1.161635738249     1.254787024568     0.556897930542     1.007825032230
         O            1.809314961751     0.979548224568     0.854569530542    15.994914619570
         H            1.526265761751     0.414522224568     0.133191330542     1.007825032230
         H            2.474254461751     1.580329124568     0.518608630542     1.007825032230

  Running in c1 symmetry.

  Rotational constants: A =      0.44096  B =      0.13351  C =      0.10488 [cm^-1]
  Rotational constants: A =  13219.53684  B =   4002.57559  C =   3144.19965 [MHz]
  Nuclear repulsion =    9.178742107819064

  Charge       = 0
  Multiplicity = 1
  Electrons    = 10
  Nalpha       = 5
  Nbeta        = 5

  ==> Algorithm <==

  SCF Algorithm Type is DF.
  DIIS enabled.
  MOM disabled.
  Fractional occupation disabled.
  Guess Type is SAD.
  Energy threshold   = 1.00e-08
  Density threshold  = 1.00e-08
  Integral threshold = 0.00e+00

  ==> Primary Basis <==

  Basis Set: AUG-CC-PVQZ
    Blend: AUG-CC-PVQZ
    Number of shells: 132
    Number of basis function: 474
    Number of Cartesian functions: 594
    Spherical Harmonics?: true
    Max angular momentum: 4

   => Loading Basis Set <=

    Name: (AUG-CC-PVQZ AUX)
    Role: JKFIT
    Keyword: DF_BASIS_SCF
    atoms 1        entry CL         line   904 file /home/bdw2292/miniconda3/envs/amoebamdpoltype/share/psi4/basis/aug-cc-pvqz-jkfit.gbs 
    atoms 2        entry C          line   178 file /home/bdw2292/miniconda3/envs/amoebamdpoltype/share/psi4/basis/aug-cc-pvqz-jkfit.gbs 
    atoms 3-5, 7-8 entry H          line    70 file /home/bdw2292/miniconda3/envs/amoebamdpoltype/share/psi4/basis/aug-cc-pvqz-jkfit.gbs 
    atoms 6        entry O          line   318 file /home/bdw2292/miniconda3/envs/amoebamdpoltype/share/psi4/basis/aug-cc-pvqz-jkfit.gbs 

  ==> Pre-Iterations <==

   -------------------------------------------------------
    Irrep   Nso     Nmo     Nalpha   Nbeta   Ndocc  Nsocc
   -------------------------------------------------------
     A        474     474       0       0       0       0
   -------------------------------------------------------
    Total     474     474       5       5       5       0
   -------------------------------------------------------

  ==> Integral Setup <==

  DFHelper Memory: AOs need 1.437 GiB; user supplied 10.477 GiB. Using in-core AOs.

  ==> MemDFJK: Density-Fitted J/K Matrices <==

    J tasked:                   Yes
    K tasked:                   Yes
    wK tasked:                   No
    OpenMP threads:               4
    Memory [MiB]:             10728
    Algorithm:                 Core
    Schwarz Cutoff:           1E-12
    Mask sparsity (%):       3.4761
    Fitting Condition:        1E-10

   => Auxiliary Basis Set <=

  Basis Set: (AUG-CC-PVQZ AUX)
    Blend: AUG-CC-PVQZ-JKFIT
    Number of shells: 204
    Number of basis function: 848
    Number of Cartesian functions: 1148
    Spherical Harmonics?: true
    Max angular momentum: 5

  Minimum eigenvalue in the overlap matrix is 1.1757047403E-05.
  Using Symmetric Orthogonalization.

  SCF Guess: Superposition of Atomic Densities via on-the-fly atomic UHF.

  ==> Iterations <==

                           Total Energy        Delta E     RMS |[F,P]|

   @DF-RHF iter SAD:   -75.47874028020729   -7.54787e+01   0.00000e+00 
   @DF-RHF iter   1:   -75.98163359631873   -5.02893e-01   9.90718e-04 DIIS
   @DF-RHF iter   2:   -76.03414967308703   -5.25161e-02   6.73498e-04 DIIS
   @DF-RHF iter   3:   -76.06542727011126   -3.12776e-02   4.58800e-05 DIIS
   @DF-RHF iter   4:   -76.06581960330105   -3.92333e-04   1.12184e-05 DIIS
   @DF-RHF iter   5:   -76.06584455821562   -2.49549e-05   2.51859e-06 DIIS
   @DF-RHF iter   6:   -76.06584660683734   -2.04862e-06   5.75046e-07 DIIS
   @DF-RHF iter   7:   -76.06584672626342   -1.19426e-07   1.11970e-07 DIIS
   @DF-RHF iter   8:   -76.06584673028900   -4.02558e-09   1.79547e-08 DIIS
   @DF-RHF iter   9:   -76.06584673037328   -8.42846e-11   4.34821e-09 DIIS
  Energy and wave function converged.


  ==> Post-Iterations <==

    Orbital Energies [Eh]
    ---------------------

    Doubly Occupied:                                                      

       1A    -20.563239     2A     -1.349889     3A     -0.724159  
       4A     -0.577810     5A     -0.509342  

    Virtual:                                                              

       6A      0.020291     7A      0.032911     8A      0.042279  
       9A      0.046417    10A      0.055655    11A      0.071898  
      12A      0.092523    13A      0.094014    14A      0.097772  
      15A      0.103532    16A      0.116565    17A      0.123957  
      18A      0.142234    19A      0.148006    20A      0.154939  
      21A      0.169915    22A      0.188456    23A      0.203617  
      24A      0.222775    25A      0.230457    26A      0.232931  
      27A      0.247763    28A      0.252609    29A      0.256421  
      30A      0.260728    31A      0.271461    32A      0.273858  
      33A      0.284376    34A      0.285697    35A      0.293166  
      36A      0.299698    37A      0.316788    38A      0.333668  
      39A      0.350820    40A      0.359277    41A      0.364732  
      42A      0.369257    43A      0.370318    44A      0.377459  
      45A      0.391550    46A      0.400979    47A      0.411192  
      48A      0.422887    49A      0.431296    50A      0.439783  
      51A      0.445914    52A      0.478497    53A      0.485280  
      54A      0.495158    55A      0.516568    56A      0.527100  
      57A      0.532715    58A      0.537438    59A      0.558012  
      60A      0.569805    61A      0.582583    62A      0.607371  
      63A      0.610533    64A      0.612479    65A      0.630373  
      66A      0.668076    67A      0.682711    68A      0.688291  
      69A      0.700199    70A      0.710642    71A      0.724039  
      72A      0.732083    73A      0.739811    74A      0.751872  
      75A      0.753054    76A      0.768436    77A      0.775242  
      78A      0.791546    79A      0.800775    80A      0.810287  
      81A      0.826604    82A      0.833147    83A      0.845064  
      84A      0.860398    85A      0.862798    86A      0.871470  
      87A      0.881529    88A      0.886311    89A      0.898806  
      90A      0.910357    91A      0.916462    92A      0.945204  
      93A      0.960769    94A      0.967021    95A      0.981756  
      96A      1.000492    97A      1.004035    98A      1.013214  
      99A      1.019082   100A      1.040304   101A      1.059420  
     102A      1.071402   103A      1.074930   104A      1.081933  
     105A      1.093467   106A      1.097566   107A      1.107104  
     108A      1.113489   109A      1.133774   110A      1.150294  
     111A      1.158959   112A      1.182792   113A      1.192717  
     114A      1.202560   115A      1.228993   116A      1.240084  
     117A      1.268817   118A      1.294427   119A      1.301995  
     120A      1.320389   121A      1.348887   122A      1.361653  
     123A      1.382819   124A      1.420113   125A      1.440638  
     126A      1.457824   127A      1.470721   128A      1.479576  
     129A      1.496030   130A      1.514167   131A      1.528517  
     132A      1.542282   133A      1.576002   134A      1.600642  
     135A      1.606902   136A      1.613708   137A      1.626942  
     138A      1.635450   139A      1.641659   140A      1.663303  
     141A      1.682889   142A      1.686067   143A      1.708059  
     144A      1.731207   145A      1.735032   146A      1.755270  
     147A      1.765379   148A      1.781960   149A      1.797388  
     150A      1.802435   151A      1.828315   152A      1.838118  
     153A      1.853815   154A      1.873804   155A      1.881205  
     156A      1.891754   157A      1.902311   158A      1.909408  
     159A      1.933282   160A      1.944672   161A      1.961498  
     162A      1.972521   163A      1.974395   164A      1.990643  
     165A      1.993832   166A      2.015677   167A      2.030214  
     168A      2.038652   169A      2.055150   170A      2.071871  
     171A      2.081315   172A      2.104753   173A      2.120694  
     174A      2.124840   175A      2.140721   176A      2.148211  
     177A      2.163923   178A      2.165216   179A      2.200620  
     180A      2.210818   181A      2.224242   182A      2.248442  
     183A      2.251714   184A      2.260553   185A      2.280033  
     186A      2.299121   187A      2.319455   188A      2.337954  
     189A      2.348039   190A      2.363013   191A      2.385011  
     192A      2.406817   193A      2.433943   194A      2.464355  
     195A      2.476679   196A      2.498062   197A      2.509931  
     198A      2.511808   199A      2.540355   200A      2.551138  
     201A      2.558339   202A      2.584030   203A      2.597944  
     204A      2.622016   205A      2.639826   206A      2.653971  
     207A      2.686737   208A      2.716087   209A      2.725615  
     210A      2.755866   211A      2.775657   212A      2.798558  
     213A      2.821045   214A      2.834782   215A      2.852498  
     216A      2.866892   217A      2.881127   218A      2.912400  
     219A      2.927427   220A      2.954301   221A      2.978833  
     222A      2.993835   223A      3.030603   224A      3.044824  
     225A      3.066669   226A      3.080305   227A      3.086331  
     228A      3.101184   229A      3.135065   230A      3.143494  
     231A      3.166215   232A      3.204363   233A      3.210213  
     234A      3.233443   235A      3.278963   236A      3.290470  
     237A      3.332130   238A      3.341416   239A      3.360325  
     240A      3.378636   241A      3.397319   242A      3.403614  
     243A      3.425248   244A      3.436195   245A      3.486407  
     246A      3.491931   247A      3.514005   248A      3.529523  
     249A      3.565030   250A      3.618697   251A      3.638236  
     252A      3.665730   253A      3.696431   254A      3.760339  
     255A      3.767802   256A      3.786372   257A      3.801436  
     258A      3.835707   259A      3.848572   260A      3.870730  
     261A      3.890459   262A      3.924750   263A      3.944564  
     264A      3.948873   265A      4.023078   266A      4.086326  
     267A      4.118094   268A      4.131421   269A      4.145675  
     270A      4.169505   271A      4.213743   272A      4.228827  
     273A      4.235706   274A      4.253902   275A      4.268123  
     276A      4.288463   277A      4.315064   278A      4.349712  
     279A      4.414207   280A      4.422835   281A      4.453641  
     282A      4.481810   283A      4.493844   284A      4.598772  
     285A      4.670689   286A      4.719103   287A      4.738532  
     288A      4.786115   289A      4.859076   290A      4.878663  
     291A      4.892747   292A      4.911844   293A      4.937083  
     294A      4.960278   295A      4.982374   296A      5.032300  
     297A      5.074656   298A      5.117354   299A      5.158093  
     300A      5.161000   301A      5.247713   302A      5.277643  
     303A      5.411103   304A      5.431552   305A      5.474024  
     306A      5.492783   307A      5.525342   308A      5.581611  
     309A      5.595409   310A      5.615060   311A      5.682093  
     312A      5.710965   313A      5.719800   314A      5.825828  
     315A      5.866078   316A      5.884912   317A      5.960197  
     318A      6.028177   319A      6.072818   320A      6.117464  
     321A      6.177920   322A      6.363809   323A      6.407544  
     324A      6.414134   325A      6.438857   326A      6.469626  
     327A      6.554186   328A      6.574723   329A      6.769331  
     330A      6.777324   331A      6.838976   332A      6.874561  
     333A      6.905500   334A      6.950496   335A      6.963667  
     336A      6.971864   337A      7.024874   338A      7.035685  
     339A      7.076445   340A      7.124234   341A      7.145705  
     342A      7.203111   343A      7.271567   344A      7.284393  
     345A      7.323167   346A      7.368676   347A      7.385053  
     348A      7.442912   349A      7.650128   350A      7.673163  
     351A      7.684324   352A      7.693796   353A      7.755662  
     354A      7.773220   355A      7.830030   356A      7.860358  
     357A      7.876487   358A      7.896879   359A      7.899879  
     360A      7.910408   361A      7.934990   362A      7.941015  
     363A      7.949052   364A      8.000094   365A      8.015871  
     366A      8.028490   367A      8.083982   368A      8.111922  
     369A      8.148817   370A      8.167957   371A      8.213907  
     372A      8.325906   373A      8.329336   374A      8.349873  
     375A      8.407358   376A      8.472126   377A      8.547572  
     378A      8.563922   379A      8.599623   380A      8.715648  
     381A      8.743089   382A      8.790773   383A      8.851877  
     384A      8.853871   385A      8.882809   386A      8.897120  
     387A      8.922900   388A      8.966716   389A      8.988104  
     390A      9.061115   391A      9.116641   392A      9.160381  
     393A      9.218700   394A      9.255033   395A      9.345833  
     396A      9.389958   397A      9.418832   398A      9.533993  
     399A      9.551115   400A      9.602526   401A      9.616074  
     402A      9.710362   403A      9.717807   404A      9.796294  
     405A      9.813630   406A      9.852195   407A      9.859603  
     408A      9.903503   409A      9.943030   410A     10.047321  
     411A     10.080002   412A     10.088611   413A     10.113135  
     414A     10.144424   415A     10.327245   416A     10.348302  
     417A     10.498951   418A     10.516045   419A     10.548342  
     420A     10.623966   421A     10.674691   422A     10.756558  
     423A     10.769319   424A     10.784471   425A     10.799572  
     426A     10.871563   427A     10.924187   428A     11.069135  
     429A     11.091298   430A     11.198783   431A     11.218570  
     432A     11.263133   433A     11.343498   434A     11.392801  
     435A     11.402360   436A     11.451222   437A     11.506663  
     438A     11.771499   439A     11.902648   440A     11.955776  
     441A     12.039571   442A     12.080406   443A     12.130586  
     444A     12.218259   445A     12.246971   446A     12.337783  
     447A     12.388440   448A     12.659052   449A     12.800253  
     450A     12.922962   451A     12.969666   452A     13.128979  
     453A     13.255599   454A     13.282564   455A     13.619473  
     456A     14.023783   457A     14.177819   458A     14.509322  
     459A     14.824384   460A     14.863285   461A     14.911358  
     462A     15.340553   463A     16.513040   464A     17.076146  
     465A     17.317545   466A     17.348370   467A     17.418141  
     468A     31.097130   469A     31.182114   470A     31.343448  
     471A     43.469692   472A     45.754427   473A     71.672480  
     474A    160.427694  

    Final Occupation by Irrep:
              A 
    DOCC [     5 ]

  @DF-RHF Final Energy:   -76.06584673037328

   => Energetics <=

    Nuclear Repulsion Energy =              9.1787421078190636
    One-Electron Energy =                -123.0402971693585670
    Two-Electron Energy =                  37.7957083311662245
    Total Energy =                        -76.0658467303732806

Computation Completed


Properties will be evaluated at  -0.000000,  -0.000000,  -0.000000 [a0]

Properties computed using the SCF density matrix

  Nuclear Dipole Moment: [e a0]
     X:    34.9128      Y:    18.5783      Z:    14.1509

  Electronic Dipole Moment: [e a0]
     X:   -34.6560      Y:   -18.5542      Z:   -14.8611

  Dipole Moment: [e a0]
     X:     0.2568      Y:     0.0242      Z:    -0.7102     Total:     0.7556

  Dipole Moment: [D]
     X:     0.6526      Y:     0.0615      Z:    -1.8051     Total:     1.9205


*** tstop() called on node37.bme.utexas.edu at Tue Feb 22 18:02:18 2022
Module time:
	user time   =      69.45 seconds =       1.16 minutes
	system time =       3.34 seconds =       0.06 minutes
	total time  =         26 seconds =       0.43 minutes
Total time:
	user time   =     116.71 seconds =       1.95 minutes
	system time =       6.55 seconds =       0.11 minutes
	total time  =         48 seconds =       0.80 minutes

*** tstart() called on node37.bme.utexas.edu
*** at Tue Feb 22 18:02:18 2022


  //>>>>>>>>>>>>>>>>>>>>>>>>>>>>>>>>>>>//
  //               DFMP2               //
  //<<<<<<<<<<<<<<<<<<<<<<<<<<<<<<<<<<<//

   => Loading Basis Set <=

    Name: (AUG-CC-PVQZ AUX)
    Role: RIFIT
    Keyword: DF_BASIS_MP2
    atoms 1        entry CL         line   914 file /home/bdw2292/miniconda3/envs/amoebamdpoltype/share/psi4/basis/aug-cc-pvqz-ri.gbs 
    atoms 2        entry C          line   184 file /home/bdw2292/miniconda3/envs/amoebamdpoltype/share/psi4/basis/aug-cc-pvqz-ri.gbs 
    atoms 3-5, 7-8 entry H          line    30 file /home/bdw2292/miniconda3/envs/amoebamdpoltype/share/psi4/basis/aug-cc-pvqz-ri.gbs 
    atoms 6        entry O          line   332 file /home/bdw2292/miniconda3/envs/amoebamdpoltype/share/psi4/basis/aug-cc-pvqz-ri.gbs 

	 --------------------------------------------------------
	                          DF-MP2                         
	      2nd-Order Density-Fitted Moller-Plesset Theory     
	              RMP2 Wavefunction,   4 Threads             
	                                                         
	        Rob Parrish, Justin Turney, Andy Simmonett,      
	           Ed Hohenstein, and C. David Sherrill          
	 --------------------------------------------------------

   => Auxiliary Basis Set <=

  Basis Set: (AUG-CC-PVQZ AUX)
    Blend: AUG-CC-PVQZ-RI
    Number of shells: 216
    Number of basis function: 930
    Number of Cartesian functions: 1267
    Spherical Harmonics?: true
    Max angular momentum: 5

	 --------------------------------------------------------
	                 NBF =   474, NAUX =   930
	 --------------------------------------------------------
	   CLASS    FOCC     OCC    AOCC    AVIR     VIR    FVIR
	   PAIRS       1       5       4     469     469       0
	 --------------------------------------------------------

	-----------------------------------------------------------
	 ==================> DF-MP2 Energies <==================== 
	-----------------------------------------------------------
	 Reference Energy          =     -76.0658467303732806 [Eh]
	 Singles Energy            =      -0.0000000000000000 [Eh]
	 Same-Spin Energy          =      -0.0671836033294581 [Eh]
	 Opposite-Spin Energy      =      -0.2186731466900144 [Eh]
	 Correlation Energy        =      -0.2858567500194725 [Eh]
	 Total Energy              =     -76.3517034803927572 [Eh]
	-----------------------------------------------------------
	 ================> DF-SCS-MP2 Energies <================== 
	-----------------------------------------------------------
	 SCS Same-Spin Scale       =       0.3333333333333333 [-]
	 SCS Opposite-Spin Scale   =       1.2000000000000000 [-]
	 SCS Same-Spin Energy      =      -0.0223945344431527 [Eh]
	 SCS Opposite-Spin Energy  =      -0.2624077760280173 [Eh]
	 SCS Correlation Energy    =      -0.2848023104711701 [Eh]
	 SCS Total Energy          =     -76.3506490408444449 [Eh]
	-----------------------------------------------------------


*** tstop() called on node37.bme.utexas.edu at Tue Feb 22 18:02:30 2022
Module time:
	user time   =      29.41 seconds =       0.49 minutes
	system time =       1.93 seconds =       0.03 minutes
	total time  =         12 seconds =       0.20 minutes
Total time:
	user time   =     146.12 seconds =       2.44 minutes
	system time =       8.48 seconds =       0.14 minutes
	total time  =         60 seconds =       1.00 minutes

  //>>>>>>>>>>>>>>>>>>>>>>>>>>>>>>>>>>>//
  //  CBS Results: mp2/aug-cc-pV[TQ]Z  //
  //<<<<<<<<<<<<<<<<<<<<<<<<<<<<<<<<<<<//


   ==> HF <==

   HI-zeta (4) Energy:               -76.065846730373


   ==> Helgaker 2-point correlated extrapolation for method: MP2 <==

   LO-zeta (3) Energy:               -76.328891284709
   HI-zeta (4) Energy:               -76.351703480393
   Alpha (exponent) Value:             3.000000000000
   Extrapolated Energy:              -76.368350217784

   @Extrapolated MP2/(T,Q):          -76.368350217784



   ==> Helgaker 2-point correlated extrapolation for method: HF <==

   LO-zeta (3) Energy:               -76.060495663291
   HI-zeta (4) Energy:               -76.065846730373
   Alpha (exponent) Value:             3.000000000000
   Extrapolated Energy:              -76.069751563109

   @Extrapolated HF/(T,Q):           -76.069751563109


   ==> Components <==

  ---------------------------------------------------------------------------------------------------------
                          Method / Basis                      Rqd      Energy [Eh]   Variable
  ---------------------------------------------------------------------------------------------------------
                              hf / aug-cc-pvtz                  *     -76.06049566   HF TOTAL ENERGY
                             mp2 / aug-cc-pvtz                  *     -76.32889128   MP2 TOTAL ENERGY
                              hf / aug-cc-pvqz                  *     -76.06584673   HF TOTAL ENERGY
                             mp2 / aug-cc-pvqz                  *     -76.35170348   MP2 TOTAL ENERGY
  ---------------------------------------------------------------------------------------------------------

   ==> Stages <==

  ---------------------------------------------------------------------------------------------------------
      Stage               Method / Basis                       Wt      Energy [Eh]   Scheme
  ---------------------------------------------------------------------------------------------------------
        scf                   hf / aug-cc-pvqz                  1     -76.06584673   xtpl_highest_1
       corl                  mp2 / aug-cc-pv[tq]z               1     -76.36835022   corl_xtpl_helgaker_2
       corl                   hf / aug-cc-pv[tq]z              -1     -76.06975156   corl_xtpl_helgaker_2
  ---------------------------------------------------------------------------------------------------------

   ==> CBS <==

  ---------------------------------------------------------------------------------------------------------
      Stage               Method / Basis                               Energy [Eh]   Scheme
  ---------------------------------------------------------------------------------------------------------
        scf                   hf / aug-cc-pvqz                        -76.06584673   xtpl_highest_1
       corl                  mp2 / aug-cc-pv[tq]z                      -0.29859865   corl_xtpl_helgaker_2
      total                  CBS                                      -76.36444539   
  ---------------------------------------------------------------------------------------------------------
   => Loading Basis Set <=

    Name: DEF2-SVP
    Role: ORBITAL
    Keyword: BASIS
    atoms 1        entry CL         line   356 file /home/bdw2292/miniconda3/envs/amoebamdpoltype/share/psi4/basis/def2-svp.gbs 
    atoms 2        entry C          line    90 file /home/bdw2292/miniconda3/envs/amoebamdpoltype/share/psi4/basis/def2-svp.gbs 
    atoms 3-5, 7-8 entry H          line    15 file /home/bdw2292/miniconda3/envs/amoebamdpoltype/share/psi4/basis/def2-svp.gbs 
    atoms 6        entry O          line   130 file /home/bdw2292/miniconda3/envs/amoebamdpoltype/share/psi4/basis/def2-svp.gbs 


       N-Body: Complex Energy (fragments = (2,), basis = (1, 2):   -76.36444538504843)

       N-Body: Computing complex (3/4) with fragments (1,) in the basis of fragments (1, 2).


  //>>>>>>>>>>>>>>>>>>>>>>>>>>>>>>>>>>>//
  //   CBS Setup: mp2/aug-cc-pV[TQ]Z   //
  //<<<<<<<<<<<<<<<<<<<<<<<<<<<<<<<<<<<//

    Naive listing of computations required.
             hf / aug-cc-pvqz              for  HF TOTAL ENERGY
            mp2 / aug-cc-pvtz              for  MP2 TOTAL ENERGY
            mp2 / aug-cc-pvqz              for  MP2 TOTAL ENERGY
             hf / aug-cc-pvtz              for  HF TOTAL ENERGY
             hf / aug-cc-pvqz              for  HF TOTAL ENERGY

    Enlightened listing of computations required.
            mp2 / aug-cc-pvtz              for  MP2 TOTAL ENERGY
            mp2 / aug-cc-pvqz              for  MP2 TOTAL ENERGY

    Full listing of computations to be obtained (required and bonus).
             hf / aug-cc-pvtz              for  HF TOTAL ENERGY
            mp2 / aug-cc-pvtz              for  MP2 TOTAL ENERGY
             hf / aug-cc-pvqz              for  HF TOTAL ENERGY
            mp2 / aug-cc-pvqz              for  MP2 TOTAL ENERGY

  //>>>>>>>>>>>>>>>>>>>>>>>>>>>>>>>>>>>>//
  // CBS Computation: MP2 / AUG-CC-PVTZ //
  //<<<<<<<<<<<<<<<<<<<<<<<<<<<<<<<<<<<<//

    SCF Algorithm Type (re)set to DF.

*** tstart() called on node37.bme.utexas.edu
*** at Tue Feb 22 18:02:32 2022

   => Loading Basis Set <=

    Name: AUG-CC-PVTZ
    Role: ORBITAL
    Keyword: BASIS
    atoms 1        entry CL         line   984 file /home/bdw2292/miniconda3/envs/amoebamdpoltype/share/psi4/basis/aug-cc-pvtz.gbs 
    atoms 2        entry C          line   235 file /home/bdw2292/miniconda3/envs/amoebamdpoltype/share/psi4/basis/aug-cc-pvtz.gbs 
    atoms 3-5, 7-8 entry H          line    36 file /home/bdw2292/miniconda3/envs/amoebamdpoltype/share/psi4/basis/aug-cc-pvtz.gbs 
    atoms 6        entry O          line   327 file /home/bdw2292/miniconda3/envs/amoebamdpoltype/share/psi4/basis/aug-cc-pvtz.gbs 


         ---------------------------------------------------------
                                   SCF
               by Justin Turney, Rob Parrish, Andy Simmonett
                          and Daniel G. A. Smith
                              RHF Reference
                        4 Threads,  14305 MiB Core
         ---------------------------------------------------------

  ==> Geometry <==

    Molecular point group: c1
    Full point group: C1

    Geometry (in Angstrom), charge = 0, multiplicity = 1:

       Center              X                  Y                   Z               Mass       
    ------------   -----------------  -----------------  -----------------  -----------------
         CL          -0.410801938249    -0.592805775432    -0.723851669458    34.968852682000
         C           -1.207336538249     0.172091224568     0.675048130542    12.000000000000
         H           -2.245572038249    -0.156216375432     0.723333430542     1.007825032230
         H           -0.679168038249    -0.119837475432     1.583378630542     1.007825032230
         H           -1.161635738249     1.254787024568     0.556897930542     1.007825032230
      Gh(O)           1.809314961751     0.979548224568     0.854569530542    15.994914619570
      Gh(H)           1.526265761751     0.414522224568     0.133191330542     1.007825032230
[...]
      28A      0.118512    29A      0.123049    30A      0.132156  
      31A      0.145955    32A      0.154363    33A      0.165136  
      34A      0.174387    35A      0.179469    36A      0.208308  
      37A      0.216527    38A      0.224725    39A      0.236722  
      40A      0.241038    41A      0.244983    42A      0.250240  
      43A      0.263290    44A      0.278133    45A      0.280279  
      46A      0.286484    47A      0.292802    48A      0.306422  
      49A      0.316488    50A      0.329586    51A      0.332193  
      52A      0.339390    53A      0.347999    54A      0.355725  
      55A      0.364704    56A      0.373038    57A      0.374545  
      58A      0.380851    59A      0.386114    60A      0.387359  
      61A      0.404679    62A      0.410810    63A      0.423649  
      64A      0.429890    65A      0.466644    66A      0.477303  
      67A      0.522198    68A      0.529214    69A      0.538165  
      70A      0.545945    71A      0.553762    72A      0.573820  
      73A      0.576184    74A      0.583449    75A      0.596396  
      76A      0.614335    77A      0.619146    78A      0.625080  
      79A      0.633072    80A      0.654591    81A      0.667785  
      82A      0.680189    83A      0.687616    84A      0.689984  
      85A      0.702976    86A      0.703477    87A      0.711210  
      88A      0.715590    89A      0.737051    90A      0.744327  
      91A      0.755499    92A      0.763354    93A      0.776045  
      94A      0.783263    95A      0.789091    96A      0.795986  
      97A      0.803965    98A      0.810161    99A      0.827307  
     100A      0.838823   101A      0.843495   102A      0.850671  
     103A      0.870944   104A      0.876937   105A      0.892864  
     106A      0.916603   107A      0.920044   108A      0.937167  
     109A      0.947433   110A      0.968379   111A      0.985601  
     112A      1.001164   113A      1.013981   114A      1.025134  
     115A      1.053339   116A      1.073508   117A      1.079802  
     118A      1.091229   119A      1.110890   120A      1.131916  
     121A      1.147381   122A      1.164023   123A      1.168827  
     124A      1.172054   125A      1.186887   126A      1.198062  
     127A      1.205674   128A      1.212928   129A      1.226965  
     130A      1.239753   131A      1.246441   132A      1.260065  
     133A      1.269678   134A      1.287217   135A      1.306979  
     136A      1.311139   137A      1.323003   138A      1.341076  
     139A      1.361569   140A      1.400541   141A      1.447713  
     142A      1.460858   143A      1.471106   144A      1.485359  
     145A      1.503121   146A      1.519069   147A      1.555647  
     148A      1.576453   149A      1.591440   150A      1.604178  
     151A      1.617012   152A      1.638458   153A      1.645991  
     154A      1.649499   155A      1.671603   156A      1.687842  
     157A      1.707370   158A      1.721161   159A      1.742886  
     160A      1.753869   161A      1.760515   162A      1.782161  
     163A      1.789561   164A      1.803330   165A      1.811146  
     166A      1.811918   167A      1.837817   168A      1.840706  
     169A      1.859235   170A      1.872383   171A      1.880334  
     172A      1.884707   173A      1.904175   174A      1.907947  
     175A      1.929871   176A      1.941513   177A      1.953449  
     178A      1.971241   179A      1.973089   180A      1.984016  
     181A      1.997514   182A      2.000406   183A      2.015665  
     184A      2.034004   185A      2.038819   186A      2.051928  
     187A      2.060870   188A      2.069078   189A      2.092461  
     190A      2.120451   191A      2.127021   192A      2.133904  
     193A      2.154051   194A      2.167945   195A      2.185595  
     196A      2.201314   197A      2.204171   198A      2.214006  
     199A      2.240722   200A      2.242482   201A      2.258671  
     202A      2.262656   203A      2.267372   204A      2.288062  
     205A      2.293552   206A      2.300917   207A      2.314773  
     208A      2.337465   209A      2.356684   210A      2.363598  
     211A      2.374184   212A      2.392936   213A      2.407142  
     214A      2.425058   215A      2.427916   216A      2.437408  
     217A      2.460132   218A      2.483330   219A      2.499448  
     220A      2.524175   221A      2.554382   222A      2.568279  
     223A      2.602196   224A      2.633192   225A      2.647733  
     226A      2.677473   227A      2.688376   228A      2.719661  
     229A      2.739922   230A      2.765092   231A      2.776690  
     232A      2.798568   233A      2.820908   234A      2.853340  
     235A      2.862535   236A      2.886474   237A      2.908614  
     238A      2.941518   239A      2.969664   240A      2.975726  
     241A      2.988598   242A      3.034898   243A      3.050566  
     244A      3.083954   245A      3.093802   246A      3.109094  
     247A      3.118337   248A      3.122297   249A      3.138376  
     250A      3.163084   251A      3.206097   252A      3.238850  
     253A      3.256861   254A      3.291782   255A      3.318884  
     256A      3.376179   257A      3.386189   258A      3.408480  
     259A      3.443276   260A      3.496079   261A      3.526403  
     262A      3.588560   263A      3.638547   264A      3.653804  
     265A      3.664704   266A      3.692126   267A      3.743689  
     268A      3.762609   269A      3.781699   270A      3.833840  
     271A      3.837609   272A      3.845131   273A      3.860427  
     274A      3.867486   275A      3.881555   276A      3.885551  
     277A      3.925467   278A      4.012028   279A      4.043025  
     280A      4.071436   281A      4.112208   282A      4.141823  
     283A      4.153155   284A      4.158611   285A      4.188826  
     286A      4.218887   287A      4.234795   288A      4.250628  
     289A      4.269747   290A      4.272244   291A      4.297774  
     292A      4.315133   293A      4.335683   294A      4.409240  
     295A      4.456784   296A      4.480463   297A      4.501802  
     298A      4.537932   299A      4.589491   300A      4.635900  
     301A      4.652784   302A      4.695849   303A      4.699638  
     304A      4.714847   305A      4.736282   306A      4.780117  
     307A      4.786275   308A      4.835678   309A      4.841761  
     310A      4.847715   311A      4.872371   312A      4.889769  
     313A      4.914637   314A      4.918785   315A      4.930423  
     316A      4.945818   317A      4.960500   318A      4.985504  
     319A      4.992059   320A      5.022501   321A      5.083794  
     322A      5.092432   323A      5.099610   324A      5.185901  
     325A      5.206454   326A      5.210346   327A      5.254620  
     328A      5.304582   329A      5.363070   330A      5.377652  
     331A      5.456323   332A      5.494269   333A      5.534971  
     334A      5.570706   335A      5.625315   336A      5.750283  
     337A      5.975402   338A      6.099925   339A      6.132116  
     340A      6.165703   341A      6.187238   342A      6.256341  
     343A      6.292749   344A      6.393329   345A      6.406296  
     346A      6.482425   347A      6.548200   348A      6.618294  
     349A      6.692239   350A      6.728514   351A      6.762833  
     352A      6.770917   353A      6.817392   354A      6.852397  
     355A      6.894374   356A      6.948846   357A      6.954685  
     358A      6.966175   359A      6.971124   360A      6.994227  
     361A      6.997970   362A      7.043900   363A      7.091443  
     364A      7.124955   365A      7.148886   366A      7.169613  
     367A      7.210548   368A      7.345507   369A      7.347224  
     370A      7.399027   371A      7.533292   372A      7.603249  
     373A      7.642058   374A      7.692829   375A      7.715245  
     376A      7.730432   377A      7.780175   378A      7.800513  
     379A      7.879208   380A      7.887188   381A      7.901080  
     382A      7.916339   383A      7.930842   384A      7.951973  
     385A      7.975327   386A      8.022623   387A      8.087736  
     388A      8.153022   389A      8.249816   390A      8.319326  
     391A      8.345857   392A      8.410583   393A      8.427509  
     394A      8.467433   395A      8.483123   396A      8.549481  
     397A      8.644085   398A      8.653768   399A      8.722278  
     400A      8.746424   401A      8.793856   402A      8.885765  
     403A      8.893000   404A      8.905928   405A      8.948876  
     406A      8.980957   407A      9.025684   408A      9.045206  
     409A      9.116387   410A      9.162783   411A      9.189658  
     412A      9.217833   413A      9.233047   414A      9.252941  
     415A      9.320238   416A      9.447833   417A      9.489494  
     418A      9.590663   419A      9.599707   420A      9.608284  
     421A      9.657318   422A      9.713908   423A      9.741763  
     424A      9.951169   425A      9.973541   426A     10.015441  
     427A     10.082185   428A     10.101221   429A     10.136136  
     430A     10.155376   431A     10.209817   432A     10.359256  
     433A     10.365124   434A     10.407663   435A     10.512156  
     436A     10.553062   437A     10.809555   438A     10.834755  
     439A     10.877205   440A     10.897427   441A     10.985046  
     442A     11.035925   443A     11.076154   444A     11.104058  
     445A     11.271367   446A     11.400649   447A     11.410351  
     448A     11.459755   449A     11.512628   450A     11.777731  
     451A     11.907520   452A     11.966455   453A     12.090121  
     454A     12.246300   455A     12.387525   456A     12.667129  
     457A     12.810868   458A     12.931503   459A     12.981254  
     460A     13.162101   461A     13.203110   462A     13.264487  
     463A     13.373951   464A     14.032825   465A     14.180978  
     466A     14.518386   467A     14.868397   468A     14.913414  
     469A     15.350290   470A     17.086082   471A     17.414546  
     472A     26.722296   473A     28.713518   474A     45.764781  

    Final Occupation by Irrep:
              A 
    DOCC [    18 ]

  @DF-RHF Final Energy:  -575.22126728311821

   => Energetics <=

    Nuclear Repulsion Energy =            104.4281864086454874
    One-Electron Energy =               -1000.9719499546810084
    Two-Electron Energy =                 321.3224962629172410
    Total Energy =                       -575.2212672831183227

Computation Completed


Properties will be evaluated at  -0.000000,  -0.000000,  -0.000000 [a0]

Properties computed using the SCF density matrix

  Nuclear Dipole Moment: [e a0]
     X:     0.3043      Y:     3.3350      Z:     3.9623

  Electronic Dipole Moment: [e a0]
     X:    -0.5248      Y:    -2.9645      Z:    -3.9898

  Dipole Moment: [e a0]
     X:    -0.2205      Y:     0.3706      Z:    -0.0274     Total:     0.4321

  Dipole Moment: [D]
     X:    -0.5606      Y:     0.9419      Z:    -0.0697     Total:     1.0983


*** tstop() called on node37.bme.utexas.edu at Tue Feb 22 18:04:29 2022
Module time:
	user time   =      83.05 seconds =       1.38 minutes
	system time =       4.64 seconds =       0.08 minutes
	total time  =         33 seconds =       0.55 minutes
Total time:
	user time   =     442.86 seconds =       7.38 minutes
	system time =      25.68 seconds =       0.43 minutes
	total time  =        179 seconds =       2.98 minutes

*** tstart() called on node37.bme.utexas.edu
*** at Tue Feb 22 18:04:29 2022


  //>>>>>>>>>>>>>>>>>>>>>>>>>>>>>>>>>>>//
  //               DFMP2               //
  //<<<<<<<<<<<<<<<<<<<<<<<<<<<<<<<<<<<//

   => Loading Basis Set <=

    Name: (AUG-CC-PVQZ AUX)
    Role: RIFIT
    Keyword: DF_BASIS_MP2
    atoms 1        entry CL         line   914 file /home/bdw2292/miniconda3/envs/amoebamdpoltype/share/psi4/basis/aug-cc-pvqz-ri.gbs 
    atoms 2        entry C          line   184 file /home/bdw2292/miniconda3/envs/amoebamdpoltype/share/psi4/basis/aug-cc-pvqz-ri.gbs 
    atoms 3-5, 7-8 entry H          line    30 file /home/bdw2292/miniconda3/envs/amoebamdpoltype/share/psi4/basis/aug-cc-pvqz-ri.gbs 
    atoms 6        entry O          line   332 file /home/bdw2292/miniconda3/envs/amoebamdpoltype/share/psi4/basis/aug-cc-pvqz-ri.gbs 

	 --------------------------------------------------------
	                          DF-MP2                         
	      2nd-Order Density-Fitted Moller-Plesset Theory     
	              RMP2 Wavefunction,   4 Threads             
	                                                         
	        Rob Parrish, Justin Turney, Andy Simmonett,      
	           Ed Hohenstein, and C. David Sherrill          
	 --------------------------------------------------------

   => Auxiliary Basis Set <=

  Basis Set: (AUG-CC-PVQZ AUX)
    Blend: AUG-CC-PVQZ-RI
    Number of shells: 216
    Number of basis function: 930
    Number of Cartesian functions: 1267
    Spherical Harmonics?: true
    Max angular momentum: 5

	 --------------------------------------------------------
	                 NBF =   474, NAUX =   930
	 --------------------------------------------------------
	   CLASS    FOCC     OCC    AOCC    AVIR     VIR    FVIR
	   PAIRS       7      18      11     456     456       0
	 --------------------------------------------------------

	-----------------------------------------------------------
	 ==================> DF-MP2 Energies <==================== 
	-----------------------------------------------------------
	 Reference Energy          =    -575.2212672831182090 [Eh]
	 Singles Energy            =      -0.0000000000000000 [Eh]
	 Same-Spin Energy          =      -0.1577205120123032 [Eh]
	 Opposite-Spin Energy      =      -0.5399353345092210 [Eh]
	 Correlation Energy        =      -0.6976558465215242 [Eh]
	 Total Energy              =    -575.9189231296397793 [Eh]
	-----------------------------------------------------------
	 ================> DF-SCS-MP2 Energies <================== 
	-----------------------------------------------------------
	 SCS Same-Spin Scale       =       0.3333333333333333 [-]
	 SCS Opposite-Spin Scale   =       1.2000000000000000 [-]
	 SCS Same-Spin Energy      =      -0.0525735040041011 [Eh]
	 SCS Opposite-Spin Energy  =      -0.6479224014110653 [Eh]
	 SCS Correlation Energy    =      -0.7004959054151664 [Eh]
	 SCS Total Energy          =    -575.9217631885334185 [Eh]
	-----------------------------------------------------------


*** tstop() called on node37.bme.utexas.edu at Tue Feb 22 18:04:42 2022
Module time:
	user time   =      29.11 seconds =       0.49 minutes
	system time =       2.20 seconds =       0.04 minutes
	total time  =         13 seconds =       0.22 minutes
Total time:
	user time   =     471.97 seconds =       7.87 minutes
	system time =      27.88 seconds =       0.46 minutes
	total time  =        192 seconds =       3.20 minutes

  //>>>>>>>>>>>>>>>>>>>>>>>>>>>>>>>>>>>//
  //  CBS Results: mp2/aug-cc-pV[TQ]Z  //
  //<<<<<<<<<<<<<<<<<<<<<<<<<<<<<<<<<<<//


   ==> HF <==

   HI-zeta (4) Energy:               -575.221267283118


   ==> Helgaker 2-point correlated extrapolation for method: MP2 <==

   LO-zeta (3) Energy:               -575.863332966664
   HI-zeta (4) Energy:               -575.918923129640
   Alpha (exponent) Value:             3.000000000000
   Extrapolated Energy:              -575.959488924244

   @Extrapolated MP2/(T,Q):          -575.959488924244



   ==> Helgaker 2-point correlated extrapolation for method: HF <==

   LO-zeta (3) Energy:               -575.209883933755
   HI-zeta (4) Energy:               -575.221267283118
   Alpha (exponent) Value:             3.000000000000
   Extrapolated Energy:              -575.229574051572

   @Extrapolated HF/(T,Q):           -575.229574051572


   ==> Components <==

  ---------------------------------------------------------------------------------------------------------
                          Method / Basis                      Rqd      Energy [Eh]   Variable
  ---------------------------------------------------------------------------------------------------------
                              hf / aug-cc-pvtz                  *    -575.20988393   HF TOTAL ENERGY
                             mp2 / aug-cc-pvtz                  *    -575.86333297   MP2 TOTAL ENERGY
                              hf / aug-cc-pvqz                  *    -575.22126728   HF TOTAL ENERGY
                             mp2 / aug-cc-pvqz                  *    -575.91892313   MP2 TOTAL ENERGY
  ---------------------------------------------------------------------------------------------------------

   ==> Stages <==

  ---------------------------------------------------------------------------------------------------------
      Stage               Method / Basis                       Wt      Energy [Eh]   Scheme
  ---------------------------------------------------------------------------------------------------------
        scf                   hf / aug-cc-pvqz                  1    -575.22126728   xtpl_highest_1
       corl                  mp2 / aug-cc-pv[tq]z               1    -575.95948892   corl_xtpl_helgaker_2
       corl                   hf / aug-cc-pv[tq]z              -1    -575.22957405   corl_xtpl_helgaker_2
  ---------------------------------------------------------------------------------------------------------

   ==> CBS <==

  ---------------------------------------------------------------------------------------------------------
      Stage               Method / Basis                               Energy [Eh]   Scheme
  ---------------------------------------------------------------------------------------------------------
        scf                   hf / aug-cc-pvqz                       -575.22126728   xtpl_highest_1
       corl                  mp2 / aug-cc-pv[tq]z                      -0.72991487   corl_xtpl_helgaker_2
      total                  CBS                                     -575.95118216   
  ---------------------------------------------------------------------------------------------------------
   => Loading Basis Set <=

    Name: DEF2-SVP
    Role: ORBITAL
    Keyword: BASIS
    atoms 1        entry CL         line   356 file /home/bdw2292/miniconda3/envs/amoebamdpoltype/share/psi4/basis/def2-svp.gbs 
    atoms 2        entry C          line    90 file /home/bdw2292/miniconda3/envs/amoebamdpoltype/share/psi4/basis/def2-svp.gbs 
    atoms 3-5, 7-8 entry H          line    15 file /home/bdw2292/miniconda3/envs/amoebamdpoltype/share/psi4/basis/def2-svp.gbs 
    atoms 6        entry O          line   130 file /home/bdw2292/miniconda3/envs/amoebamdpoltype/share/psi4/basis/def2-svp.gbs 


       N-Body: Complex Energy (fragments = (1, 2), basis = (1, 2):  -575.95118215578964)

   ==> N-Body: Counterpoise Corrected (CP) energies <==

   n-Body     Total Energy [Eh]       I.E. [kcal/mol]      Delta [kcal/mol]
        1     -575.945684150959        0.000000000000        0.000000000000
        2     -575.950986894380       -3.327521733830       -3.327521733830

   => Loading Basis Set <=

    Name: DEF2-SVP
    Role: ORBITAL
    Keyword: BASIS
    atoms 1        entry CL         line   356 file /home/bdw2292/miniconda3/envs/amoebamdpoltype/share/psi4/basis/def2-svp.gbs 
    atoms 2        entry C          line    90 file /home/bdw2292/miniconda3/envs/amoebamdpoltype/share/psi4/basis/def2-svp.gbs 
    atoms 3-5, 7-8 entry H          line    15 file /home/bdw2292/miniconda3/envs/amoebamdpoltype/share/psi4/basis/def2-svp.gbs 
    atoms 6        entry O          line   130 file /home/bdw2292/miniconda3/envs/amoebamdpoltype/share/psi4/basis/def2-svp.gbs 

CP Energy =  -0.005303
    Psi4 stopped on: Tuesday, 22 February 2022 06:04PM
    Psi4 wall time for execution: 0:03:13.79

*** Psi4 exiting successfully. Buy a developer a beer!
