
    -----------------------------------------------------------------------
          Psi4: An Open-Source Ab Initio Electronic Structure Package
                               Psi4 1.3.2 release

                         Git: Rev {HEAD} ecbda83 


    R. M. Parrish, L. A. Burns, D. G. A. Smith, A. C. Simmonett,
    A. E. DePrince III, E. G. Hohenstein, U. Bozkaya, A. Yu. Sokolov,
    R. Di Remigio, R. M. Richard, J. F. Gonthier, A. M. James,
    H. R. McAlexander, A. Kumar, M. Saitow, X. Wang, B. P. Pritchard,
    P. Verma, H. F. Schaefer III, K. Patkowski, R. A. King, E. F. Valeev,
    F. A. Evangelista, J. M. Turney, T. D. Crawford, and C. D. Sherrill,
    J. Chem. Theory Comput. 13(7) pp 3185--3197 (2017).
    (doi: 10.1021/acs.jctc.7b00174)


                         Additional Contributions by
    P. Kraus, H. Kruse, M. H. Lechner, M. C. Schieber, R. A. Shaw,
    A. Alenaizan, R. Galvelis, Z. L. Glick, S. Lehtola, and J. P. Misiewicz

    -----------------------------------------------------------------------


    Psi4 started on: Tuesday, 22 February 2022 06:08PM

    Process ID: 29459
    Host:       node37.bme.utexas.edu
    PSIDATADIR: /home/bdw2292/miniconda3/envs/amoebamdpoltype/share/psi4
    Memory:     500.0 MiB
    Threads:    1
    
  ==> Input File <==

--------------------------------------------------------------------------
molecule { 
0 1
 Cl                 -0.0649832    -0.8758863    -1.3634788
  C                 -0.8615178    -0.1109893     0.0354210
  H                 -1.8997533    -0.4392969     0.0837063
  H                 -0.3333493    -0.4029180     0.9437515
  H                 -0.8158170     0.9717065    -0.0827292
--
0 1
  O                  3.2312824     1.2560944     0.6910774
  H                  2.9482332     0.6910684    -0.0303007
  H                  3.8962219     1.8568753     0.3551166
}
memory 15GB
set_num_threads(4)
psi4_io.set_default_path("/scratch/bdw2292/Psi4-CH3Cl")
set maxiter 500
set freeze_core True
set PROPERTIES_ORIGIN ["COM"]
e_dim= energy('mp2/aug-cc-pV[TQ]Z',bsse_type='cp')

psi4.print_out('CP Energy = %10.6f' % (e_dim))
clean()
--------------------------------------------------------------------------

  Memory set to  13.970 GiB by Python driver.
  Threads set to 4 by Python driver.


   ===> N-Body Interaction Abacus <===
        BSSE Treatment:                     cp
        Number of 1-body computations:     4
        Number of 2-body computations:     1

   ==> N-Body: Now computing 1-body complexes <==


       N-Body: Computing complex (1/4) with fragments (2,) in the basis of fragments (2,).


  //>>>>>>>>>>>>>>>>>>>>>>>>>>>>>>>>>>>//
  //   CBS Setup: mp2/aug-cc-pV[TQ]Z   //
  //<<<<<<<<<<<<<<<<<<<<<<<<<<<<<<<<<<<//

    Naive listing of computations required.
             hf / aug-cc-pvqz              for  HF TOTAL ENERGY
            mp2 / aug-cc-pvtz              for  MP2 TOTAL ENERGY
            mp2 / aug-cc-pvqz              for  MP2 TOTAL ENERGY
             hf / aug-cc-pvtz              for  HF TOTAL ENERGY
             hf / aug-cc-pvqz              for  HF TOTAL ENERGY

    Enlightened listing of computations required.
            mp2 / aug-cc-pvtz              for  MP2 TOTAL ENERGY
            mp2 / aug-cc-pvqz              for  MP2 TOTAL ENERGY

    Full listing of computations to be obtained (required and bonus).
             hf / aug-cc-pvtz              for  HF TOTAL ENERGY
            mp2 / aug-cc-pvtz              for  MP2 TOTAL ENERGY
             hf / aug-cc-pvqz              for  HF TOTAL ENERGY
            mp2 / aug-cc-pvqz              for  MP2 TOTAL ENERGY

  //>>>>>>>>>>>>>>>>>>>>>>>>>>>>>>>>>>>>//
  // CBS Computation: MP2 / AUG-CC-PVTZ //
  //<<<<<<<<<<<<<<<<<<<<<<<<<<<<<<<<<<<<//

    SCF Algorithm Type (re)set to DF.

*** tstart() called on node37.bme.utexas.edu
*** at Tue Feb 22 18:08:31 2022

   => Loading Basis Set <=

    Name: AUG-CC-PVTZ
    Role: ORBITAL
    Keyword: BASIS
    atoms 1   entry O          line   327 file /home/bdw2292/miniconda3/envs/amoebamdpoltype/share/psi4/basis/aug-cc-pvtz.gbs 
    atoms 2-3 entry H          line    36 file /home/bdw2292/miniconda3/envs/amoebamdpoltype/share/psi4/basis/aug-cc-pvtz.gbs 


         ---------------------------------------------------------
                                   SCF
               by Justin Turney, Rob Parrish, Andy Simmonett
                          and Daniel G. A. Smith
                              RHF Reference
                        4 Threads,  14305 MiB Core
         ---------------------------------------------------------

  ==> Geometry <==

    Molecular point group: c1
    Full point group: C1

    Geometry (in Angstrom), charge = 0, multiplicity = 1:

       Center              X                  Y                   Z               Mass       
    ------------   -----------------  -----------------  -----------------  -----------------
         O            2.600445700469     1.390957804469     1.204600182523    15.994914619570
         H            2.317396500469     0.825931804469     0.483222082523     1.007825032230
         H            3.265385200469     1.991738704469     0.868639382523     1.007825032230

  Running in c1 symmetry.

  Rotational constants: A =     22.59784  B =      0.09182  C =      0.09163 [cm^-1]
  Rotational constants: A = 677466.25534  B =   2752.74656  C =   2746.91945 [MHz]
  Nuclear repulsion =    9.178742616277345

  Charge       = 0
  Multiplicity = 1
  Electrons    = 10
  Nalpha       = 5
  Nbeta        = 5

  ==> Algorithm <==

  SCF Algorithm Type is DF.
  DIIS enabled.
  MOM disabled.
  Fractional occupation disabled.
  Guess Type is SAD.
  Energy threshold   = 1.00e-08
  Density threshold  = 1.00e-08
  Integral threshold = 0.00e+00

  ==> Primary Basis <==

  Basis Set: AUG-CC-PVTZ
    Blend: AUG-CC-PVTZ
    Number of shells: 32
    Number of basis function: 92
    Number of Cartesian functions: 105
    Spherical Harmonics?: true
    Max angular momentum: 3

   => Loading Basis Set <=

    Name: (AUG-CC-PVTZ AUX)
    Role: JKFIT
    Keyword: DF_BASIS_SCF
    atoms 1   entry O          line   286 file /home/bdw2292/miniconda3/envs/amoebamdpoltype/share/psi4/basis/aug-cc-pvtz-jkfit.gbs 
    atoms 2-3 entry H          line    70 file /home/bdw2292/miniconda3/envs/amoebamdpoltype/share/psi4/basis/aug-cc-pvtz-jkfit.gbs 

  ==> Pre-Iterations <==

   -------------------------------------------------------
    Irrep   Nso     Nmo     Nalpha   Nbeta   Ndocc  Nsocc
   -------------------------------------------------------
     A         92      92       0       0       0       0
   -------------------------------------------------------
    Total      92      92       5       5       5       0
   -------------------------------------------------------

  ==> Integral Setup <==

  DFHelper Memory: AOs need 0.015 GiB; user supplied 10.477 GiB. Using in-core AOs.

  ==> MemDFJK: Density-Fitted J/K Matrices <==

    J tasked:                   Yes
    K tasked:                   Yes
    wK tasked:                   No
    OpenMP threads:               4
    Memory [MiB]:             10728
    Algorithm:                 Core
    Schwarz Cutoff:           1E-12
    Mask sparsity (%):       0.0000
    Fitting Condition:        1E-10

   => Auxiliary Basis Set <=

  Basis Set: (AUG-CC-PVTZ AUX)
    Blend: AUG-CC-PVTZ-JKFIT
    Number of shells: 58
    Number of basis function: 196
    Number of Cartesian functions: 241
    Spherical Harmonics?: true
    Max angular momentum: 4

  Minimum eigenvalue in the overlap matrix is 3.7831923094E-04.
  Using Symmetric Orthogonalization.

  SCF Guess: Superposition of Atomic Densities via on-the-fly atomic UHF.

  ==> Iterations <==

                           Total Energy        Delta E     RMS |[F,P]|

   @DF-RHF iter SAD:   -75.47358574071538   -7.54736e+01   0.00000e+00 
   @DF-RHF iter   1:   -75.97652929954701   -5.02944e-01   5.09341e-03 DIIS
   @DF-RHF iter   2:   -76.02893783740728   -5.24085e-02   3.45451e-03 DIIS
   @DF-RHF iter   3:   -76.06001873268359   -3.10809e-02   2.34643e-04 DIIS
   @DF-RHF iter   4:   -76.06040894191203   -3.90209e-04   5.60768e-05 DIIS
   @DF-RHF iter   5:   -76.06043299102865   -2.40491e-05   1.26329e-05 DIIS
   @DF-RHF iter   6:   -76.06043495570772   -1.96468e-06   2.80891e-06 DIIS
   @DF-RHF iter   7:   -76.06043506369394   -1.07986e-07   5.29240e-07 DIIS
   @DF-RHF iter   8:   -76.06043506709302   -3.39908e-09   8.79265e-08 DIIS
   @DF-RHF iter   9:   -76.06043506716672   -7.36975e-11   2.18708e-08 DIIS
   @DF-RHF iter  10:   -76.06043506717083   -4.10694e-12   2.99458e-09 DIIS
  Energy and wave function converged.


  ==> Post-Iterations <==

    Orbital Energies [Eh]
    ---------------------

    Doubly Occupied:                                                      

       1A    -20.565726     2A     -1.350644     3A     -0.724219  
       4A     -0.577784     5A     -0.509223  

    Virtual:                                                              

       6A      0.029647     7A      0.047459     8A      0.136442  
       9A      0.157942    10A      0.174323    11A      0.182106  
      12A      0.228703    13A      0.244480    14A      0.263948  
      15A      0.304382    16A      0.312986    17A      0.365256  
      18A      0.437862    19A      0.466707    20A      0.602004  
      21A      0.654530    22A      0.710942    23A      0.719520  
      24A      0.731335    25A      0.828062    26A      0.843850  
      27A      0.890184    28A      0.912839    29A      0.920743  
      30A      0.923565    31A      0.928078    32A      0.970583  
      33A      1.022734    34A      1.045089    35A      1.084937  
      36A      1.113603    37A      1.172928    38A      1.177531  
      39A      1.259745    40A      1.514028    41A      1.561870  
      42A      1.594873    43A      1.787278    44A      1.797844  
      45A      2.001711    46A      2.115640    47A      2.259872  
      48A      2.318349    49A      2.321430    50A      2.413921  
      51A      2.414844    52A      2.438917    53A      2.472037  
      54A      2.686316    55A      2.702862    56A      2.767606  
      57A      2.854325    58A      2.883784    59A      3.645219  
      60A      3.767917    61A      4.007538    62A      4.089440  
      63A      4.208878    64A      4.231936    65A      4.332843  
      66A      4.381409    67A      4.400787    68A      4.413359  
      69A      4.494871    70A      4.708534    71A      4.814530  
      72A      5.124352    73A      5.170307    74A      5.301821  
      75A      5.329154    76A      5.513137    77A      5.717358  
      78A      6.142116    79A      6.533427    80A      6.713474  
      81A      6.861117    82A      7.145576    83A      7.261615  
      84A      7.301099    85A      7.308216    86A      7.370267  
      87A      7.381718    88A      7.556032    89A      7.898602  
      90A      7.959664    91A      8.788930    92A     15.841032  

    Final Occupation by Irrep:
              A 
    DOCC [     5 ]

  @DF-RHF Final Energy:   -76.06043506717083

   => Energetics <=

    Nuclear Repulsion Energy =              9.1787426162773453
    One-Electron Energy =                -123.0231635190683761
    Two-Electron Energy =                  37.7839858356202072
    Total Energy =                        -76.0604350671708289

Computation Completed


Properties will be evaluated at   4.954513,   2.632310,   2.164557 [a0]

Properties computed using the SCF density matrix

  Nuclear Dipole Moment: [e a0]
     X:     0.3178      Y:     0.0298      Z:    -0.8800

  Electronic Dipole Moment: [e a0]
     X:    -0.0608      Y:    -0.0055      Z:     0.1689

  Dipole Moment: [e a0]
     X:     0.2571      Y:     0.0243      Z:    -0.7111     Total:     0.7565

  Dipole Moment: [D]
     X:     0.6534      Y:     0.0617      Z:    -1.8075     Total:     1.9229


*** tstop() called on node37.bme.utexas.edu at Tue Feb 22 18:08:34 2022
Module time:
	user time   =       5.29 seconds =       0.09 minutes
	system time =       0.41 seconds =       0.01 minutes
	total time  =          3 seconds =       0.05 minutes
Total time:
	user time   =       5.29 seconds =       0.09 minutes
	system time =       0.41 seconds =       0.01 minutes
	total time  =          3 seconds =       0.05 minutes

*** tstart() called on node37.bme.utexas.edu
*** at Tue Feb 22 18:08:34 2022


  //>>>>>>>>>>>>>>>>>>>>>>>>>>>>>>>>>>>//
  //               DFMP2               //
  //<<<<<<<<<<<<<<<<<<<<<<<<<<<<<<<<<<<//

   => Loading Basis Set <=

    Name: (AUG-CC-PVTZ AUX)
    Role: RIFIT
    Keyword: DF_BASIS_MP2
    atoms 1   entry O          line   264 file /home/bdw2292/miniconda3/envs/amoebamdpoltype/share/psi4/basis/aug-cc-pvtz-ri.gbs 
    atoms 2-3 entry H          line    30 file /home/bdw2292/miniconda3/envs/amoebamdpoltype/share/psi4/basis/aug-cc-pvtz-ri.gbs 

	 --------------------------------------------------------
	                          DF-MP2                         
	      2nd-Order Density-Fitted Moller-Plesset Theory     
	              RMP2 Wavefunction,   4 Threads             
	                                                         
	        Rob Parrish, Justin Turney, Andy Simmonett,      
	           Ed Hohenstein, and C. David Sherrill          
	 --------------------------------------------------------

   => Auxiliary Basis Set <=

  Basis Set: (AUG-CC-PVTZ AUX)
    Blend: AUG-CC-PVTZ-RI
    Number of shells: 56
    Number of basis function: 198
    Number of Cartesian functions: 246
    Spherical Harmonics?: true
    Max angular momentum: 4

	 --------------------------------------------------------
	                 NBF =    92, NAUX =   198
	 --------------------------------------------------------
	   CLASS    FOCC     OCC    AOCC    AVIR     VIR    FVIR
	   PAIRS       1       5       4      87      87       0
	 --------------------------------------------------------

	-----------------------------------------------------------
	 ==================> DF-MP2 Energies <==================== 
	-----------------------------------------------------------
	 Reference Energy          =     -76.0604350671708289 [Eh]
	 Singles Energy            =      -0.0000000000000000 [Eh]
	 Same-Spin Energy          =      -0.0651071394160968 [Eh]
	 Opposite-Spin Energy      =      -0.2030207644319254 [Eh]
	 Correlation Energy        =      -0.2681279038480223 [Eh]
	 Total Energy              =     -76.3285629710188545 [Eh]
	-----------------------------------------------------------
	 ================> DF-SCS-MP2 Energies <================== 
	-----------------------------------------------------------
	 SCS Same-Spin Scale       =       0.3333333333333333 [-]
	 SCS Opposite-Spin Scale   =       1.2000000000000000 [-]
	 SCS Same-Spin Energy      =      -0.0217023798053656 [Eh]
	 SCS Opposite-Spin Energy  =      -0.2436249173183105 [Eh]
	 SCS Correlation Energy    =      -0.2653272971236761 [Eh]
	 SCS Total Energy          =     -76.3257623642945049 [Eh]
	-----------------------------------------------------------


*** tstop() called on node37.bme.utexas.edu at Tue Feb 22 18:08:35 2022
Module time:
	user time   =       1.45 seconds =       0.02 minutes
	system time =       0.13 seconds =       0.00 minutes
	total time  =          1 seconds =       0.02 minutes
Total time:
	user time   =       6.74 seconds =       0.11 minutes
	system time =       0.54 seconds =       0.01 minutes
	total time  =          4 seconds =       0.07 minutes

  //>>>>>>>>>>>>>>>>>>>>>>>>>>>>>>>>>>>>//
  // CBS Computation: MP2 / AUG-CC-PVQZ //
  //<<<<<<<<<<<<<<<<<<<<<<<<<<<<<<<<<<<<//

    SCF Algorithm Type (re)set to DF.

*** tstart() called on node37.bme.utexas.edu
*** at Tue Feb 22 18:08:35 2022

   => Loading Basis Set <=

    Name: AUG-CC-PVQZ
    Role: ORBITAL
    Keyword: BASIS
    atoms 1   entry O          line   419 file /home/bdw2292/miniconda3/envs/amoebamdpoltype/share/psi4/basis/aug-cc-pvqz.gbs 
    atoms 2-3 entry H          line    36 file /home/bdw2292/miniconda3/envs/amoebamdpoltype/share/psi4/basis/aug-cc-pvqz.gbs 


         ---------------------------------------------------------
                                   SCF
               by Justin Turney, Rob Parrish, Andy Simmonett
                          and Daniel G. A. Smith
                              RHF Reference
                        4 Threads,  14305 MiB Core
         ---------------------------------------------------------

  ==> Geometry <==

    Molecular point group: c1
    Full point group: C1

    Geometry (in Angstrom), charge = 0, multiplicity = 1:

       Center              X                  Y                   Z               Mass       
    ------------   -----------------  -----------------  -----------------  -----------------
         O            2.600445700469     1.390957804469     1.204600182523    15.994914619570
         H            2.317396500469     0.825931804469     0.483222082523     1.007825032230
         H            3.265385200469     1.991738704469     0.868639382523     1.007825032230

  Running in c1 symmetry.

  Rotational constants: A =     22.59784  B =      0.09182  C =      0.09163 [cm^-1]
  Rotational constants: A = 677466.25534  B =   2752.74656  C =   2746.91945 [MHz]
  Nuclear repulsion =    9.178742616277345

  Charge       = 0
  Multiplicity = 1
  Electrons    = 10
  Nalpha       = 5
  Nbeta        = 5

  ==> Algorithm <==

  SCF Algorithm Type is DF.
  DIIS enabled.
  MOM disabled.
  Fractional occupation disabled.
  Guess Type is SAD.
  Energy threshold   = 1.00e-08
  Density threshold  = 1.00e-08
  Integral threshold = 0.00e+00

  ==> Primary Basis <==

  Basis Set: AUG-CC-PVQZ
    Blend: AUG-CC-PVQZ
    Number of shells: 48
    Number of basis function: 172
    Number of Cartesian functions: 215
    Spherical Harmonics?: true
    Max angular momentum: 4

   => Loading Basis Set <=

    Name: (AUG-CC-PVQZ AUX)
    Role: JKFIT
    Keyword: DF_BASIS_SCF
    atoms 1   entry O          line   318 file /home/bdw2292/miniconda3/envs/amoebamdpoltype/share/psi4/basis/aug-cc-pvqz-jkfit.gbs 
    atoms 2-3 entry H          line    70 file /home/bdw2292/miniconda3/envs/amoebamdpoltype/share/psi4/basis/aug-cc-pvqz-jkfit.gbs 

  ==> Pre-Iterations <==

   -------------------------------------------------------
    Irrep   Nso     Nmo     Nalpha   Nbeta   Ndocc  Nsocc
   -------------------------------------------------------
     A        172     172       0       0       0       0
   -------------------------------------------------------
    Total     172     172       5       5       5       0
   -------------------------------------------------------

  ==> Integral Setup <==

  DFHelper Memory: AOs need 0.074 GiB; user supplied 10.477 GiB. Using in-core AOs.

  ==> MemDFJK: Density-Fitted J/K Matrices <==

    J tasked:                   Yes
    K tasked:                   Yes
    wK tasked:                   No
    OpenMP threads:               4
    Memory [MiB]:             10728
    Algorithm:                 Core
    Schwarz Cutoff:           1E-12
    Mask sparsity (%):       0.0000
    Fitting Condition:        1E-10

   => Auxiliary Basis Set <=

  Basis Set: (AUG-CC-PVQZ AUX)
    Blend: AUG-CC-PVQZ-JKFIT
    Number of shells: 70
    Number of basis function: 294
    Number of Cartesian functions: 400
    Spherical Harmonics?: true
    Max angular momentum: 5

  Minimum eigenvalue in the overlap matrix is 8.5630432823E-05.
  Using Symmetric Orthogonalization.

  SCF Guess: Superposition of Atomic Densities via on-the-fly atomic UHF.

  ==> Iterations <==

                           Total Energy        Delta E     RMS |[F,P]|

   @DF-RHF iter SAD:   -75.47874034423468   -7.54787e+01   0.00000e+00 
   @DF-RHF iter   1:   -75.98160923922082   -5.02869e-01   2.73017e-03 DIIS
   @DF-RHF iter   2:   -76.03412167935863   -5.25124e-02   1.85599e-03 DIIS
   @DF-RHF iter   3:   -76.06540064399687   -3.12790e-02   1.26424e-04 DIIS
   @DF-RHF iter   4:   -76.06579291744558   -3.92273e-04   3.09137e-05 DIIS
   @DF-RHF iter   5:   -76.06581786837685   -2.49509e-05   6.93848e-06 DIIS
   @DF-RHF iter   6:   -76.06581991557992   -2.04720e-06   1.58417e-06 DIIS
   @DF-RHF iter   7:   -76.06582003486449   -1.19285e-07   3.08078e-07 DIIS
   @DF-RHF iter   8:   -76.06582003887071   -4.00622e-09   4.93680e-08 DIIS
   @DF-RHF iter   9:   -76.06582003895446   -8.37446e-11   1.19637e-08 DIIS
   @DF-RHF iter  10:   -76.06582003895851   -4.05009e-12   1.66962e-09 DIIS
  Energy and wave function converged.


  ==> Post-Iterations <==

    Orbital Energies [Eh]
    ---------------------

    Doubly Occupied:                                                      

       1A    -20.563270     2A     -1.349918     3A     -0.724185  
       4A     -0.577836     5A     -0.509353  

    Virtual:                                                              

       6A      0.027128     7A      0.042889     8A      0.114662  
       9A      0.132688    10A      0.150394    11A      0.157915  
      12A      0.185898    13A      0.197103    14A      0.208336  
      15A      0.241041    16A      0.258802    17A      0.290489  
      18A      0.357995    19A      0.390504    20A      0.471647  
      21A      0.506839    22A      0.542960    23A      0.545802  
      24A      0.554312    25A      0.613322    26A      0.634128  
      27A      0.649413    28A      0.662723    29A      0.665883  
      30A      0.689916    31A      0.705271    32A      0.715113  
      33A      0.769520    34A      0.787578    35A      0.803440  
      36A      0.809263    37A      0.846469    38A      0.855350  
      39A      0.967531    40A      1.134264    41A      1.139870  
      42A      1.216056    43A      1.329192    44A      1.419406  
      45A      1.480446    46A      1.506335    47A      1.520982  
      48A      1.525220    49A      1.555718    50A      1.595342  
      51A      1.618224    52A      1.636558    53A      1.659871  
      54A      1.671851    55A      1.686259    56A      1.702563  
      57A      1.720777    58A      1.762711    59A      1.780500  
      60A      1.792638    61A      1.829164    62A      1.863085  
      63A      1.882519    64A      1.901348    65A      1.955387  
      66A      2.013772    67A      2.022636    68A      2.029838  
      69A      2.099282    70A      2.217970    71A      2.225332  
      72A      2.307284    73A      2.488631    74A      2.640868  
      75A      2.642176    76A      2.889988    77A      2.961699  
      78A      3.009052    79A      3.024662    80A      3.060905  
      81A      3.087861    82A      3.255122    83A      3.284449  
      84A      3.307897    85A      3.527186    86A      3.591080  
      87A      3.657007    88A      3.683135    89A      3.738714  
      90A      3.742032    91A      3.921076    92A      4.067310  
      93A      4.159907    94A      4.170501    95A      4.175021  
      96A      4.181092    97A      4.250057    98A      4.343099  
      99A      4.420045   100A      4.566431   101A      4.667126  
     102A      4.759685   103A      4.802588   104A      4.805158  
     105A      4.835944   106A      4.875288   107A      4.998481  
     108A      5.273381   109A      5.315716   110A      5.512548  
     111A      5.545193   112A      5.878000   113A      5.880201  
     114A      6.079115   115A      6.229736   116A      6.837779  
     117A      6.857156   118A      6.862611   119A      6.953160  
     120A      7.712974   121A      7.780263   122A      7.826819  
     123A      7.843967   124A      7.871812   125A      7.917152  
     126A      7.944833   127A      8.007591   128A      8.198392  
     129A      8.331003   130A      8.535534   131A      8.593801  
     132A      8.699078   133A      8.755239   134A      8.797065  
     135A      8.873204   136A      8.982384   137A      9.061357  
     138A      9.145967   139A      9.537804   140A      9.842320  
     141A      9.959206   142A      9.960824   143A     10.010372  
     144A     10.431879   145A     10.477162   146A     10.656611  
     147A     10.994302   148A     11.040403   149A     11.080916  
     150A     11.260697   151A     11.365135   152A     11.436895  
     153A     11.697107   154A     11.795965   155A     11.835001  
     156A     12.010550   157A     12.177129   158A     12.222438  
     159A     12.536481   160A     12.733928   161A     12.870765  
     162A     12.895228   163A     13.210137   164A     13.996154  
     165A     14.036127   166A     14.486327   167A     14.841140  
     168A     14.873752   169A     15.294387   170A     16.919518  
     171A     17.265153   172A     45.488744  

    Final Occupation by Irrep:
              A 
    DOCC [     5 ]

  @DF-RHF Final Energy:   -76.06582003895851

   => Energetics <=

    Nuclear Repulsion Energy =              9.1787426162773453
    One-Electron Energy =                -123.0400043218228348
    Two-Electron Energy =                  37.7954416665869886
    Total Energy =                        -76.0658200389584920

Computation Completed


Properties will be evaluated at   4.954513,   2.632310,   2.164557 [a0]

Properties computed using the SCF density matrix

  Nuclear Dipole Moment: [e a0]
     X:     0.3178      Y:     0.0298      Z:    -0.8800

  Electronic Dipole Moment: [e a0]
     X:    -0.0611      Y:    -0.0055      Z:     0.1697

  Dipole Moment: [e a0]
     X:     0.2568      Y:     0.0243      Z:    -0.7103     Total:     0.7557

  Dipole Moment: [D]
     X:     0.6526      Y:     0.0616      Z:    -1.8054     Total:     1.9207


*** tstop() called on node37.bme.utexas.edu at Tue Feb 22 18:08:40 2022
Module time:
	user time   =      10.52 seconds =       0.18 minutes
	system time =       0.74 seconds =       0.01 minutes
	total time  =          5 seconds =       0.08 minutes
Total time:
	user time   =      17.28 seconds =       0.29 minutes
	system time =       1.28 seconds =       0.02 minutes
	total time  =          9 seconds =       0.15 minutes

*** tstart() called on node37.bme.utexas.edu
*** at Tue Feb 22 18:08:40 2022


  //>>>>>>>>>>>>>>>>>>>>>>>>>>>>>>>>>>>//
  //               DFMP2               //
  //<<<<<<<<<<<<<<<<<<<<<<<<<<<<<<<<<<<//

   => Loading Basis Set <=

    Name: (AUG-CC-PVQZ AUX)
    Role: RIFIT
    Keyword: DF_BASIS_MP2
    atoms 1   entry O          line   332 file /home/bdw2292/miniconda3/envs/amoebamdpoltype/share/psi4/basis/aug-cc-pvqz-ri.gbs 
    atoms 2-3 entry H          line    30 file /home/bdw2292/miniconda3/envs/amoebamdpoltype/share/psi4/basis/aug-cc-pvqz-ri.gbs 

	 --------------------------------------------------------
	                          DF-MP2                         
	      2nd-Order Density-Fitted Moller-Plesset Theory     
	              RMP2 Wavefunction,   4 Threads             
	                                                         
	        Rob Parrish, Justin Turney, Andy Simmonett,      
	           Ed Hohenstein, and C. David Sherrill          
	 --------------------------------------------------------

   => Auxiliary Basis Set <=

  Basis Set: (AUG-CC-PVQZ AUX)
    Blend: AUG-CC-PVQZ-RI
    Number of shells: 76
    Number of basis function: 328
    Number of Cartesian functions: 447
    Spherical Harmonics?: true
    Max angular momentum: 5

	 --------------------------------------------------------
	                 NBF =   172, NAUX =   328
	 --------------------------------------------------------
	   CLASS    FOCC     OCC    AOCC    AVIR     VIR    FVIR
	   PAIRS       1       5       4     167     167       0
	 --------------------------------------------------------

	-----------------------------------------------------------
	 ==================> DF-MP2 Energies <==================== 
	-----------------------------------------------------------
	 Reference Energy          =     -76.0658200389585062 [Eh]
	 Singles Energy            =      -0.0000000000000000 [Eh]
	 Same-Spin Energy          =      -0.0671761949298575 [Eh]
	 Opposite-Spin Energy      =      -0.2185574004493298 [Eh]
	 Correlation Energy        =      -0.2857335953791873 [Eh]
	 Total Energy              =     -76.3515536343376908 [Eh]
	-----------------------------------------------------------
	 ================> DF-SCS-MP2 Energies <================== 
	-----------------------------------------------------------
	 SCS Same-Spin Scale       =       0.3333333333333333 [-]
	 SCS Opposite-Spin Scale   =       1.2000000000000000 [-]
	 SCS Same-Spin Energy      =      -0.0223920649766192 [Eh]
	 SCS Opposite-Spin Energy  =      -0.2622688805391957 [Eh]
	 SCS Correlation Energy    =      -0.2846609455158149 [Eh]
	 SCS Total Energy          =     -76.3504809844743164 [Eh]
	-----------------------------------------------------------


*** tstop() called on node37.bme.utexas.edu at Tue Feb 22 18:08:43 2022
Module time:
	user time   =       3.21 seconds =       0.05 minutes
	system time =       0.24 seconds =       0.00 minutes
	total time  =          3 seconds =       0.05 minutes
Total time:
	user time   =      20.50 seconds =       0.34 minutes
	system time =       1.52 seconds =       0.03 minutes
	total time  =         12 seconds =       0.20 minutes

  //>>>>>>>>>>>>>>>>>>>>>>>>>>>>>>>>>>>//
  //  CBS Results: mp2/aug-cc-pV[TQ]Z  //
  //<<<<<<<<<<<<<<<<<<<<<<<<<<<<<<<<<<<//


   ==> HF <==

   HI-zeta (4) Energy:               -76.065820038958


   ==> Helgaker 2-point correlated extrapolation for method: MP2 <==

   LO-zeta (3) Energy:               -76.328562971019
   HI-zeta (4) Energy:               -76.351553634338
   Alpha (exponent) Value:             3.000000000000
   Extrapolated Energy:              -76.368330604868

   @Extrapolated MP2/(T,Q):          -76.368330604868



   ==> Helgaker 2-point correlated extrapolation for method: HF <==

   LO-zeta (3) Energy:               -76.060435067171
   HI-zeta (4) Energy:               -76.065820038958
   Alpha (exponent) Value:             3.000000000000
   Extrapolated Energy:              -76.069749612966

   @Extrapolated HF/(T,Q):           -76.069749612966


   ==> Components <==

  ---------------------------------------------------------------------------------------------------------
                          Method / Basis                      Rqd      Energy [Eh]   Variable
  ---------------------------------------------------------------------------------------------------------
                              hf / aug-cc-pvtz                  *     -76.06043507   HF TOTAL ENERGY
                             mp2 / aug-cc-pvtz                  *     -76.32856297   MP2 TOTAL ENERGY
                              hf / aug-cc-pvqz                  *     -76.06582004   HF TOTAL ENERGY
                             mp2 / aug-cc-pvqz                  *     -76.35155363   MP2 TOTAL ENERGY
  ---------------------------------------------------------------------------------------------------------

   ==> Stages <==

  ---------------------------------------------------------------------------------------------------------
      Stage               Method / Basis                       Wt      Energy [Eh]   Scheme
  ---------------------------------------------------------------------------------------------------------
        scf                   hf / aug-cc-pvqz                  1     -76.06582004   xtpl_highest_1
       corl                  mp2 / aug-cc-pv[tq]z               1     -76.36833060   corl_xtpl_helgaker_2
       corl                   hf / aug-cc-pv[tq]z              -1     -76.06974961   corl_xtpl_helgaker_2
  ---------------------------------------------------------------------------------------------------------

   ==> CBS <==

  ---------------------------------------------------------------------------------------------------------
      Stage               Method / Basis                               Energy [Eh]   Scheme
  ---------------------------------------------------------------------------------------------------------
        scf                   hf / aug-cc-pvqz                        -76.06582004   xtpl_highest_1
       corl                  mp2 / aug-cc-pv[tq]z                      -0.29858099   corl_xtpl_helgaker_2
      total                  CBS                                      -76.36440103   
  ---------------------------------------------------------------------------------------------------------
   => Loading Basis Set <=

    Name: DEF2-SVP
    Role: ORBITAL
    Keyword: BASIS
    atoms 1   entry O          line   130 file /home/bdw2292/miniconda3/envs/amoebamdpoltype/share/psi4/basis/def2-svp.gbs 
    atoms 2-3 entry H          line    15 file /home/bdw2292/miniconda3/envs/amoebamdpoltype/share/psi4/basis/def2-svp.gbs 


       N-Body: Complex Energy (fragments = (2,), basis = (2,):   -76.36440103086044)

       N-Body: Computing complex (2/4) with fragments (2,) in the basis of fragments (1, 2).


  //>>>>>>>>>>>>>>>>>>>>>>>>>>>>>>>>>>>//
  //   CBS Setup: mp2/aug-cc-pV[TQ]Z   //
  //<<<<<<<<<<<<<<<<<<<<<<<<<<<<<<<<<<<//

    Naive listing of computations required.
             hf / aug-cc-pvqz              for  HF TOTAL ENERGY
            mp2 / aug-cc-pvtz              for  MP2 TOTAL ENERGY
            mp2 / aug-cc-pvqz              for  MP2 TOTAL ENERGY
             hf / aug-cc-pvtz              for  HF TOTAL ENERGY
             hf / aug-cc-pvqz              for  HF TOTAL ENERGY

    Enlightened listing of computations required.
            mp2 / aug-cc-pvtz              for  MP2 TOTAL ENERGY
            mp2 / aug-cc-pvqz              for  MP2 TOTAL ENERGY

    Full listing of computations to be obtained (required and bonus).
             hf / aug-cc-pvtz              for  HF TOTAL ENERGY
            mp2 / aug-cc-pvtz              for  MP2 TOTAL ENERGY
             hf / aug-cc-pvqz              for  HF TOTAL ENERGY
            mp2 / aug-cc-pvqz              for  MP2 TOTAL ENERGY

  //>>>>>>>>>>>>>>>>>>>>>>>>>>>>>>>>>>>>//
  // CBS Computation: MP2 / AUG-CC-PVTZ //
  //<<<<<<<<<<<<<<<<<<<<<<<<<<<<<<<<<<<<//

    SCF Algorithm Type (re)set to DF.

*** tstart() called on node37.bme.utexas.edu
*** at Tue Feb 22 18:08:44 2022

   => Loading Basis Set <=

    Name: AUG-CC-PVTZ
    Role: ORBITAL
    Keyword: BASIS
    atoms 1        entry CL         line   984 file /home/bdw2292/miniconda3/envs/amoebamdpoltype/share/psi4/basis/aug-cc-pvtz.gbs 
    atoms 2        entry C          line   235 file /home/bdw2292/miniconda3/envs/amoebamdpoltype/share/psi4/basis/aug-cc-pvtz.gbs 
    atoms 3-5, 7-8 entry H          line    36 file /home/bdw2292/miniconda3/envs/amoebamdpoltype/share/psi4/basis/aug-cc-pvtz.gbs 
    atoms 6        entry O          line   327 file /home/bdw2292/miniconda3/envs/amoebamdpoltype/share/psi4/basis/aug-cc-pvtz.gbs 


         ---------------------------------------------------------
                                   SCF
               by Justin Turney, Rob Parrish, Andy Simmonett
                          and Daniel G. A. Smith
                              RHF Reference
                        4 Threads,  14305 MiB Core
         ---------------------------------------------------------

  ==> Geometry <==

    Molecular point group: c1
    Full point group: C1

    Geometry (in Angstrom), charge = 0, multiplicity = 1:

       Center              X                  Y                   Z               Mass       
    ------------   -----------------  -----------------  -----------------  -----------------
      Gh(CL)         -0.695819899531    -0.741022895531    -0.849956017477    34.968852682000
      Gh(C)          -1.492354499531     0.023874104469     0.548943782523    12.000000000000
      Gh(H)          -2.530589999531    -0.304433495531     0.597229082523     1.007825032230
      Gh(H)          -0.964185999531    -0.268054595531     1.457274282523     1.007825032230
      Gh(H)          -1.446653699531     1.106569904469     0.430793582523     1.007825032230
         O            2.600445700469     1.390957804469     1.204600182523    15.994914619570
         H            2.317396500469     0.825931804469     0.483222082523     1.007825032230
         H            3.265385200469     1.991738704469     0.868639382523     1.007825032230

  Running in c1 symmetry.

  Rotational constants: A =      0.43982  B =      0.06662  C =      0.05861 [cm^-1]
  Rotational constants: A =  13185.59485  B =   1997.19437  C =   1757.19937 [MHz]
  Nuclear repulsion =    9.178742616277345

  Charge       = 0
  Multiplicity = 1
  Electrons    = 10
  Nalpha       = 5
  Nbeta        = 5

  ==> Algorithm <==

  SCF Algorithm Type is DF.
  DIIS enabled.
  MOM disabled.
  Fractional occupation disabled.
  Guess Type is SAD.
  Energy threshold   = 1.00e-08
  Density threshold  = 1.00e-08
  Integral threshold = 0.00e+00

  ==> Primary Basis <==

  Basis Set: AUG-CC-PVTZ
    Blend: AUG-CC-PVTZ
    Number of shells: 89
    Number of basis function: 257
    Number of Cartesian functions: 294
    Spherical Harmonics?: true
    Max angular momentum: 3

   => Loading Basis Set <=

    Name: (AUG-CC-PVTZ AUX)
    Role: JKFIT
    Keyword: DF_BASIS_SCF
    atoms 1        entry CL         line   816 file /home/bdw2292/miniconda3/envs/amoebamdpoltype/share/psi4/basis/aug-cc-pvtz-jkfit.gbs 
    atoms 2        entry C          line   162 file /home/bdw2292/miniconda3/envs/amoebamdpoltype/share/psi4/basis/aug-cc-pvtz-jkfit.gbs 
    atoms 3-5, 7-8 entry H          line    70 file /home/bdw2292/miniconda3/envs/amoebamdpoltype/share/psi4/basis/aug-cc-pvtz-jkfit.gbs 
    atoms 6        entry O          line   286 file /home/bdw2292/miniconda3/envs/amoebamdpoltype/share/psi4/basis/aug-cc-pvtz-jkfit.gbs 

  ==> Pre-Iterations <==

   -------------------------------------------------------
    Irrep   Nso     Nmo     Nalpha   Nbeta   Ndocc  Nsocc
   -------------------------------------------------------
     A        257     257       0       0       0       0
   -------------------------------------------------------
    Total     257     257       5       5       5       0
   -------------------------------------------------------

  ==> Integral Setup <==

  DFHelper Memory: AOs need 0.289 GiB; user supplied 10.477 GiB. Using in-core AOs.

  ==> MemDFJK: Density-Fitted J/K Matrices <==

    J tasked:                   Yes
    K tasked:                   Yes
    wK tasked:                   No
    OpenMP threads:               4
    Memory [MiB]:             10728
    Algorithm:                 Core
    Schwarz Cutoff:           1E-12
    Mask sparsity (%):       5.6715
    Fitting Condition:        1E-10

   => Auxiliary Basis Set <=

  Basis Set: (AUG-CC-PVTZ AUX)
    Blend: AUG-CC-PVTZ-JKFIT
    Number of shells: 172
    Number of basis function: 584
    Number of Cartesian functions: 717
    Spherical Harmonics?: true
    Max angular momentum: 4

  Minimum eigenvalue in the overlap matrix is 7.2441309326E-05.
  Using Symmetric Orthogonalization.

  SCF Guess: Superposition of Atomic Densities via on-the-fly atomic UHF.

  ==> Iterations <==

                           Total Energy        Delta E     RMS |[F,P]|

   @DF-RHF iter SAD:   -75.47358573180203   -7.54736e+01   0.00000e+00 
   @DF-RHF iter   1:   -75.97653660128002   -5.02951e-01   1.82336e-03 DIIS
   @DF-RHF iter   2:   -76.02894817525797   -5.24116e-02   1.23671e-03 DIIS
   @DF-RHF iter   3:   -76.06003116889072   -3.10830e-02   8.39994e-05 DIIS
   @DF-RHF iter   4:   -76.06042140038062   -3.90231e-04   2.00766e-05 DIIS
   @DF-RHF iter   5:   -76.06044545352904   -2.40531e-05   4.52253e-06 DIIS
   @DF-RHF iter   6:   -76.06044741871999   -1.96519e-06   1.00587e-06 DIIS
   @DF-RHF iter   7:   -76.06044752683002   -1.08110e-07   1.89650e-07 DIIS
   @DF-RHF iter   8:   -76.06044753023716   -3.40714e-09   3.15032e-08 DIIS
   @DF-RHF iter   9:   -76.06044753031152   -7.43654e-11   7.83390e-09 DIIS
  Energy and wave function converged.


  ==> Post-Iterations <==

    Orbital Energies [Eh]
    ---------------------

    Doubly Occupied:                                                      

       1A    -20.565731     2A     -1.350645     3A     -0.724221  
       4A     -0.577780     5A     -0.509226  

    Virtual:                                                              

       6A      0.022428     7A      0.034845     8A      0.047318  
       9A      0.050786    10A      0.057256    11A      0.076989  
      12A      0.102467    13A      0.112377    14A      0.113682  
      15A      0.120760    16A      0.130963    17A      0.137153  
      18A      0.157207    19A      0.173033    20A      0.179896  
      21A      0.185216    22A      0.205722    23A      0.227747  
      24A      0.262530    25A      0.266813    26A      0.272768  
      27A      0.283267    28A      0.292568    29A      0.297850  
      30A      0.309097    31A      0.313116    32A      0.316340  
      33A      0.320426    34A      0.329174    35A      0.354677  
      36A      0.365679    37A      0.383128    38A      0.388687  
      39A      0.401879    40A      0.408371    41A      0.413733  
      42A      0.436474    43A      0.444551    44A      0.455501  
      45A      0.470741    46A      0.486286    47A      0.506012  
      48A      0.515538    49A      0.525244    50A      0.555262  
      51A      0.577781    52A      0.590199    53A      0.601464  
      54A      0.623943    55A      0.630986    56A      0.656362  
      57A      0.662317    58A      0.674287    59A      0.683644  
      60A      0.700164    61A      0.711405    62A      0.733944  
      63A      0.752420    64A      0.778671    65A      0.805220  
      66A      0.847492    67A      0.876391    68A      0.901213  
      69A      0.921240    70A      0.938852    71A      0.939704  
      72A      0.961301    73A      0.962358    74A      0.972203  
      75A      1.003483    76A      1.020522    77A      1.031007  
      78A      1.036287    79A      1.051326    80A      1.064912  
      81A      1.070728    82A      1.073349    83A      1.081606  
      84A      1.096344    85A      1.108909    86A      1.123289  
      87A      1.130440    88A      1.135065    89A      1.155505  
      90A      1.159034    91A      1.168812    92A      1.189697  
      93A      1.203335    94A      1.209319    95A      1.228826  
      96A      1.245814    97A      1.254699    98A      1.263080  
      99A      1.296861   100A      1.317232   101A      1.355456  
     102A      1.379065   103A      1.381679   104A      1.391311  
     105A      1.407312   106A      1.414343   107A      1.437236  
     108A      1.473345   109A      1.503969   110A      1.513932  
     111A      1.532048   112A      1.545449   113A      1.555120  
     114A      1.568053   115A      1.570873   116A      1.593378  
     117A      1.605611   118A      1.618108   119A      1.680174  
     120A      1.743895   121A      1.782717   122A      1.819917  
     123A      1.839991   124A      1.899749   125A      1.904743  
     126A      1.944292   127A      1.962053   128A      1.979311  
     129A      2.013924   130A      2.055020   131A      2.074235  
     132A      2.076595   133A      2.111158   134A      2.127485  
     135A      2.135735   136A      2.152113   137A      2.167745  
     138A      2.290754   139A      2.309072   140A      2.327153  
     141A      2.347255   142A      2.382558   143A      2.439689  
     144A      2.443310   145A      2.468839   146A      2.494109  
     147A      2.503003   148A      2.509590   149A      2.516496  
     150A      2.575319   151A      2.697132   152A      2.717664  
     153A      2.721856   154A      2.741481   155A      2.791747  
     156A      2.879982   157A      2.913273   158A      2.967172  
     159A      3.666684   160A      3.736023   161A      3.798191  
     162A      3.914856   163A      3.921132   164A      3.937651  
     165A      3.969180   166A      3.978162   167A      3.988116  
     168A      4.004446   169A      4.041503   170A      4.071628  
     171A      4.082846   172A      4.090434   173A      4.133764  
     174A      4.158161   175A      4.170618   176A      4.206126  
     177A      4.224882   178A      4.228996   179A      4.236512  
     180A      4.247726   181A      4.350545   182A      4.391874  
     183A      4.399673   184A      4.410843   185A      4.430612  
     186A      4.453556   187A      4.461223   188A      4.498063  
     189A      4.507412   190A      4.534368   191A      4.552401  
     192A      4.585672   193A      4.591591   194A      4.684720  
     195A      4.729133   196A      4.738565   197A      4.762405  
     198A      4.784312   199A      4.812355   200A      4.821465  
     201A      4.841096   202A      4.878055   203A      4.881250  
     204A      4.967819   205A      5.083914   206A      5.094647  
     207A      5.136830   208A      5.166163   209A      5.176801  
     210A      5.238978   211A      5.314708   212A      5.332590  
     213A      5.340009   214A      5.348597   215A      5.377712  
     216A      5.473628   217A      5.478131   218A      5.486444  
     219A      5.515919   220A      5.706079   221A      5.723373  
     222A      5.751025   223A      6.031921   224A      6.144003  
     225A      6.150941   226A      6.156759   227A      6.206369  
     228A      6.226391   229A      6.552282   230A      6.662553  
     231A      6.681303   232A      6.738419   233A      6.867706  
     234A      7.133226   235A      7.154433   236A      7.274612  
     237A      7.311286   238A      7.321380   239A      7.387822  
     240A      7.393500   241A      7.578012   242A      7.745064  
     243A      7.761423   244A      7.850152   245A      7.905035  
     246A      7.967984   247A      8.124446   248A      8.157439  
     249A      8.797714   250A     10.226214   251A     15.930186  
     252A     16.153939   253A     28.034108   254A     28.094230  
     255A     28.940060   256A     51.180535   257A    161.012129  

    Final Occupation by Irrep:
              A 
    DOCC [     5 ]

  @DF-RHF Final Energy:   -76.06044753031152

   => Energetics <=

    Nuclear Repulsion Energy =              9.1787426162773453
    One-Electron Energy =                -123.0231706821616484
    Two-Electron Energy =                  37.7839805355727805
    Total Energy =                        -76.0604475303115208

Computation Completed


Properties will be evaluated at   0.000000,  -0.000000,  -0.000000 [a0]

Properties computed using the SCF density matrix

  Nuclear Dipole Moment: [e a0]
     X:    49.8630      Y:    26.3529      Z:    20.7656

  Electronic Dipole Moment: [e a0]
     X:   -49.6058      Y:   -26.3286      Z:   -21.4770

  Dipole Moment: [e a0]
     X:     0.2572      Y:     0.0243      Z:    -0.7114     Total:     0.7569

  Dipole Moment: [D]
     X:     0.6537      Y:     0.0617      Z:    -1.8082     Total:     1.9238


*** tstop() called on node37.bme.utexas.edu at Tue Feb 22 18:08:57 2022
Module time:
	user time   =      22.97 seconds =       0.38 minutes
	system time =       1.51 seconds =       0.03 minutes
	total time  =         13 seconds =       0.22 minutes
Total time:
	user time   =      44.71 seconds =       0.75 minutes
	system time =       3.04 seconds =       0.05 minutes
	total time  =         26 seconds =       0.43 minutes

*** tstart() called on node37.bme.utexas.edu
*** at Tue Feb 22 18:08:57 2022


  //>>>>>>>>>>>>>>>>>>>>>>>>>>>>>>>>>>>//
  //               DFMP2               //
  //<<<<<<<<<<<<<<<<<<<<<<<<<<<<<<<<<<<//

   => Loading Basis Set <=

    Name: (AUG-CC-PVTZ AUX)
    Role: RIFIT
    Keyword: DF_BASIS_MP2
    atoms 1        entry CL         line   742 file /home/bdw2292/miniconda3/envs/amoebamdpoltype/share/psi4/basis/aug-cc-pvtz-ri.gbs 
    atoms 2        entry C          line   148 file /home/bdw2292/miniconda3/envs/amoebamdpoltype/share/psi4/basis/aug-cc-pvtz-ri.gbs 
    atoms 3-5, 7-8 entry H          line    30 file /home/bdw2292/miniconda3/envs/amoebamdpoltype/share/psi4/basis/aug-cc-pvtz-ri.gbs 
    atoms 6        entry O          line   264 file /home/bdw2292/miniconda3/envs/amoebamdpoltype/share/psi4/basis/aug-cc-pvtz-ri.gbs 

	 --------------------------------------------------------
	                          DF-MP2                         
	      2nd-Order Density-Fitted Moller-Plesset Theory     
	              RMP2 Wavefunction,   4 Threads             
	                                                         
	        Rob Parrish, Justin Turney, Andy Simmonett,      
	           Ed Hohenstein, and C. David Sherrill          
	 --------------------------------------------------------

   => Auxiliary Basis Set <=

  Basis Set: (AUG-CC-PVTZ AUX)
    Blend: AUG-CC-PVTZ-RI
    Number of shells: 163
    Number of basis function: 589
    Number of Cartesian functions: 738
    Spherical Harmonics?: true
    Max angular momentum: 4

	 --------------------------------------------------------
	                 NBF =   257, NAUX =   589
	 --------------------------------------------------------
	   CLASS    FOCC     OCC    AOCC    AVIR     VIR    FVIR
	   PAIRS       1       5       4     252     252       0
	 --------------------------------------------------------

	-----------------------------------------------------------
	 ==================> DF-MP2 Energies <==================== 
	-----------------------------------------------------------
	 Reference Energy          =     -76.0604475303115208 [Eh]
	 Singles Energy            =      -0.0000000000000000 [Eh]
	 Same-Spin Energy          =      -0.0651129180474583 [Eh]
	 Opposite-Spin Energy      =      -0.2030702861781707 [Eh]
	 Correlation Energy        =      -0.2681832042256290 [Eh]
	 Total Energy              =     -76.3286307345371569 [Eh]
	-----------------------------------------------------------
	 ================> DF-SCS-MP2 Energies <================== 
	-----------------------------------------------------------
	 SCS Same-Spin Scale       =       0.3333333333333333 [-]
	 SCS Opposite-Spin Scale   =       1.2000000000000000 [-]
	 SCS Same-Spin Energy      =      -0.0217043060158194 [Eh]
	 SCS Opposite-Spin Energy  =      -0.2436843434138048 [Eh]
	 SCS Correlation Energy    =      -0.2653886494296243 [Eh]
	 SCS Total Energy          =     -76.3258361797411453 [Eh]
	-----------------------------------------------------------


*** tstop() called on node37.bme.utexas.edu at Tue Feb 22 18:09:00 2022
Module time:
	user time   =       7.55 seconds =       0.13 minutes
	system time =       0.42 seconds =       0.01 minutes
	total time  =          3 seconds =       0.05 minutes
Total time:
	user time   =      52.26 seconds =       0.87 minutes
	system time =       3.46 seconds =       0.06 minutes
	total time  =         29 seconds =       0.48 minutes

  //>>>>>>>>>>>>>>>>>>>>>>>>>>>>>>>>>>>>//
  // CBS Computation: MP2 / AUG-CC-PVQZ //
  //<<<<<<<<<<<<<<<<<<<<<<<<<<<<<<<<<<<<//

    SCF Algorithm Type (re)set to DF.

*** tstart() called on node37.bme.utexas.edu
*** at Tue Feb 22 18:09:00 2022

   => Loading Basis Set <=

    Name: AUG-CC-PVQZ
    Role: ORBITAL
    Keyword: BASIS
    atoms 1        entry CL         line  1218 file /home/bdw2292/miniconda3/envs/amoebamdpoltype/share/psi4/basis/aug-cc-pvqz.gbs 
    atoms 2        entry C          line   299 file /home/bdw2292/miniconda3/envs/amoebamdpoltype/share/psi4/basis/aug-cc-pvqz.gbs 
    atoms 3-5, 7-8 entry H          line    36 file /home/bdw2292/miniconda3/envs/amoebamdpoltype/share/psi4/basis/aug-cc-pvqz.gbs 
    atoms 6        entry O          line   419 file /home/bdw2292/miniconda3/envs/amoebamdpoltype/share/psi4/basis/aug-cc-pvqz.gbs 


         ---------------------------------------------------------
                                   SCF
               by Justin Turney, Rob Parrish, Andy Simmonett
                          and Daniel G. A. Smith
                              RHF Reference
                        4 Threads,  14305 MiB Core
         ---------------------------------------------------------

  ==> Geometry <==

    Molecular point group: c1
    Full point group: C1

    Geometry (in Angstrom), charge = 0, multiplicity = 1:

       Center              X                  Y                   Z               Mass       
    ------------   -----------------  -----------------  -----------------  -----------------
      Gh(CL)         -0.695819899531    -0.741022895531    -0.849956017477    34.968852682000
      Gh(C)          -1.492354499531     0.023874104469     0.548943782523    12.000000000000
      Gh(H)          -2.530589999531    -0.304433495531     0.597229082523     1.007825032230
      Gh(H)          -0.964185999531    -0.268054595531     1.457274282523     1.007825032230
      Gh(H)          -1.446653699531     1.106569904469     0.430793582523     1.007825032230
         O            2.600445700469     1.390957804469     1.204600182523    15.994914619570
         H            2.317396500469     0.825931804469     0.483222082523     1.007825032230
         H            3.265385200469     1.991738704469     0.868639382523     1.007825032230

  Running in c1 symmetry.

  Rotational constants: A =      0.43982  B =      0.06662  C =      0.05861 [cm^-1]
  Rotational constants: A =  13185.59485  B =   1997.19437  C =   1757.19937 [MHz]
  Nuclear repulsion =    9.178742616277345

  Charge       = 0
  Multiplicity = 1
  Electrons    = 10
  Nalpha       = 5
  Nbeta        = 5

  ==> Algorithm <==

  SCF Algorithm Type is DF.
  DIIS enabled.
  MOM disabled.
  Fractional occupation disabled.
  Guess Type is SAD.
  Energy threshold   = 1.00e-08
  Density threshold  = 1.00e-08
  Integral threshold = 0.00e+00

  ==> Primary Basis <==

  Basis Set: AUG-CC-PVQZ
    Blend: AUG-CC-PVQZ
    Number of shells: 132
    Number of basis function: 474
    Number of Cartesian functions: 594
    Spherical Harmonics?: true
    Max angular momentum: 4

   => Loading Basis Set <=

    Name: (AUG-CC-PVQZ AUX)
    Role: JKFIT
    Keyword: DF_BASIS_SCF
    atoms 1        entry CL         line   904 file /home/bdw2292/miniconda3/envs/amoebamdpoltype/share/psi4/basis/aug-cc-pvqz-jkfit.gbs 
    atoms 2        entry C          line   178 file /home/bdw2292/miniconda3/envs/amoebamdpoltype/share/psi4/basis/aug-cc-pvqz-jkfit.gbs 
    atoms 3-5, 7-8 entry H          line    70 file /home/bdw2292/miniconda3/envs/amoebamdpoltype/share/psi4/basis/aug-cc-pvqz-jkfit.gbs 
    atoms 6        entry O          line   318 file /home/bdw2292/miniconda3/envs/amoebamdpoltype/share/psi4/basis/aug-cc-pvqz-jkfit.gbs 

  ==> Pre-Iterations <==

   -------------------------------------------------------
    Irrep   Nso     Nmo     Nalpha   Nbeta   Ndocc  Nsocc
   -------------------------------------------------------
     A        474     474       0       0       0       0
   -------------------------------------------------------
    Total     474     474       5       5       5       0
   -------------------------------------------------------

  ==> Integral Setup <==

  DFHelper Memory: AOs need 1.342 GiB; user supplied 10.477 GiB. Using in-core AOs.

  ==> MemDFJK: Density-Fitted J/K Matrices <==

    J tasked:                   Yes
    K tasked:                   Yes
    wK tasked:                   No
    OpenMP threads:               4
    Memory [MiB]:             10728
    Algorithm:                 Core
    Schwarz Cutoff:           1E-12
    Mask sparsity (%):      10.1871
    Fitting Condition:        1E-10

   => Auxiliary Basis Set <=

  Basis Set: (AUG-CC-PVQZ AUX)
    Blend: AUG-CC-PVQZ-JKFIT
    Number of shells: 204
    Number of basis function: 848
    Number of Cartesian functions: 1148
    Spherical Harmonics?: true
    Max angular momentum: 5

  Minimum eigenvalue in the overlap matrix is 1.4516393644E-05.
  Using Symmetric Orthogonalization.

  SCF Guess: Superposition of Atomic Densities via on-the-fly atomic UHF.

  ==> Iterations <==

                           Total Energy        Delta E     RMS |[F,P]|

   @DF-RHF iter SAD:   -75.47874034266972   -7.54787e+01   0.00000e+00 
   @DF-RHF iter   1:   -75.98161331898184   -5.02873e-01   9.90705e-04 DIIS
   @DF-RHF iter   2:   -76.03412678649556   -5.25135e-02   6.73504e-04 DIIS
   @DF-RHF iter   3:   -76.06540694320881   -3.12802e-02   4.58762e-05 DIIS
   @DF-RHF iter   4:   -76.06579922001249   -3.92277e-04   1.12176e-05 DIIS
   @DF-RHF iter   5:   -76.06582416990622   -2.49499e-05   2.51780e-06 DIIS
   @DF-RHF iter   6:   -76.06582621717646   -2.04727e-06   5.74875e-07 DIIS
   @DF-RHF iter   7:   -76.06582633649731   -1.19321e-07   1.11865e-07 DIIS
   @DF-RHF iter   8:   -76.06582634051124   -4.01393e-09   1.79247e-08 DIIS
   @DF-RHF iter   9:   -76.06582634059538   -8.41425e-11   4.34406e-09 DIIS
  Energy and wave function converged.


  ==> Post-Iterations <==

    Orbital Energies [Eh]
    ---------------------

    Doubly Occupied:                                                      

       1A    -20.563265     2A     -1.349914     3A     -0.724182  
       4A     -0.577831     5A     -0.509351  

    Virtual:                                                              

       6A      0.019887     7A      0.031682     8A      0.042381  
       9A      0.045645    10A      0.052123    11A      0.068667  
      12A      0.090522    13A      0.095813    14A      0.096842  
      15A      0.102943    16A      0.115752    17A      0.116645  
      18A      0.135445    19A      0.148228    20A      0.154303  
      21A      0.157940    22A      0.175861    23A      0.189018  
      24A      0.216364    25A      0.222373    26A      0.227010  
      27A      0.238620    28A      0.240811    29A      0.247164  
      30A      0.255056    31A      0.257841    32A      0.263226  
      33A      0.269903    34A      0.277561    35A      0.283891  
      36A      0.296426    37A      0.297124    38A      0.317729  
      39A      0.322594    40A      0.332121    41A      0.336189  
      42A      0.352043    43A      0.360070    44A      0.368676  
      45A      0.383235    46A      0.389655    47A      0.399587  
      48A      0.410177    49A      0.417692    50A      0.422700  
      51A      0.431015    52A      0.457976    53A      0.475396  
      54A      0.494428    55A      0.501709    56A      0.513697  
      57A      0.519388    58A      0.527874    59A      0.543810  
      60A      0.548375    61A      0.561096    62A      0.570464  
      63A      0.580388    64A      0.594851    65A      0.622576  
      66A      0.638966    67A      0.651808    68A      0.663101  
      69A      0.675746    70A      0.686831    71A      0.688078  
      72A      0.695792    73A      0.712808    74A      0.718051  
      75A      0.730464    76A      0.734310    77A      0.745538  
      78A      0.760479    79A      0.769809    80A      0.774303  
      81A      0.791459    82A      0.799019    83A      0.801788  
      84A      0.815327    85A      0.823697    86A      0.844047  
      87A      0.848176    88A      0.858631    89A      0.869748  
      90A      0.881770    91A      0.888841    92A      0.900811  
      93A      0.907445    94A      0.918448    95A      0.927629  
      96A      0.945675    97A      0.962919    98A      0.965526  
      99A      0.990844   100A      1.003831   101A      1.009304  
     102A      1.018978   103A      1.020575   104A      1.034072  
     105A      1.047240   106A      1.060670   107A      1.074522  
     108A      1.079552   109A      1.088796   110A      1.095071  
     111A      1.102020   112A      1.119871   113A      1.132887  
     114A      1.160610   115A      1.167876   116A      1.180673  
     117A      1.191216   118A      1.208104   119A      1.221531  
     120A      1.255955   121A      1.277026   122A      1.317446  
     123A      1.343454   124A      1.361449   125A      1.395749  
     126A      1.430243   127A      1.447619   128A      1.456751  
     129A      1.479128   130A      1.484367   131A      1.512783  
     132A      1.527768   133A      1.536526   134A      1.539785  
     135A      1.550734   136A      1.578118   137A      1.595427  
     138A      1.602008   139A      1.613941   140A      1.620378  
     141A      1.640787   142A      1.651980   143A      1.661338  
     144A      1.665769   145A      1.688201   146A      1.702944  
     147A      1.716762   148A      1.720745   149A      1.747134  
     150A      1.760896   151A      1.770969   152A      1.781095  
     153A      1.798035   154A      1.816920   155A      1.820397  
     156A      1.831844   157A      1.844897   158A      1.863764  
     159A      1.866806   160A      1.894892   161A      1.896721  
     162A      1.902521   163A      1.916304   164A      1.917071  
     165A      1.928382   166A      1.940736   167A      1.952841  
     168A      1.960608   169A      1.973607   170A      1.992637  
     171A      2.014191   172A      2.024171   173A      2.036691  
     174A      2.048443   175A      2.052043   176A      2.062963  
     177A      2.073513   178A      2.085437   179A      2.111249  
     180A      2.118572   181A      2.126161   182A      2.150712  
     183A      2.164085   184A      2.184126   185A      2.205449  
     186A      2.209848   187A      2.235162   188A      2.242370  
     189A      2.257691   190A      2.262894   191A      2.266896  
     192A      2.277509   193A      2.289419   194A      2.305950  
     195A      2.329446   196A      2.364186   197A      2.374459  
     198A      2.399375   199A      2.426484   200A      2.475872  
     201A      2.490583   202A      2.499350   203A      2.507311  
     204A      2.526530   205A      2.533111   206A      2.544497  
     207A      2.564648   208A      2.588937   209A      2.594020  
     210A      2.634144   211A      2.665549   212A      2.696838  
     213A      2.719362   214A      2.735046   215A      2.794578  
     216A      2.801353   217A      2.808900   218A      2.813706  
     219A      2.853656   220A      2.871656   221A      2.924835  
     222A      2.926904   223A      2.952480   224A      2.975711  
     225A      2.993482   226A      3.003985   227A      3.029321  
     228A      3.031535   229A      3.045913   230A      3.081154  
     231A      3.084471   232A      3.091331   233A      3.102027  
     234A      3.112606   235A      3.140888   236A      3.200626  
     237A      3.219192   238A      3.251181   239A      3.265690  
     240A      3.277784   241A      3.317784   242A      3.336126  
     243A      3.359153   244A      3.373295   245A      3.387555  
     246A      3.393848   247A      3.421142   248A      3.436292  
     249A      3.487069   250A      3.491575   251A      3.495947  
     252A      3.570676   253A      3.632219   254A      3.641526  
     255A      3.674912   256A      3.687731   257A      3.746189  
     258A      3.764971   259A      3.769424   260A      3.780623  
     261A      3.790526   262A      3.821360   263A      3.828873  
     264A      3.911354   265A      3.916048   266A      3.971500  
     267A      3.985793   268A      4.061174   269A      4.102419  
     270A      4.111374   271A      4.129494   272A      4.173481  
     273A      4.187924   274A      4.194801   275A      4.211280  
     276A      4.219179   277A      4.232239   278A      4.253801  
     279A      4.299101   280A      4.386516   281A      4.389943  
     282A      4.434871   283A      4.441757   284A      4.482268  
     285A      4.587166   286A      4.595297   287A      4.681787  
     288A      4.714079   289A      4.754272   290A      4.783243  
     291A      4.820588   292A      4.851730   293A      4.864215  
     294A      4.874188   295A      4.889987   296A      4.937387  
     297A      4.951815   298A      5.000580   299A      5.026111  
     300A      5.132848   301A      5.150865   302A      5.243157  
     303A      5.311212   304A      5.344318   305A      5.425683  
     306A      5.444401   307A      5.464455   308A      5.476472  
     309A      5.489317   310A      5.541412   311A      5.569512  
     312A      5.595666   313A      5.643183   314A      5.787394  
     315A      5.801075   316A      5.831595   317A      5.846163  
     318A      5.900117   319A      5.913780   320A      6.007662  
     321A      6.095947   322A      6.267939   323A      6.315862  
     324A      6.338433   325A      6.374501   326A      6.434385  
     327A      6.468859   328A      6.505116   329A      6.579828  
     330A      6.756359   331A      6.761033   332A      6.809813  
     333A      6.851408   334A      6.878387   335A      6.888074  
     336A      6.939082   337A      6.948687   338A      6.963963  
     339A      6.981932   340A      7.024020   341A      7.127712  
     342A      7.139548   343A      7.215484   344A      7.218634  
     345A      7.286500   346A      7.356102   347A      7.370941  
     348A      7.384326   349A      7.624946   350A      7.635145  
     351A      7.652260   352A      7.656388   353A      7.680050  
     354A      7.724324   355A      7.740021   356A      7.799675  
     357A      7.842401   358A      7.846250   359A      7.852195  
     360A      7.863854   361A      7.875534   362A      7.884955  
     363A      7.911220   364A      7.921572   365A      7.934236  
     366A      7.981428   367A      7.990771   368A      8.020219  
     369A      8.023895   370A      8.136628   371A      8.164819  
     372A      8.206285   373A      8.321502   374A      8.325370  
     375A      8.330858   376A      8.374950   377A      8.508700  
     378A      8.546466   379A      8.549124   380A      8.566566  
     381A      8.637158   382A      8.723573   383A      8.776245  
     384A      8.813755   385A      8.836661   386A      8.853819  
     387A      8.867321   388A      8.883787   389A      8.892772  
     390A      8.905098   391A      8.999621   392A      9.081567  
     393A      9.166471   394A      9.202468   395A      9.307536  
     396A      9.310403   397A      9.379651   398A      9.520611  
     399A      9.523320   400A      9.548906   401A      9.585557  
     402A      9.694182   403A      9.699012   404A      9.768432  
     405A      9.775130   406A      9.836298   407A      9.840624  
     408A      9.865704   409A      9.880017   410A      9.985173  
     411A      9.994736   412A     10.028526   413A     10.042712  
     414A     10.055765   415A     10.298923   416A     10.308002  
     417A     10.450131   418A     10.495000   419A     10.498099  
     420A     10.600343   421A     10.615250   422A     10.724024  
     423A     10.730761   424A     10.750457   425A     10.760754  
     426A     10.770790   427A     10.911532   428A     11.012944  
     429A     11.045899   430A     11.116594   431A     11.178398  
     432A     11.191123   433A     11.286638   434A     11.330955  
     435A     11.367597   436A     11.378010   437A     11.457988  
     438A     11.719113   439A     11.813873   440A     11.866089  
     441A     12.015263   442A     12.022647   443A     12.104492  
     444A     12.137127   445A     12.195641   446A     12.233488  
     447A     12.329369   448A     12.549811   449A     12.748559  
     450A     12.878751   451A     12.907029   452A     13.115027  
     453A     13.147829   454A     13.217423   455A     13.553038  
     456A     14.000405   457A     14.069577   458A     14.488945  
     459A     14.797240   460A     14.844986   461A     14.880694  
     462A     15.305401   463A     16.456061   464A     16.969301  
     465A     17.272708   466A     17.289894   467A     17.321580  
     468A     31.098035   469A     31.108298   470A     31.344196  
     471A     42.842138   472A     45.557246   473A     71.607802  
     474A    160.362047  

    Final Occupation by Irrep:
              A 
    DOCC [     5 ]

  @DF-RHF Final Energy:   -76.06582634059538

   => Energetics <=

    Nuclear Repulsion Energy =              9.1787426162773453
    One-Electron Energy =                -123.0400487935596345
    Two-Electron Energy =                  37.7954798366869014
    Total Energy =                        -76.0658263405953790

Computation Completed


Properties will be evaluated at   0.000000,  -0.000000,  -0.000000 [a0]

Properties computed using the SCF density matrix

  Nuclear Dipole Moment: [e a0]
     X:    49.8630      Y:    26.3529      Z:    20.7656

  Electronic Dipole Moment: [e a0]
     X:   -49.6062      Y:   -26.3286      Z:   -21.4759

  Dipole Moment: [e a0]
     X:     0.2568      Y:     0.0242      Z:    -0.7104     Total:     0.7557

  Dipole Moment: [D]
     X:     0.6527      Y:     0.0616      Z:    -1.8056     Total:     1.9209


*** tstop() called on node37.bme.utexas.edu at Tue Feb 22 18:09:33 2022
Module time:
	user time   =      71.28 seconds =       1.19 minutes
	system time =       3.81 seconds =       0.06 minutes
	total time  =         33 seconds =       0.55 minutes
Total time:
	user time   =     123.55 seconds =       2.06 minutes
	system time =       7.27 seconds =       0.12 minutes
	total time  =         62 seconds =       1.03 minutes

*** tstart() called on node37.bme.utexas.edu
*** at Tue Feb 22 18:09:33 2022


  //>>>>>>>>>>>>>>>>>>>>>>>>>>>>>>>>>>>//
  //               DFMP2               //
  //<<<<<<<<<<<<<<<<<<<<<<<<<<<<<<<<<<<//

   => Loading Basis Set <=

    Name: (AUG-CC-PVQZ AUX)
    Role: RIFIT
    Keyword: DF_BASIS_MP2
    atoms 1        entry CL         line   914 file /home/bdw2292/miniconda3/envs/amoebamdpoltype/share/psi4/basis/aug-cc-pvqz-ri.gbs 
    atoms 2        entry C          line   184 file /home/bdw2292/miniconda3/envs/amoebamdpoltype/share/psi4/basis/aug-cc-pvqz-ri.gbs 
    atoms 3-5, 7-8 entry H          line    30 file /home/bdw2292/miniconda3/envs/amoebamdpoltype/share/psi4/basis/aug-cc-pvqz-ri.gbs 
    atoms 6        entry O          line   332 file /home/bdw2292/miniconda3/envs/amoebamdpoltype/share/psi4/basis/aug-cc-pvqz-ri.gbs 

	 --------------------------------------------------------
	                          DF-MP2                         
	      2nd-Order Density-Fitted Moller-Plesset Theory     
	              RMP2 Wavefunction,   4 Threads             
	                                                         
	        Rob Parrish, Justin Turney, Andy Simmonett,      
	           Ed Hohenstein, and C. David Sherrill          
	 --------------------------------------------------------

   => Auxiliary Basis Set <=

  Basis Set: (AUG-CC-PVQZ AUX)
    Blend: AUG-CC-PVQZ-RI
    Number of shells: 216
    Number of basis function: 930
    Number of Cartesian functions: 1267
    Spherical Harmonics?: true
    Max angular momentum: 5

	 --------------------------------------------------------
	                 NBF =   474, NAUX =   930
	 --------------------------------------------------------
	   CLASS    FOCC     OCC    AOCC    AVIR     VIR    FVIR
	   PAIRS       1       5       4     469     469       0
	 --------------------------------------------------------

	-----------------------------------------------------------
	 ==================> DF-MP2 Energies <==================== 
	-----------------------------------------------------------
	 Reference Energy          =     -76.0658263405953790 [Eh]
	 Singles Energy            =      -0.0000000000000000 [Eh]
	 Same-Spin Energy          =      -0.0671782160494887 [Eh]
	 Opposite-Spin Energy      =      -0.2185825182124659 [Eh]
	 Correlation Energy        =      -0.2857607342619546 [Eh]
	 Total Energy              =     -76.3515870748573349 [Eh]
	-----------------------------------------------------------
	 ================> DF-SCS-MP2 Energies <================== 
	-----------------------------------------------------------
	 SCS Same-Spin Scale       =       0.3333333333333333 [-]
	 SCS Opposite-Spin Scale   =       1.2000000000000000 [-]
	 SCS Same-Spin Energy      =      -0.0223927386831629 [Eh]
	 SCS Opposite-Spin Energy  =      -0.2622990218549590 [Eh]
	 SCS Correlation Energy    =      -0.2846917605381220 [Eh]
	 SCS Total Energy          =     -76.3505181011335026 [Eh]
	-----------------------------------------------------------


*** tstop() called on node37.bme.utexas.edu at Tue Feb 22 18:09:45 2022
Module time:
	user time   =      25.74 seconds =       0.43 minutes
	system time =       1.77 seconds =       0.03 minutes
	total time  =         12 seconds =       0.20 minutes
Total time:
	user time   =     149.29 seconds =       2.49 minutes
	system time =       9.04 seconds =       0.15 minutes
	total time  =         74 seconds =       1.23 minutes

  //>>>>>>>>>>>>>>>>>>>>>>>>>>>>>>>>>>>//
  //  CBS Results: mp2/aug-cc-pV[TQ]Z  //
  //<<<<<<<<<<<<<<<<<<<<<<<<<<<<<<<<<<<//


   ==> HF <==

   HI-zeta (4) Energy:               -76.065826340595


   ==> Helgaker 2-point correlated extrapolation for method: MP2 <==

   LO-zeta (3) Energy:               -76.328630734537
   HI-zeta (4) Energy:               -76.351587074857
   Alpha (exponent) Value:             3.000000000000
   Extrapolated Energy:              -76.368338998875

   @Extrapolated MP2/(T,Q):          -76.368338998875



   ==> Helgaker 2-point correlated extrapolation for method: HF <==

   LO-zeta (3) Energy:               -76.060447530312
   HI-zeta (4) Energy:               -76.065826340595
   Alpha (exponent) Value:             3.000000000000
   Extrapolated Energy:              -76.069751418370

   @Extrapolated HF/(T,Q):           -76.069751418370


   ==> Components <==

  ---------------------------------------------------------------------------------------------------------
                          Method / Basis                      Rqd      Energy [Eh]   Variable
  ---------------------------------------------------------------------------------------------------------
                              hf / aug-cc-pvtz                  *     -76.06044753   HF TOTAL ENERGY
                             mp2 / aug-cc-pvtz                  *     -76.32863073   MP2 TOTAL ENERGY
                              hf / aug-cc-pvqz                  *     -76.06582634   HF TOTAL ENERGY
                             mp2 / aug-cc-pvqz                  *     -76.35158707   MP2 TOTAL ENERGY
  ---------------------------------------------------------------------------------------------------------

   ==> Stages <==

  ---------------------------------------------------------------------------------------------------------
      Stage               Method / Basis                       Wt      Energy [Eh]   Scheme
  ---------------------------------------------------------------------------------------------------------
        scf                   hf / aug-cc-pvqz                  1     -76.06582634   xtpl_highest_1
       corl                  mp2 / aug-cc-pv[tq]z               1     -76.36833900   corl_xtpl_helgaker_2
       corl                   hf / aug-cc-pv[tq]z              -1     -76.06975142   corl_xtpl_helgaker_2
  ---------------------------------------------------------------------------------------------------------

   ==> CBS <==

  ---------------------------------------------------------------------------------------------------------
      Stage               Method / Basis                               Energy [Eh]   Scheme
  ---------------------------------------------------------------------------------------------------------
        scf                   hf / aug-cc-pvqz                        -76.06582634   xtpl_highest_1
       corl                  mp2 / aug-cc-pv[tq]z                      -0.29858758   corl_xtpl_helgaker_2
      total                  CBS                                      -76.36441392   
  ---------------------------------------------------------------------------------------------------------
   => Loading Basis Set <=

    Name: DEF2-SVP
    Role: ORBITAL
    Keyword: BASIS
    atoms 1        entry CL         line   356 file /home/bdw2292/miniconda3/envs/amoebamdpoltype/share/psi4/basis/def2-svp.gbs 
    atoms 2        entry C          line    90 file /home/bdw2292/miniconda3/envs/amoebamdpoltype/share/psi4/basis/def2-svp.gbs 
    atoms 3-5, 7-8 entry H          line    15 file /home/bdw2292/miniconda3/envs/amoebamdpoltype/share/psi4/basis/def2-svp.gbs 
    atoms 6        entry O          line   130 file /home/bdw2292/miniconda3/envs/amoebamdpoltype/share/psi4/basis/def2-svp.gbs 


       N-Body: Complex Energy (fragments = (2,), basis = (1, 2):   -76.36441392110007)

       N-Body: Computing complex (3/4) with fragments (1,) in the basis of fragments (1, 2).


  //>>>>>>>>>>>>>>>>>>>>>>>>>>>>>>>>>>>//
  //   CBS Setup: mp2/aug-cc-pV[TQ]Z   //
  //<<<<<<<<<<<<<<<<<<<<<<<<<<<<<<<<<<<//

    Naive listing of computations required.
             hf / aug-cc-pvqz              for  HF TOTAL ENERGY
            mp2 / aug-cc-pvtz              for  MP2 TOTAL ENERGY
            mp2 / aug-cc-pvqz              for  MP2 TOTAL ENERGY
             hf / aug-cc-pvtz              for  HF TOTAL ENERGY
             hf / aug-cc-pvqz              for  HF TOTAL ENERGY

    Enlightened listing of computations required.
            mp2 / aug-cc-pvtz              for  MP2 TOTAL ENERGY
            mp2 / aug-cc-pvqz              for  MP2 TOTAL ENERGY

    Full listing of computations to be obtained (required and bonus).
             hf / aug-cc-pvtz              for  HF TOTAL ENERGY
            mp2 / aug-cc-pvtz              for  MP2 TOTAL ENERGY
             hf / aug-cc-pvqz              for  HF TOTAL ENERGY
            mp2 / aug-cc-pvqz              for  MP2 TOTAL ENERGY

  //>>>>>>>>>>>>>>>>>>>>>>>>>>>>>>>>>>>>//
  // CBS Computation: MP2 / AUG-CC-PVTZ //
  //<<<<<<<<<<<<<<<<<<<<<<<<<<<<<<<<<<<<//

    SCF Algorithm Type (re)set to DF.

*** tstart() called on node37.bme.utexas.edu
*** at Tue Feb 22 18:09:46 2022

   => Loading Basis Set <=

    Name: AUG-CC-PVTZ
    Role: ORBITAL
    Keyword: BASIS
    atoms 1        entry CL         line   984 file /home/bdw2292/miniconda3/envs/amoebamdpoltype/share/psi4/basis/aug-cc-pvtz.gbs 
    atoms 2        entry C          line   235 file /home/bdw2292/miniconda3/envs/amoebamdpoltype/share/psi4/basis/aug-cc-pvtz.gbs 
    atoms 3-5, 7-8 entry H          line    36 file /home/bdw2292/miniconda3/envs/amoebamdpoltype/share/psi4/basis/aug-cc-pvtz.gbs 
    atoms 6        entry O          line   327 file /home/bdw2292/miniconda3/envs/amoebamdpoltype/share/psi4/basis/aug-cc-pvtz.gbs 


         ---------------------------------------------------------
                                   SCF
               by Justin Turney, Rob Parrish, Andy Simmonett
                          and Daniel G. A. Smith
                              RHF Reference
                        4 Threads,  14305 MiB Core
         ---------------------------------------------------------

  ==> Geometry <==

    Molecular point group: c1
    Full point group: C1

    Geometry (in Angstrom), charge = 0, multiplicity = 1:

       Center              X                  Y                   Z               Mass       
    ------------   -----------------  -----------------  -----------------  -----------------
         CL          -0.695819899531    -0.741022895531    -0.849956017477    34.968852682000
         C           -1.492354499531     0.023874104469     0.548943782523    12.000000000000
         H           -2.530589999531    -0.304433495531     0.597229082523     1.007825032230
         H           -0.964185999531    -0.268054595531     1.457274282523     1.007825032230
         H           -1.446653699531     1.106569904469     0.430793582523     1.007825032230
      Gh(O)           2.600445700469     1.390957804469     1.204600182523    15.994914619570
      Gh(H)           2.317396500469     0.825931804469     0.483222082523     1.007825032230
[...]
      28A      0.115120    29A      0.118921    30A      0.129009  
      31A      0.140496    32A      0.154520    33A      0.155717  
      34A      0.162280    35A      0.172514    36A      0.192765  
      37A      0.207431    38A      0.215274    39A      0.226525  
      40A      0.230073    41A      0.240095    42A      0.244701  
      43A      0.249085    44A      0.255065    45A      0.265522  
      46A      0.274573    47A      0.276923    48A      0.290568  
      49A      0.297907    50A      0.311741    51A      0.323246  
      52A      0.331614    53A      0.336900    54A      0.339729  
      55A      0.345373    56A      0.353658    57A      0.361120  
      58A      0.371892    59A      0.375453    60A      0.386135  
      61A      0.387599    62A      0.398057    63A      0.412301  
      64A      0.421050    65A      0.439644    66A      0.473599  
      67A      0.487903    68A      0.509304    69A      0.513194  
      70A      0.548909    71A      0.553451    72A      0.557081  
      73A      0.571337    74A      0.576115    75A      0.586702  
      76A      0.590668    77A      0.600244    78A      0.612208  
      79A      0.618922    80A      0.630956    81A      0.646323  
      82A      0.652774    83A      0.663842    84A      0.672001  
      85A      0.679590    86A      0.686418    87A      0.695728  
      88A      0.701268    89A      0.705656    90A      0.716497  
      91A      0.725383    92A      0.730684    93A      0.733071  
      94A      0.745197    95A      0.753864    96A      0.765973  
      97A      0.768058    98A      0.773647    99A      0.789325  
     100A      0.794387   101A      0.802568   102A      0.820083  
     103A      0.832132   104A      0.836621   105A      0.849125  
     106A      0.868163   107A      0.880645   108A      0.887054  
     109A      0.898314   110A      0.912950   111A      0.916120  
     112A      0.941818   113A      0.948376   114A      0.951852  
     115A      0.975785   116A      0.984843   117A      1.002523  
     118A      1.015800   119A      1.035903   120A      1.067452  
     121A      1.071439   122A      1.093318   123A      1.119154  
     124A      1.155692   125A      1.165077   126A      1.168839  
     127A      1.175261   128A      1.179445   129A      1.182600  
     130A      1.188313   131A      1.206115   132A      1.239262  
     133A      1.245432   134A      1.251896   135A      1.260642  
     136A      1.277363   137A      1.293492   138A      1.306060  
     139A      1.321765   140A      1.391031   141A      1.400640  
     142A      1.424038   143A      1.447867   144A      1.464041  
     145A      1.494911   146A      1.502301   147A      1.510476  
     148A      1.525061   149A      1.543014   150A      1.558308  
     151A      1.576679   152A      1.595685   153A      1.631956  
     154A      1.643435   155A      1.645855   156A      1.657261  
     157A      1.664938   158A      1.679282   159A      1.689226  
     160A      1.710985   161A      1.742889   162A      1.744358  
     163A      1.748035   164A      1.754687   165A      1.769344  
     166A      1.780014   167A      1.789920   168A      1.796380  
     169A      1.806696   170A      1.814360   171A      1.819959  
     172A      1.826533   173A      1.838789   174A      1.851884  
     175A      1.864427   176A      1.871966   177A      1.887464  
     178A      1.893291   179A      1.910646   180A      1.916450  
     181A      1.931046   182A      1.936180   183A      1.949862  
     184A      1.965952   185A      1.978789   186A      1.982460  
     187A      1.990750   188A      1.997389   189A      2.003606  
     190A      2.017380   191A      2.027214   192A      2.036205  
     193A      2.037849   194A      2.068663   195A      2.074887  
     196A      2.092490   197A      2.102807   198A      2.104601  
     199A      2.120508   200A      2.129210   201A      2.143085  
     202A      2.170122   203A      2.175661   204A      2.180214  
     205A      2.209767   206A      2.221704   207A      2.230853  
     208A      2.235034   209A      2.238584   210A      2.262521  
     211A      2.267238   212A      2.273799   213A      2.299048  
     214A      2.304513   215A      2.328375   216A      2.342599  
     217A      2.357176   218A      2.378971   219A      2.386454  
     220A      2.418568   221A      2.438512   222A      2.444098  
     223A      2.455913   224A      2.509858   225A      2.517491  
     226A      2.534692   227A      2.554978   228A      2.649678  
     229A      2.657687   230A      2.670517   231A      2.671887  
     232A      2.684415   233A      2.727630   234A      2.767980  
     235A      2.774577   236A      2.790471   237A      2.803779  
     238A      2.844699   239A      2.862771   240A      2.897821  
     241A      2.950364   242A      2.963379   243A      2.969899  
     244A      2.985881   245A      3.021310   246A      3.026725  
     247A      3.045871   248A      3.067068   249A      3.087215  
     250A      3.093945   251A      3.103665   252A      3.119722  
     253A      3.143070   254A      3.157806   255A      3.273011  
     256A      3.279779   257A      3.303993   258A      3.331226  
     259A      3.344816   260A      3.362999   261A      3.433117  
     262A      3.459677   263A      3.565457   264A      3.592779  
     265A      3.594123   266A      3.625850   267A      3.666512  
     268A      3.672301   269A      3.688759   270A      3.738959  
     271A      3.764594   272A      3.780676   273A      3.796836  
     274A      3.817377   275A      3.836176   276A      3.846619  
     277A      3.866757   278A      3.885306   279A      3.912659  
     280A      3.970856   281A      4.055036   282A      4.089174  
     283A      4.106020   284A      4.118367   285A      4.149462  
     286A      4.173140   287A      4.179160   288A      4.188841  
     289A      4.197596   290A      4.209388   291A      4.220392  
     292A      4.258047   293A      4.265131   294A      4.295456  
     295A      4.384631   296A      4.389384   297A      4.416419  
     298A      4.468662   299A      4.505615   300A      4.508630  
     301A      4.529656   302A      4.591299   303A      4.657584  
     304A      4.670194   305A      4.683730   306A      4.701932  
     307A      4.720460   308A      4.762439   309A      4.766367  
     310A      4.773482   311A      4.787201   312A      4.797170  
     313A      4.821005   314A      4.825893   315A      4.842711  
     316A      4.850252   317A      4.867881   318A      4.876297  
     319A      4.884726   320A      4.904100   321A      4.933420  
     322A      4.998271   323A      5.020134   324A      5.022479  
     325A      5.037346   326A      5.066927   327A      5.135511  
     328A      5.184655   329A      5.195760   330A      5.323409  
     331A      5.352980   332A      5.369758   333A      5.388084  
     334A      5.542749   335A      5.566050   336A      5.589838  
     337A      5.901429   338A      5.915010   339A      6.100429  
     340A      6.118681   341A      6.128460   342A      6.211402  
     343A      6.261221   344A      6.279415   345A      6.373824  
     346A      6.386950   347A      6.465517   348A      6.608824  
     349A      6.614494   350A      6.701629   351A      6.705759  
     352A      6.741411   353A      6.805830   354A      6.821472  
     355A      6.838382   356A      6.857803   357A      6.884339  
     358A      6.905044   359A      6.952490   360A      6.956192  
     361A      6.969137   362A      6.972815   363A      6.979426  
     364A      6.982025   365A      7.089740   366A      7.115558  
     367A      7.153087   368A      7.311534   369A      7.331232  
     370A      7.345492   371A      7.468732   372A      7.582996  
     373A      7.603389   374A      7.621824   375A      7.694956  
     376A      7.698317   377A      7.726725   378A      7.790029  
     379A      7.802676   380A      7.848892   381A      7.851484  
     382A      7.878542   383A      7.883456   384A      7.904835  
     385A      7.931353   386A      7.937240   387A      7.990094  
     388A      8.024344   389A      8.208057   390A      8.277695  
     391A      8.290041   392A      8.373142   393A      8.396975  
     394A      8.409519   395A      8.422575   396A      8.516403  
     397A      8.566893   398A      8.607464   399A      8.612501  
     400A      8.642742   401A      8.725710   402A      8.777737  
     403A      8.817830   404A      8.868743   405A      8.874108  
     406A      8.891583   407A      8.937925   408A      9.001377  
     409A      9.019218   410A      9.082054   411A      9.163368  
     412A      9.168150   413A      9.203896   414A      9.213352  
     415A      9.236908   416A      9.427557   417A      9.440503  
     418A      9.549173   419A      9.574407   420A      9.576712  
     421A      9.587391   422A      9.684465   423A      9.685132  
     424A      9.867432   425A      9.949195   426A      9.984566  
     427A      9.992547   428A     10.000673   429A     10.029041  
     430A     10.138616   431A     10.158065   432A     10.342914  
     433A     10.346310   434A     10.389907   435A     10.453048  
     436A     10.497160   437A     10.732845   438A     10.791907  
     439A     10.813753   440A     10.858615   441A     10.968527  
     442A     10.979917   443A     11.016401   444A     11.047418  
     445A     11.122014   446A     11.287838   447A     11.378689  
     448A     11.445587   449A     11.458718   450A     11.720432  
     451A     11.815019   452A     11.868175   453A     12.021869  
     454A     12.195962   455A     12.234086   456A     12.551002  
     457A     12.749933   458A     12.880386   459A     12.908578  
     460A     13.129565   461A     13.167225   462A     13.218944  
     463A     13.328162   464A     14.002275   465A     14.071029  
     466A     14.490539   467A     14.846483   468A     14.882192  
     469A     15.307101   470A     16.971711   471A     17.299401  
     472A     26.264173   473A     28.641253   474A     45.558819  

    Final Occupation by Irrep:
              A 
    DOCC [    18 ]

  @DF-RHF Final Energy:  -575.22217174129287

   => Energetics <=

    Nuclear Repulsion Energy =             91.7602544674781342
    One-Electron Energy =                -975.6562584991945641
    Two-Electron Energy =                 308.6738322904234906
    Total Energy =                       -575.2221717412928683

Computation Completed


Properties will be evaluated at   0.000000,  -0.000000,  -0.000000 [a0]

Properties computed using the SCF density matrix

  Nuclear Dipole Moment: [e a0]
     X:     1.2507      Y:     3.8272      Z:     4.3811

  Electronic Dipole Moment: [e a0]
     X:    -1.3983      Y:    -3.4457      Z:    -4.4185

  Dipole Moment: [e a0]
     X:    -0.1476      Y:     0.3815      Z:    -0.0374     Total:     0.4108

  Dipole Moment: [D]
     X:    -0.3751      Y:     0.9698      Z:    -0.0951     Total:     1.0441


*** tstop() called on node37.bme.utexas.edu at Tue Feb 22 18:12:12 2022
Module time:
	user time   =      85.06 seconds =       1.42 minutes
	system time =       4.87 seconds =       0.08 minutes
	total time  =         35 seconds =       0.58 minutes
Total time:
	user time   =     474.57 seconds =       7.91 minutes
	system time =      27.57 seconds =       0.46 minutes
	total time  =        221 seconds =       3.68 minutes

*** tstart() called on node37.bme.utexas.edu
*** at Tue Feb 22 18:12:12 2022


  //>>>>>>>>>>>>>>>>>>>>>>>>>>>>>>>>>>>//
  //               DFMP2               //
  //<<<<<<<<<<<<<<<<<<<<<<<<<<<<<<<<<<<//

   => Loading Basis Set <=

    Name: (AUG-CC-PVQZ AUX)
    Role: RIFIT
    Keyword: DF_BASIS_MP2
    atoms 1        entry CL         line   914 file /home/bdw2292/miniconda3/envs/amoebamdpoltype/share/psi4/basis/aug-cc-pvqz-ri.gbs 
    atoms 2        entry C          line   184 file /home/bdw2292/miniconda3/envs/amoebamdpoltype/share/psi4/basis/aug-cc-pvqz-ri.gbs 
    atoms 3-5, 7-8 entry H          line    30 file /home/bdw2292/miniconda3/envs/amoebamdpoltype/share/psi4/basis/aug-cc-pvqz-ri.gbs 
    atoms 6        entry O          line   332 file /home/bdw2292/miniconda3/envs/amoebamdpoltype/share/psi4/basis/aug-cc-pvqz-ri.gbs 

	 --------------------------------------------------------
	                          DF-MP2                         
	      2nd-Order Density-Fitted Moller-Plesset Theory     
	              RMP2 Wavefunction,   4 Threads             
	                                                         
	        Rob Parrish, Justin Turney, Andy Simmonett,      
	           Ed Hohenstein, and C. David Sherrill          
	 --------------------------------------------------------

   => Auxiliary Basis Set <=

  Basis Set: (AUG-CC-PVQZ AUX)
    Blend: AUG-CC-PVQZ-RI
    Number of shells: 216
    Number of basis function: 930
    Number of Cartesian functions: 1267
    Spherical Harmonics?: true
    Max angular momentum: 5

	 --------------------------------------------------------
	                 NBF =   474, NAUX =   930
	 --------------------------------------------------------
	   CLASS    FOCC     OCC    AOCC    AVIR     VIR    FVIR
	   PAIRS       7      18      11     456     456       0
	 --------------------------------------------------------

	-----------------------------------------------------------
	 ==================> DF-MP2 Energies <==================== 
	-----------------------------------------------------------
	 Reference Energy          =    -575.2221717412928683 [Eh]
	 Singles Energy            =      -0.0000000000000000 [Eh]
	 Same-Spin Energy          =      -0.1556536876005378 [Eh]
	 Opposite-Spin Energy      =      -0.5377473296071131 [Eh]
	 Correlation Energy        =      -0.6934010172076510 [Eh]
	 Total Energy              =    -575.9155727585005025 [Eh]
	-----------------------------------------------------------
	 ================> DF-SCS-MP2 Energies <================== 
	-----------------------------------------------------------
	 SCS Same-Spin Scale       =       0.3333333333333333 [-]
	 SCS Opposite-Spin Scale   =       1.2000000000000000 [-]
	 SCS Same-Spin Energy      =      -0.0518845625335126 [Eh]
	 SCS Opposite-Spin Energy  =      -0.6452967955285357 [Eh]
	 SCS Correlation Energy    =      -0.6971813580620483 [Eh]
	 SCS Total Energy          =    -575.9193530993549075 [Eh]
	-----------------------------------------------------------


*** tstop() called on node37.bme.utexas.edu at Tue Feb 22 18:12:29 2022
Module time:
	user time   =      33.53 seconds =       0.56 minutes
	system time =       2.24 seconds =       0.04 minutes
	total time  =         17 seconds =       0.28 minutes
Total time:
	user time   =     508.10 seconds =       8.47 minutes
	system time =      29.81 seconds =       0.50 minutes
	total time  =        238 seconds =       3.97 minutes

  //>>>>>>>>>>>>>>>>>>>>>>>>>>>>>>>>>>>//
  //  CBS Results: mp2/aug-cc-pV[TQ]Z  //
  //<<<<<<<<<<<<<<<<<<<<<<<<<<<<<<<<<<<//


   ==> HF <==

   HI-zeta (4) Energy:               -575.222171741293


   ==> Helgaker 2-point correlated extrapolation for method: MP2 <==

   LO-zeta (3) Energy:               -575.859878993144
   HI-zeta (4) Energy:               -575.915572758501
   Alpha (exponent) Value:             3.000000000000
   Extrapolated Energy:              -575.956214154841

   @Extrapolated MP2/(T,Q):          -575.956214154841



   ==> Helgaker 2-point correlated extrapolation for method: HF <==

   LO-zeta (3) Energy:               -575.210740509653
   HI-zeta (4) Energy:               -575.222171741293
   Alpha (exponent) Value:             3.000000000000
   Extrapolated Energy:              -575.230513450868

   @Extrapolated HF/(T,Q):           -575.230513450868


   ==> Components <==

  ---------------------------------------------------------------------------------------------------------
                          Method / Basis                      Rqd      Energy [Eh]   Variable
  ---------------------------------------------------------------------------------------------------------
                              hf / aug-cc-pvtz                  *    -575.21074051   HF TOTAL ENERGY
                             mp2 / aug-cc-pvtz                  *    -575.85987899   MP2 TOTAL ENERGY
                              hf / aug-cc-pvqz                  *    -575.22217174   HF TOTAL ENERGY
                             mp2 / aug-cc-pvqz                  *    -575.91557276   MP2 TOTAL ENERGY
  ---------------------------------------------------------------------------------------------------------

   ==> Stages <==

  ---------------------------------------------------------------------------------------------------------
      Stage               Method / Basis                       Wt      Energy [Eh]   Scheme
  ---------------------------------------------------------------------------------------------------------
        scf                   hf / aug-cc-pvqz                  1    -575.22217174   xtpl_highest_1
       corl                  mp2 / aug-cc-pv[tq]z               1    -575.95621415   corl_xtpl_helgaker_2
       corl                   hf / aug-cc-pv[tq]z              -1    -575.23051345   corl_xtpl_helgaker_2
  ---------------------------------------------------------------------------------------------------------

   ==> CBS <==

  ---------------------------------------------------------------------------------------------------------
      Stage               Method / Basis                               Energy [Eh]   Scheme
  ---------------------------------------------------------------------------------------------------------
        scf                   hf / aug-cc-pvqz                       -575.22217174   xtpl_highest_1
       corl                  mp2 / aug-cc-pv[tq]z                      -0.72570070   corl_xtpl_helgaker_2
      total                  CBS                                     -575.94787245   
  ---------------------------------------------------------------------------------------------------------
   => Loading Basis Set <=

    Name: DEF2-SVP
    Role: ORBITAL
    Keyword: BASIS
    atoms 1        entry CL         line   356 file /home/bdw2292/miniconda3/envs/amoebamdpoltype/share/psi4/basis/def2-svp.gbs 
    atoms 2        entry C          line    90 file /home/bdw2292/miniconda3/envs/amoebamdpoltype/share/psi4/basis/def2-svp.gbs 
    atoms 3-5, 7-8 entry H          line    15 file /home/bdw2292/miniconda3/envs/amoebamdpoltype/share/psi4/basis/def2-svp.gbs 
    atoms 6        entry O          line   130 file /home/bdw2292/miniconda3/envs/amoebamdpoltype/share/psi4/basis/def2-svp.gbs 


       N-Body: Complex Energy (fragments = (1, 2), basis = (1, 2):  -575.94787244526617)

   ==> N-Body: Counterpoise Corrected (CP) energies <==

   n-Body     Total Energy [Eh]       I.E. [kcal/mol]      Delta [kcal/mol]
        1     -575.945684149862        0.000000000000        0.000000000000
        2     -575.947850197066       -1.359215140811       -1.359215140811

   => Loading Basis Set <=

    Name: DEF2-SVP
    Role: ORBITAL
    Keyword: BASIS
    atoms 1        entry CL         line   356 file /home/bdw2292/miniconda3/envs/amoebamdpoltype/share/psi4/basis/def2-svp.gbs 
    atoms 2        entry C          line    90 file /home/bdw2292/miniconda3/envs/amoebamdpoltype/share/psi4/basis/def2-svp.gbs 
    atoms 3-5, 7-8 entry H          line    15 file /home/bdw2292/miniconda3/envs/amoebamdpoltype/share/psi4/basis/def2-svp.gbs 
    atoms 6        entry O          line   130 file /home/bdw2292/miniconda3/envs/amoebamdpoltype/share/psi4/basis/def2-svp.gbs 

CP Energy =  -0.002166
    Psi4 stopped on: Tuesday, 22 February 2022 06:12PM
    Psi4 wall time for execution: 0:04:00.02

*** Psi4 exiting successfully. Buy a developer a beer!
