
    -----------------------------------------------------------------------
          Psi4: An Open-Source Ab Initio Electronic Structure Package
                               Psi4 1.3.2 release

                         Git: Rev {HEAD} ecbda83 


    R. M. Parrish, L. A. Burns, D. G. A. Smith, A. C. Simmonett,
    A. E. DePrince III, E. G. Hohenstein, U. Bozkaya, A. Yu. Sokolov,
    R. Di Remigio, R. M. Richard, J. F. Gonthier, A. M. James,
    H. R. McAlexander, A. Kumar, M. Saitow, X. Wang, B. P. Pritchard,
    P. Verma, H. F. Schaefer III, K. Patkowski, R. A. King, E. F. Valeev,
    F. A. Evangelista, J. M. Turney, T. D. Crawford, and C. D. Sherrill,
    J. Chem. Theory Comput. 13(7) pp 3185--3197 (2017).
    (doi: 10.1021/acs.jctc.7b00174)


                         Additional Contributions by
    P. Kraus, H. Kruse, M. H. Lechner, M. C. Schieber, R. A. Shaw,
    A. Alenaizan, R. Galvelis, Z. L. Glick, S. Lehtola, and J. P. Misiewicz

    -----------------------------------------------------------------------


    Psi4 started on: Tuesday, 22 February 2022 05:47PM

    Process ID: 25618
    Host:       node37.bme.utexas.edu
    PSIDATADIR: /home/bdw2292/miniconda3/envs/amoebamdpoltype/share/psi4
    Memory:     500.0 MiB
    Threads:    1
    
  ==> Input File <==

--------------------------------------------------------------------------
molecule { 
0 1
 Cl                  0.2237841     0.8067207    -0.4751478
  C                 -1.3125540     0.0215805    -0.0346030
  H                 -1.4593911    -0.8497931    -0.6731564
  H                 -1.2619076    -0.2891343     1.0091662
  H                 -2.1297134     0.7295137    -0.1734769
--
0 1
  O                  2.5676194    -1.4444087     0.8338602
  H                  2.0459742    -2.1098576     1.2810244
  H                  1.9699384    -0.7971810     0.4551233
}
memory 15GB
set_num_threads(4)
psi4_io.set_default_path("/scratch/bdw2292/Psi4-CH3Cl")
set maxiter 500
set freeze_core True
set PROPERTIES_ORIGIN ["COM"]
e_dim= energy('mp2/aug-cc-pV[TQ]Z',bsse_type='cp')

psi4.print_out('CP Energy = %10.6f' % (e_dim))
clean()
--------------------------------------------------------------------------

  Memory set to  13.970 GiB by Python driver.
  Threads set to 4 by Python driver.


   ===> N-Body Interaction Abacus <===
        BSSE Treatment:                     cp
        Number of 1-body computations:     4
        Number of 2-body computations:     1

   ==> N-Body: Now computing 1-body complexes <==


       N-Body: Computing complex (1/4) with fragments (2,) in the basis of fragments (2,).


  //>>>>>>>>>>>>>>>>>>>>>>>>>>>>>>>>>>>//
  //   CBS Setup: mp2/aug-cc-pV[TQ]Z   //
  //<<<<<<<<<<<<<<<<<<<<<<<<<<<<<<<<<<<//

    Naive listing of computations required.
             hf / aug-cc-pvqz              for  HF TOTAL ENERGY
            mp2 / aug-cc-pvtz              for  MP2 TOTAL ENERGY
            mp2 / aug-cc-pvqz              for  MP2 TOTAL ENERGY
             hf / aug-cc-pvtz              for  HF TOTAL ENERGY
             hf / aug-cc-pvqz              for  HF TOTAL ENERGY

    Enlightened listing of computations required.
            mp2 / aug-cc-pvtz              for  MP2 TOTAL ENERGY
            mp2 / aug-cc-pvqz              for  MP2 TOTAL ENERGY

    Full listing of computations to be obtained (required and bonus).
             hf / aug-cc-pvtz              for  HF TOTAL ENERGY
            mp2 / aug-cc-pvtz              for  MP2 TOTAL ENERGY
             hf / aug-cc-pvqz              for  HF TOTAL ENERGY
            mp2 / aug-cc-pvqz              for  MP2 TOTAL ENERGY

  //>>>>>>>>>>>>>>>>>>>>>>>>>>>>>>>>>>>>//
  // CBS Computation: MP2 / AUG-CC-PVTZ //
  //<<<<<<<<<<<<<<<<<<<<<<<<<<<<<<<<<<<<//

    SCF Algorithm Type (re)set to DF.

*** tstart() called on node37.bme.utexas.edu
*** at Tue Feb 22 17:47:21 2022

   => Loading Basis Set <=

    Name: AUG-CC-PVTZ
    Role: ORBITAL
    Keyword: BASIS
    atoms 1   entry O          line   327 file /home/bdw2292/miniconda3/envs/amoebamdpoltype/share/psi4/basis/aug-cc-pvtz.gbs 
    atoms 2-3 entry H          line    36 file /home/bdw2292/miniconda3/envs/amoebamdpoltype/share/psi4/basis/aug-cc-pvtz.gbs 


         ---------------------------------------------------------
                                   SCF
               by Justin Turney, Rob Parrish, Andy Simmonett
                          and Daniel G. A. Smith
                              RHF Reference
                        4 Threads,  14305 MiB Core
         ---------------------------------------------------------

  ==> Geometry <==

    Molecular point group: c1
    Full point group: C1

    Geometry (in Angstrom), charge = 0, multiplicity = 1:

       Center              X                  Y                   Z               Mass       
    ------------   -----------------  -----------------  -----------------  -----------------
         O            2.092609544482    -1.474164284831     0.860028923350    15.994914619570
         H            1.570964344482    -2.139613184831     1.307193123350     1.007825032230
         H            1.494928544482    -0.826936584831     0.481292023350     1.007825032230

  Running in c1 symmetry.

  Rotational constants: A =     18.51000  B =      0.13199  C =      0.13106 [cm^-1]
  Rotational constants: A = 554915.92595  B =   3956.94367  C =   3928.93315 [MHz]
  Nuclear repulsion =    9.181428686284532

  Charge       = 0
  Multiplicity = 1
  Electrons    = 10
  Nalpha       = 5
  Nbeta        = 5

  ==> Algorithm <==

  SCF Algorithm Type is DF.
  DIIS enabled.
  MOM disabled.
  Fractional occupation disabled.
  Guess Type is SAD.
  Energy threshold   = 1.00e-08
  Density threshold  = 1.00e-08
  Integral threshold = 0.00e+00

  ==> Primary Basis <==

  Basis Set: AUG-CC-PVTZ
    Blend: AUG-CC-PVTZ
    Number of shells: 32
    Number of basis function: 92
    Number of Cartesian functions: 105
    Spherical Harmonics?: true
    Max angular momentum: 3

   => Loading Basis Set <=

    Name: (AUG-CC-PVTZ AUX)
    Role: JKFIT
    Keyword: DF_BASIS_SCF
    atoms 1   entry O          line   286 file /home/bdw2292/miniconda3/envs/amoebamdpoltype/share/psi4/basis/aug-cc-pvtz-jkfit.gbs 
    atoms 2-3 entry H          line    70 file /home/bdw2292/miniconda3/envs/amoebamdpoltype/share/psi4/basis/aug-cc-pvtz-jkfit.gbs 

  ==> Pre-Iterations <==

   -------------------------------------------------------
    Irrep   Nso     Nmo     Nalpha   Nbeta   Ndocc  Nsocc
   -------------------------------------------------------
     A         92      92       0       0       0       0
   -------------------------------------------------------
    Total      92      92       5       5       5       0
   -------------------------------------------------------

  ==> Integral Setup <==

  DFHelper Memory: AOs need 0.015 GiB; user supplied 10.477 GiB. Using in-core AOs.

  ==> MemDFJK: Density-Fitted J/K Matrices <==

    J tasked:                   Yes
    K tasked:                   Yes
    wK tasked:                   No
    OpenMP threads:               4
    Memory [MiB]:             10728
    Algorithm:                 Core
    Schwarz Cutoff:           1E-12
    Mask sparsity (%):       0.0000
    Fitting Condition:        1E-10

   => Auxiliary Basis Set <=

  Basis Set: (AUG-CC-PVTZ AUX)
    Blend: AUG-CC-PVTZ-JKFIT
    Number of shells: 58
    Number of basis function: 196
    Number of Cartesian functions: 241
    Spherical Harmonics?: true
    Max angular momentum: 4

  Minimum eigenvalue in the overlap matrix is 3.7758855209E-04.
  Using Symmetric Orthogonalization.

  SCF Guess: Superposition of Atomic Densities via on-the-fly atomic UHF.

  ==> Iterations <==

                           Total Energy        Delta E     RMS |[F,P]|

   @DF-RHF iter SAD:   -75.47376344229610   -7.54738e+01   0.00000e+00 
   @DF-RHF iter   1:   -75.97655858527477   -5.02795e-01   5.09380e-03 DIIS
   @DF-RHF iter   2:   -76.02897021427802   -5.24116e-02   3.45292e-03 DIIS
   @DF-RHF iter   3:   -76.06001550460626   -3.10453e-02   2.34507e-04 DIIS
   @DF-RHF iter   4:   -76.06040543401569   -3.89929e-04   5.60163e-05 DIIS
   @DF-RHF iter   5:   -76.06042942776978   -2.39938e-05   1.26138e-05 DIIS
   @DF-RHF iter   6:   -76.06043138782941   -1.96006e-06   2.80686e-06 DIIS
   @DF-RHF iter   7:   -76.06043149579155   -1.07962e-07   5.30033e-07 DIIS
   @DF-RHF iter   8:   -76.06043149920662   -3.41507e-09   8.79596e-08 DIIS
   @DF-RHF iter   9:   -76.06043149928060   -7.39817e-11   2.18700e-08 DIIS
   @DF-RHF iter  10:   -76.06043149928450   -3.90799e-12   2.98565e-09 DIIS
  Energy and wave function converged.


  ==> Post-Iterations <==

    Orbital Energies [Eh]
    ---------------------

    Doubly Occupied:                                                      

       1A    -20.565573     2A     -1.350667     3A     -0.724786  
       4A     -0.577443     5A     -0.509189  

    Virtual:                                                              

       6A      0.029663     7A      0.047448     8A      0.136469  
       9A      0.157889    10A      0.174282    11A      0.182057  
      12A      0.228798    13A      0.244462    14A      0.263875  
      15A      0.304621    16A      0.313151    17A      0.365234  
      18A      0.437910    19A      0.466763    20A      0.602165  
      21A      0.654335    22A      0.711081    23A      0.719358  
      24A      0.731277    25A      0.828006    26A      0.843780  
      27A      0.890066    28A      0.912869    29A      0.920664  
      30A      0.923821    31A      0.927973    32A      0.971094  
      33A      1.022888    34A      1.045246    35A      1.085085  
      36A      1.113965    37A      1.172781    38A      1.177388  
      39A      1.259665    40A      1.514328    41A      1.563119  
      42A      1.595601    43A      1.785633    44A      1.797397  
      45A      2.002886    46A      2.115795    47A      2.259714  
      48A      2.318546    49A      2.321115    50A      2.413477  
      51A      2.414572    52A      2.438633    53A      2.471652  
      54A      2.686748    55A      2.703129    56A      2.767854  
      57A      2.856425    58A      2.883800    59A      3.645128  
      60A      3.769237    61A      4.007335    62A      4.089946  
      63A      4.210860    64A      4.231441    65A      4.335047  
      66A      4.381756    67A      4.400687    68A      4.415755  
      69A      4.493726    70A      4.707822    71A      4.812997  
      72A      5.124408    73A      5.171909    74A      5.304923  
      75A      5.329917    76A      5.513214    77A      5.720447  
      78A      6.140310    79A      6.534213    80A      6.713386  
      81A      6.859323    82A      7.146117    83A      7.262241  
      84A      7.299408    85A      7.308017    86A      7.370812  
      87A      7.386307    88A      7.557806    89A      7.897594  
      90A      7.962947    91A      8.788904    92A     15.853656  

    Final Occupation by Irrep:
              A 
    DOCC [     5 ]

  @DF-RHF Final Energy:   -76.06043149928450

   => Energetics <=

    Nuclear Repulsion Energy =              9.1814286862845318
    One-Electron Energy =                -123.0284052106535171
    Two-Electron Energy =                  37.7865450250844717
    Total Energy =                        -76.0604314992845048

Computation Completed


Properties will be evaluated at   3.836097,  -2.787694,   1.632455 [a0]

Properties computed using the SCF density matrix

  Nuclear Dipole Moment: [e a0]
     X:    -0.9316      Y:    -0.0152      Z:     0.0570

  Electronic Dipole Moment: [e a0]
     X:     0.1781      Y:     0.0026      Z:    -0.0107

  Dipole Moment: [e a0]
     X:    -0.7535      Y:    -0.0126      Z:     0.0463     Total:     0.7550

  Dipole Moment: [D]
     X:    -1.9152      Y:    -0.0320      Z:     0.1176     Total:     1.9191


*** tstop() called on node37.bme.utexas.edu at Tue Feb 22 17:47:24 2022
Module time:
	user time   =       5.27 seconds =       0.09 minutes
	system time =       0.45 seconds =       0.01 minutes
	total time  =          3 seconds =       0.05 minutes
Total time:
	user time   =       5.27 seconds =       0.09 minutes
	system time =       0.45 seconds =       0.01 minutes
	total time  =          3 seconds =       0.05 minutes

*** tstart() called on node37.bme.utexas.edu
*** at Tue Feb 22 17:47:24 2022


  //>>>>>>>>>>>>>>>>>>>>>>>>>>>>>>>>>>>//
  //               DFMP2               //
  //<<<<<<<<<<<<<<<<<<<<<<<<<<<<<<<<<<<//

   => Loading Basis Set <=

    Name: (AUG-CC-PVTZ AUX)
    Role: RIFIT
    Keyword: DF_BASIS_MP2
    atoms 1   entry O          line   264 file /home/bdw2292/miniconda3/envs/amoebamdpoltype/share/psi4/basis/aug-cc-pvtz-ri.gbs 
    atoms 2-3 entry H          line    30 file /home/bdw2292/miniconda3/envs/amoebamdpoltype/share/psi4/basis/aug-cc-pvtz-ri.gbs 

	 --------------------------------------------------------
	                          DF-MP2                         
	      2nd-Order Density-Fitted Moller-Plesset Theory     
	              RMP2 Wavefunction,   4 Threads             
	                                                         
	        Rob Parrish, Justin Turney, Andy Simmonett,      
	           Ed Hohenstein, and C. David Sherrill          
	 --------------------------------------------------------

   => Auxiliary Basis Set <=

  Basis Set: (AUG-CC-PVTZ AUX)
    Blend: AUG-CC-PVTZ-RI
    Number of shells: 56
    Number of basis function: 198
    Number of Cartesian functions: 246
    Spherical Harmonics?: true
    Max angular momentum: 4

	 --------------------------------------------------------
	                 NBF =    92, NAUX =   198
	 --------------------------------------------------------
	   CLASS    FOCC     OCC    AOCC    AVIR     VIR    FVIR
	   PAIRS       1       5       4      87      87       0
	 --------------------------------------------------------

	-----------------------------------------------------------
	 ==================> DF-MP2 Energies <==================== 
	-----------------------------------------------------------
	 Reference Energy          =     -76.0604314992845048 [Eh]
	 Singles Energy            =      -0.0000000000000000 [Eh]
	 Same-Spin Energy          =      -0.0650987975001425 [Eh]
	 Opposite-Spin Energy      =      -0.2029916146574537 [Eh]
	 Correlation Energy        =      -0.2680904121575962 [Eh]
	 Total Energy              =     -76.3285219114420954 [Eh]
	-----------------------------------------------------------
	 ================> DF-SCS-MP2 Energies <================== 
	-----------------------------------------------------------
	 SCS Same-Spin Scale       =       0.3333333333333333 [-]
	 SCS Opposite-Spin Scale   =       1.2000000000000000 [-]
	 SCS Same-Spin Energy      =      -0.0216995991667142 [Eh]
	 SCS Opposite-Spin Energy  =      -0.2435899375889444 [Eh]
	 SCS Correlation Energy    =      -0.2652895367556585 [Eh]
	 SCS Total Energy          =     -76.3257210360401643 [Eh]
	-----------------------------------------------------------


*** tstop() called on node37.bme.utexas.edu at Tue Feb 22 17:47:24 2022
Module time:
	user time   =       1.68 seconds =       0.03 minutes
	system time =       0.12 seconds =       0.00 minutes
	total time  =          0 seconds =       0.00 minutes
Total time:
	user time   =       6.95 seconds =       0.12 minutes
	system time =       0.57 seconds =       0.01 minutes
	total time  =          3 seconds =       0.05 minutes

  //>>>>>>>>>>>>>>>>>>>>>>>>>>>>>>>>>>>>//
  // CBS Computation: MP2 / AUG-CC-PVQZ //
  //<<<<<<<<<<<<<<<<<<<<<<<<<<<<<<<<<<<<//

    SCF Algorithm Type (re)set to DF.

*** tstart() called on node37.bme.utexas.edu
*** at Tue Feb 22 17:47:24 2022

   => Loading Basis Set <=

    Name: AUG-CC-PVQZ
    Role: ORBITAL
    Keyword: BASIS
    atoms 1   entry O          line   419 file /home/bdw2292/miniconda3/envs/amoebamdpoltype/share/psi4/basis/aug-cc-pvqz.gbs 
    atoms 2-3 entry H          line    36 file /home/bdw2292/miniconda3/envs/amoebamdpoltype/share/psi4/basis/aug-cc-pvqz.gbs 


         ---------------------------------------------------------
                                   SCF
               by Justin Turney, Rob Parrish, Andy Simmonett
                          and Daniel G. A. Smith
                              RHF Reference
                        4 Threads,  14305 MiB Core
         ---------------------------------------------------------

  ==> Geometry <==

    Molecular point group: c1
    Full point group: C1

    Geometry (in Angstrom), charge = 0, multiplicity = 1:

       Center              X                  Y                   Z               Mass       
    ------------   -----------------  -----------------  -----------------  -----------------
         O            2.092609544482    -1.474164284831     0.860028923350    15.994914619570
         H            1.570964344482    -2.139613184831     1.307193123350     1.007825032230
         H            1.494928544482    -0.826936584831     0.481292023350     1.007825032230

  Running in c1 symmetry.

  Rotational constants: A =     18.51000  B =      0.13199  C =      0.13106 [cm^-1]
  Rotational constants: A = 554915.92595  B =   3956.94367  C =   3928.93315 [MHz]
  Nuclear repulsion =    9.181428686284532

  Charge       = 0
  Multiplicity = 1
  Electrons    = 10
  Nalpha       = 5
  Nbeta        = 5

  ==> Algorithm <==

  SCF Algorithm Type is DF.
  DIIS enabled.
  MOM disabled.
  Fractional occupation disabled.
  Guess Type is SAD.
  Energy threshold   = 1.00e-08
  Density threshold  = 1.00e-08
  Integral threshold = 0.00e+00

  ==> Primary Basis <==

  Basis Set: AUG-CC-PVQZ
    Blend: AUG-CC-PVQZ
    Number of shells: 48
    Number of basis function: 172
    Number of Cartesian functions: 215
    Spherical Harmonics?: true
    Max angular momentum: 4

   => Loading Basis Set <=

    Name: (AUG-CC-PVQZ AUX)
    Role: JKFIT
    Keyword: DF_BASIS_SCF
    atoms 1   entry O          line   318 file /home/bdw2292/miniconda3/envs/amoebamdpoltype/share/psi4/basis/aug-cc-pvqz-jkfit.gbs 
    atoms 2-3 entry H          line    70 file /home/bdw2292/miniconda3/envs/amoebamdpoltype/share/psi4/basis/aug-cc-pvqz-jkfit.gbs 

  ==> Pre-Iterations <==

   -------------------------------------------------------
    Irrep   Nso     Nmo     Nalpha   Nbeta   Ndocc  Nsocc
   -------------------------------------------------------
     A        172     172       0       0       0       0
   -------------------------------------------------------
    Total     172     172       5       5       5       0
   -------------------------------------------------------

  ==> Integral Setup <==

  DFHelper Memory: AOs need 0.074 GiB; user supplied 10.477 GiB. Using in-core AOs.

  ==> MemDFJK: Density-Fitted J/K Matrices <==

    J tasked:                   Yes
    K tasked:                   Yes
    wK tasked:                   No
    OpenMP threads:               4
    Memory [MiB]:             10728
    Algorithm:                 Core
    Schwarz Cutoff:           1E-12
    Mask sparsity (%):       0.0000
    Fitting Condition:        1E-10

   => Auxiliary Basis Set <=

  Basis Set: (AUG-CC-PVQZ AUX)
    Blend: AUG-CC-PVQZ-JKFIT
    Number of shells: 70
    Number of basis function: 294
    Number of Cartesian functions: 400
    Spherical Harmonics?: true
    Max angular momentum: 5

  Minimum eigenvalue in the overlap matrix is 8.5468003806E-05.
  Using Symmetric Orthogonalization.

  SCF Guess: Superposition of Atomic Densities via on-the-fly atomic UHF.

  ==> Iterations <==

                           Total Energy        Delta E     RMS |[F,P]|

   @DF-RHF iter SAD:   -75.47891910790135   -7.54789e+01   0.00000e+00 
   @DF-RHF iter   1:   -75.98163972332219   -5.02721e-01   2.73037e-03 DIIS
   @DF-RHF iter   2:   -76.03415554164953   -5.25158e-02   1.85514e-03 DIIS
   @DF-RHF iter   3:   -76.06539885701734   -3.12433e-02   1.26348e-04 DIIS
   @DF-RHF iter   4:   -76.06579084707964   -3.91990e-04   3.08809e-05 DIIS
   @DF-RHF iter   5:   -76.06581574114897   -2.48941e-05   6.92810e-06 DIIS
   @DF-RHF iter   6:   -76.06581778363049   -2.04248e-06   1.58299e-06 DIIS
   @DF-RHF iter   7:   -76.06581790286329   -1.19233e-07   3.08507e-07 DIIS
   @DF-RHF iter   8:   -76.06581790688701   -4.02372e-09   4.93899e-08 DIIS
   @DF-RHF iter   9:   -76.06581790697115   -8.41425e-11   1.19635e-08 DIIS
   @DF-RHF iter  10:   -76.06581790697545   -4.30589e-12   1.66472e-09 DIIS
  Energy and wave function converged.


  ==> Post-Iterations <==

    Orbital Energies [Eh]
    ---------------------

    Doubly Occupied:                                                      

       1A    -20.563117     2A     -1.349941     3A     -0.724752  
       4A     -0.577495     5A     -0.509318  

    Virtual:                                                              

       6A      0.027142     7A      0.042879     8A      0.114689  
       9A      0.132637    10A      0.150359    11A      0.157878  
      12A      0.185953    13A      0.197110    14A      0.208290  
      15A      0.241238    16A      0.258896    17A      0.290441  
      18A      0.358043    19A      0.390563    20A      0.471763  
      21A      0.506748    22A      0.542990    23A      0.545727  
      24A      0.554185    25A      0.613307    26A      0.634206  
      27A      0.649547    28A      0.662665    29A      0.665841  
      30A      0.690173    31A      0.705218    32A      0.714948  
      33A      0.769541    34A      0.787546    35A      0.803479  
      36A      0.809719    37A      0.846658    38A      0.855362  
      39A      0.967496    40A      1.134226    41A      1.140624  
      42A      1.216508    43A      1.329072    44A      1.418430  
      45A      1.480450    46A      1.506174    47A      1.521469  
      48A      1.525141    49A      1.555820    50A      1.595494  
      51A      1.618115    52A      1.636565    53A      1.659661  
      54A      1.672324    55A      1.686072    56A      1.702532  
      57A      1.720064    58A      1.763237    59A      1.781271  
      60A      1.793541    61A      1.828654    62A      1.862962  
      63A      1.881998    64A      1.900750    65A      1.954211  
      66A      2.013859    67A      2.021858    68A      2.029626  
      69A      2.099152    70A      2.218635    71A      2.225631  
      72A      2.307052    73A      2.491398    74A      2.641702  
      75A      2.643000    76A      2.890535    77A      2.961955  
      78A      3.009843    79A      3.023981    80A      3.061258  
      81A      3.088201    82A      3.253337    83A      3.283527  
      84A      3.309954    85A      3.529188    86A      3.591098  
      87A      3.657831    88A      3.682065    89A      3.739194  
      90A      3.742581    91A      3.920933    92A      4.066622  
      93A      4.159480    94A      4.170537    95A      4.174862  
      96A      4.181140    97A      4.250747    98A      4.343881  
      99A      4.419234   100A      4.566082   101A      4.664245  
     102A      4.760552   103A      4.802825   104A      4.806553  
     105A      4.838842   106A      4.875359   107A      4.998502  
     108A      5.275389   109A      5.315707   110A      5.512454  
     111A      5.546941   112A      5.877981   113A      5.881679  
     114A      6.079972   115A      6.230083   116A      6.836121  
     117A      6.858714   118A      6.861768   119A      6.955155  
     120A      7.713309   121A      7.780065   122A      7.828068  
     123A      7.844910   124A      7.876556   125A      7.918298  
     126A      7.946413   127A      8.006758   128A      8.197470  
     129A      8.338036   130A      8.536365   131A      8.591654  
     132A      8.704065   133A      8.757915   134A      8.798396  
     135A      8.875301   136A      8.982044   137A      9.062933  
     138A      9.142982   139A      9.530798   140A      9.842005  
     141A      9.960945   142A      9.964453   143A     10.012486  
     144A     10.437937   145A     10.477779   146A     10.655510  
     147A     10.993367   148A     11.038543   149A     11.079771  
     150A     11.260226   151A     11.367976   152A     11.438270  
     153A     11.696879   154A     11.796316   155A     11.834909  
     156A     12.012055   157A     12.175943   158A     12.224203  
     159A     12.532537   160A     12.735456   161A     12.873410  
     162A     12.896041   163A     13.210895   164A     13.997076  
     165A     14.038186   166A     14.487021   167A     14.844918  
     168A     14.875221   169A     15.299290   170A     16.925088  
     171A     17.265936   172A     45.490518  

    Final Occupation by Irrep:
              A 
    DOCC [     5 ]

  @DF-RHF Final Energy:   -76.06581790697545

   => Energetics <=

    Nuclear Repulsion Energy =              9.1814286862845318
    One-Electron Energy =                -123.0452477232115314
    Two-Electron Energy =                  37.7980011299515297
    Total Energy =                        -76.0658179069754681

Computation Completed


Properties will be evaluated at   3.836097,  -2.787694,   1.632455 [a0]

Properties computed using the SCF density matrix

  Nuclear Dipole Moment: [e a0]
     X:    -0.9316      Y:    -0.0152      Z:     0.0570

  Electronic Dipole Moment: [e a0]
     X:     0.1789      Y:     0.0026      Z:    -0.0107

  Dipole Moment: [e a0]
     X:    -0.7527      Y:    -0.0126      Z:     0.0462     Total:     0.7542

  Dipole Moment: [D]
     X:    -1.9131      Y:    -0.0319      Z:     0.1175     Total:     1.9169


*** tstop() called on node37.bme.utexas.edu at Tue Feb 22 17:47:29 2022
Module time:
	user time   =       9.84 seconds =       0.16 minutes
	system time =       0.69 seconds =       0.01 minutes
	total time  =          5 seconds =       0.08 minutes
Total time:
	user time   =      16.83 seconds =       0.28 minutes
	system time =       1.26 seconds =       0.02 minutes
	total time  =          8 seconds =       0.13 minutes

*** tstart() called on node37.bme.utexas.edu
*** at Tue Feb 22 17:47:29 2022


  //>>>>>>>>>>>>>>>>>>>>>>>>>>>>>>>>>>>//
  //               DFMP2               //
  //<<<<<<<<<<<<<<<<<<<<<<<<<<<<<<<<<<<//

   => Loading Basis Set <=

    Name: (AUG-CC-PVQZ AUX)
    Role: RIFIT
    Keyword: DF_BASIS_MP2
    atoms 1   entry O          line   332 file /home/bdw2292/miniconda3/envs/amoebamdpoltype/share/psi4/basis/aug-cc-pvqz-ri.gbs 
    atoms 2-3 entry H          line    30 file /home/bdw2292/miniconda3/envs/amoebamdpoltype/share/psi4/basis/aug-cc-pvqz-ri.gbs 

	 --------------------------------------------------------
	                          DF-MP2                         
	      2nd-Order Density-Fitted Moller-Plesset Theory     
	              RMP2 Wavefunction,   4 Threads             
	                                                         
	        Rob Parrish, Justin Turney, Andy Simmonett,      
	           Ed Hohenstein, and C. David Sherrill          
	 --------------------------------------------------------

   => Auxiliary Basis Set <=

  Basis Set: (AUG-CC-PVQZ AUX)
    Blend: AUG-CC-PVQZ-RI
    Number of shells: 76
    Number of basis function: 328
    Number of Cartesian functions: 447
    Spherical Harmonics?: true
    Max angular momentum: 5

	 --------------------------------------------------------
	                 NBF =   172, NAUX =   328
	 --------------------------------------------------------
	   CLASS    FOCC     OCC    AOCC    AVIR     VIR    FVIR
	   PAIRS       1       5       4     167     167       0
	 --------------------------------------------------------

	-----------------------------------------------------------
	 ==================> DF-MP2 Energies <==================== 
	-----------------------------------------------------------
	 Reference Energy          =     -76.0658179069754539 [Eh]
	 Singles Energy            =      -0.0000000000000000 [Eh]
	 Same-Spin Energy          =      -0.0671681169995886 [Eh]
	 Opposite-Spin Energy      =      -0.2185301808384945 [Eh]
	 Correlation Energy        =      -0.2856982978380831 [Eh]
	 Total Energy              =     -76.3515162048135352 [Eh]
	-----------------------------------------------------------
	 ================> DF-SCS-MP2 Energies <================== 
	-----------------------------------------------------------
	 SCS Same-Spin Scale       =       0.3333333333333333 [-]
	 SCS Opposite-Spin Scale   =       1.2000000000000000 [-]
	 SCS Same-Spin Energy      =      -0.0223893723331962 [Eh]
	 SCS Opposite-Spin Energy  =      -0.2622362170061934 [Eh]
	 SCS Correlation Energy    =      -0.2846255893393896 [Eh]
	 SCS Total Energy          =     -76.3504434963148384 [Eh]
	-----------------------------------------------------------


*** tstop() called on node37.bme.utexas.edu at Tue Feb 22 17:47:31 2022
Module time:
	user time   =       3.01 seconds =       0.05 minutes
	system time =       0.25 seconds =       0.00 minutes
	total time  =          2 seconds =       0.03 minutes
Total time:
	user time   =      19.84 seconds =       0.33 minutes
	system time =       1.51 seconds =       0.03 minutes
	total time  =         10 seconds =       0.17 minutes

  //>>>>>>>>>>>>>>>>>>>>>>>>>>>>>>>>>>>//
  //  CBS Results: mp2/aug-cc-pV[TQ]Z  //
  //<<<<<<<<<<<<<<<<<<<<<<<<<<<<<<<<<<<//


   ==> HF <==

   HI-zeta (4) Energy:               -76.065817906975


   ==> Helgaker 2-point correlated extrapolation for method: MP2 <==

   LO-zeta (3) Energy:               -76.328521911442
   HI-zeta (4) Energy:               -76.351516204814
   Alpha (exponent) Value:             3.000000000000
   Extrapolated Energy:              -76.368295824301

   @Extrapolated MP2/(T,Q):          -76.368295824301



   ==> Helgaker 2-point correlated extrapolation for method: HF <==

   LO-zeta (3) Energy:               -76.060431499285
   HI-zeta (4) Energy:               -76.065817906975
   Alpha (exponent) Value:             3.000000000000
   Extrapolated Energy:              -76.069748528804

   @Extrapolated HF/(T,Q):           -76.069748528804


   ==> Components <==

  ---------------------------------------------------------------------------------------------------------
                          Method / Basis                      Rqd      Energy [Eh]   Variable
  ---------------------------------------------------------------------------------------------------------
                              hf / aug-cc-pvtz                  *     -76.06043150   HF TOTAL ENERGY
                             mp2 / aug-cc-pvtz                  *     -76.32852191   MP2 TOTAL ENERGY
                              hf / aug-cc-pvqz                  *     -76.06581791   HF TOTAL ENERGY
                             mp2 / aug-cc-pvqz                  *     -76.35151620   MP2 TOTAL ENERGY
  ---------------------------------------------------------------------------------------------------------

   ==> Stages <==

  ---------------------------------------------------------------------------------------------------------
      Stage               Method / Basis                       Wt      Energy [Eh]   Scheme
  ---------------------------------------------------------------------------------------------------------
        scf                   hf / aug-cc-pvqz                  1     -76.06581791   xtpl_highest_1
       corl                  mp2 / aug-cc-pv[tq]z               1     -76.36829582   corl_xtpl_helgaker_2
       corl                   hf / aug-cc-pv[tq]z              -1     -76.06974853   corl_xtpl_helgaker_2
  ---------------------------------------------------------------------------------------------------------

   ==> CBS <==

  ---------------------------------------------------------------------------------------------------------
      Stage               Method / Basis                               Energy [Eh]   Scheme
  ---------------------------------------------------------------------------------------------------------
        scf                   hf / aug-cc-pvqz                        -76.06581791   xtpl_highest_1
       corl                  mp2 / aug-cc-pv[tq]z                      -0.29854730   corl_xtpl_helgaker_2
      total                  CBS                                      -76.36436520   
  ---------------------------------------------------------------------------------------------------------
   => Loading Basis Set <=

    Name: DEF2-SVP
    Role: ORBITAL
    Keyword: BASIS
    atoms 1   entry O          line   130 file /home/bdw2292/miniconda3/envs/amoebamdpoltype/share/psi4/basis/def2-svp.gbs 
    atoms 2-3 entry H          line    15 file /home/bdw2292/miniconda3/envs/amoebamdpoltype/share/psi4/basis/def2-svp.gbs 


       N-Body: Complex Energy (fragments = (2,), basis = (2,):   -76.36436520247229)

       N-Body: Computing complex (2/4) with fragments (2,) in the basis of fragments (1, 2).


  //>>>>>>>>>>>>>>>>>>>>>>>>>>>>>>>>>>>//
  //   CBS Setup: mp2/aug-cc-pV[TQ]Z   //
  //<<<<<<<<<<<<<<<<<<<<<<<<<<<<<<<<<<<//

    Naive listing of computations required.
             hf / aug-cc-pvqz              for  HF TOTAL ENERGY
            mp2 / aug-cc-pvtz              for  MP2 TOTAL ENERGY
            mp2 / aug-cc-pvqz              for  MP2 TOTAL ENERGY
             hf / aug-cc-pvtz              for  HF TOTAL ENERGY
             hf / aug-cc-pvqz              for  HF TOTAL ENERGY

    Enlightened listing of computations required.
            mp2 / aug-cc-pvtz              for  MP2 TOTAL ENERGY
            mp2 / aug-cc-pvqz              for  MP2 TOTAL ENERGY

    Full listing of computations to be obtained (required and bonus).
             hf / aug-cc-pvtz              for  HF TOTAL ENERGY
            mp2 / aug-cc-pvtz              for  MP2 TOTAL ENERGY
             hf / aug-cc-pvqz              for  HF TOTAL ENERGY
            mp2 / aug-cc-pvqz              for  MP2 TOTAL ENERGY

  //>>>>>>>>>>>>>>>>>>>>>>>>>>>>>>>>>>>>//
  // CBS Computation: MP2 / AUG-CC-PVTZ //
  //<<<<<<<<<<<<<<<<<<<<<<<<<<<<<<<<<<<<//

    SCF Algorithm Type (re)set to DF.

*** tstart() called on node37.bme.utexas.edu
*** at Tue Feb 22 17:47:32 2022

   => Loading Basis Set <=

    Name: AUG-CC-PVTZ
    Role: ORBITAL
    Keyword: BASIS
    atoms 1        entry CL         line   984 file /home/bdw2292/miniconda3/envs/amoebamdpoltype/share/psi4/basis/aug-cc-pvtz.gbs 
    atoms 2        entry C          line   235 file /home/bdw2292/miniconda3/envs/amoebamdpoltype/share/psi4/basis/aug-cc-pvtz.gbs 
    atoms 3-5, 7-8 entry H          line    36 file /home/bdw2292/miniconda3/envs/amoebamdpoltype/share/psi4/basis/aug-cc-pvtz.gbs 
    atoms 6        entry O          line   327 file /home/bdw2292/miniconda3/envs/amoebamdpoltype/share/psi4/basis/aug-cc-pvtz.gbs 


         ---------------------------------------------------------
                                   SCF
               by Justin Turney, Rob Parrish, Andy Simmonett
                          and Daniel G. A. Smith
                              RHF Reference
                        4 Threads,  14305 MiB Core
         ---------------------------------------------------------

  ==> Geometry <==

    Molecular point group: c1
    Full point group: C1

    Geometry (in Angstrom), charge = 0, multiplicity = 1:

       Center              X                  Y                   Z               Mass       
    ------------   -----------------  -----------------  -----------------  -----------------
      Gh(CL)         -0.251225755518     0.776965115169    -0.448979076650    34.968852682000
      Gh(C)          -1.787563855518    -0.008175084831    -0.008434276650    12.000000000000
      Gh(H)          -1.934400955518    -0.879548684831    -0.646987676650     1.007825032230
      Gh(H)          -1.736917455518    -0.318889884831     1.035334923350     1.007825032230
      Gh(H)          -2.604723255518     0.699758115169    -0.147308176650     1.007825032230
         O            2.092609544482    -1.474164284831     0.860028923350    15.994914619570
         H            1.570964344482    -2.139613184831     1.307193123350     1.007825032230
         H            1.494928544482    -0.826936584831     0.481292023350     1.007825032230

  Running in c1 symmetry.

  Rotational constants: A =      0.49272  B =      0.09299  C =      0.07941 [cm^-1]
  Rotational constants: A =  14771.25779  B =   2787.74445  C =   2380.68305 [MHz]
  Nuclear repulsion =    9.181428686284532

  Charge       = 0
  Multiplicity = 1
  Electrons    = 10
  Nalpha       = 5
  Nbeta        = 5

  ==> Algorithm <==

  SCF Algorithm Type is DF.
  DIIS enabled.
  MOM disabled.
  Fractional occupation disabled.
  Guess Type is SAD.
  Energy threshold   = 1.00e-08
  Density threshold  = 1.00e-08
  Integral threshold = 0.00e+00

  ==> Primary Basis <==

  Basis Set: AUG-CC-PVTZ
    Blend: AUG-CC-PVTZ
    Number of shells: 89
    Number of basis function: 257
    Number of Cartesian functions: 294
    Spherical Harmonics?: true
    Max angular momentum: 3

   => Loading Basis Set <=

    Name: (AUG-CC-PVTZ AUX)
    Role: JKFIT
    Keyword: DF_BASIS_SCF
    atoms 1        entry CL         line   816 file /home/bdw2292/miniconda3/envs/amoebamdpoltype/share/psi4/basis/aug-cc-pvtz-jkfit.gbs 
    atoms 2        entry C          line   162 file /home/bdw2292/miniconda3/envs/amoebamdpoltype/share/psi4/basis/aug-cc-pvtz-jkfit.gbs 
    atoms 3-5, 7-8 entry H          line    70 file /home/bdw2292/miniconda3/envs/amoebamdpoltype/share/psi4/basis/aug-cc-pvtz-jkfit.gbs 
    atoms 6        entry O          line   286 file /home/bdw2292/miniconda3/envs/amoebamdpoltype/share/psi4/basis/aug-cc-pvtz-jkfit.gbs 

  ==> Pre-Iterations <==

   -------------------------------------------------------
    Irrep   Nso     Nmo     Nalpha   Nbeta   Ndocc  Nsocc
   -------------------------------------------------------
     A        257     257       0       0       0       0
   -------------------------------------------------------
    Total     257     257       5       5       5       0
   -------------------------------------------------------

  ==> Integral Setup <==

  DFHelper Memory: AOs need 0.295 GiB; user supplied 10.477 GiB. Using in-core AOs.

  ==> MemDFJK: Density-Fitted J/K Matrices <==

    J tasked:                   Yes
    K tasked:                   Yes
    wK tasked:                   No
    OpenMP threads:               4
    Memory [MiB]:             10728
    Algorithm:                 Core
    Schwarz Cutoff:           1E-12
    Mask sparsity (%):       3.4278
    Fitting Condition:        1E-10

   => Auxiliary Basis Set <=

  Basis Set: (AUG-CC-PVTZ AUX)
    Blend: AUG-CC-PVTZ-JKFIT
    Number of shells: 172
    Number of basis function: 584
    Number of Cartesian functions: 717
    Spherical Harmonics?: true
    Max angular momentum: 4

  Minimum eigenvalue in the overlap matrix is 6.7934872886E-05.
  Using Symmetric Orthogonalization.

  SCF Guess: Superposition of Atomic Densities via on-the-fly atomic UHF.

  ==> Iterations <==

                           Total Energy        Delta E     RMS |[F,P]|

   @DF-RHF iter SAD:   -75.47376342169559   -7.54738e+01   0.00000e+00 
   @DF-RHF iter   1:   -75.97657381235229   -5.02810e-01   1.82361e-03 DIIS
   @DF-RHF iter   2:   -76.02899448176275   -5.24207e-02   1.23636e-03 DIIS
   @DF-RHF iter   3:   -76.06004722087178   -3.10527e-02   8.39595e-05 DIIS
   @DF-RHF iter   4:   -76.06043729485249   -3.90074e-04   2.00619e-05 DIIS
   @DF-RHF iter   5:   -76.06046132301705   -2.40282e-05   4.51737e-06 DIIS
   @DF-RHF iter   6:   -76.06046328532223   -1.96231e-06   1.00591e-06 DIIS
   @DF-RHF iter   7:   -76.06046339359055   -1.08268e-07   1.90166e-07 DIIS
   @DF-RHF iter   8:   -76.06046339702394   -3.43339e-09   3.15418e-08 DIIS
   @DF-RHF iter   9:   -76.06046339709827   -7.43370e-11   7.83914e-09 DIIS
  Energy and wave function converged.


  ==> Post-Iterations <==

    Orbital Energies [Eh]
    ---------------------

    Doubly Occupied:                                                      

       1A    -20.565580     2A     -1.350647     3A     -0.724764  
       4A     -0.577428     5A     -0.509175  

    Virtual:                                                              

       6A      0.017316     7A      0.036814     8A      0.043169  
       9A      0.047222    10A      0.059196    11A      0.080901  
      12A      0.093725    13A      0.107422    14A      0.112204  
      15A      0.116066    16A      0.124545    17A      0.138041  
      18A      0.169284    19A      0.176754    20A      0.179316  
      21A      0.198867    22A      0.213591    23A      0.223125  
      24A      0.254202    25A      0.261471    26A      0.265982  
      27A      0.274331    28A      0.281511    29A      0.293104  
      30A      0.297615    31A      0.301096    32A      0.312643  
      33A      0.324612    34A      0.331339    35A      0.355928  
      36A      0.360240    37A      0.382015    38A      0.388375  
      39A      0.403796    40A      0.413876    41A      0.437631  
      42A      0.443081    43A      0.456567    44A      0.458058  
      45A      0.472220    46A      0.492255    47A      0.501906  
      48A      0.523323    49A      0.566561    50A      0.578982  
      51A      0.583290    52A      0.602000    53A      0.613092  
      54A      0.635537    55A      0.649125    56A      0.654648  
      57A      0.664631    58A      0.693441    59A      0.704241  
      60A      0.721918    61A      0.727400    62A      0.736264  
      63A      0.744805    64A      0.753551    65A      0.807167  
      66A      0.893471    67A      0.908586    68A      0.920539  
      69A      0.929351    70A      0.939781    71A      0.944828  
      72A      0.950392    73A      0.964055    74A      0.977242  
      75A      1.003848    76A      1.022546    77A      1.039262  
      78A      1.046431    79A      1.051580    80A      1.059427  
      81A      1.067246    82A      1.072423    83A      1.090315  
      84A      1.097117    85A      1.115516    86A      1.125486  
      87A      1.152218    88A      1.159019    89A      1.169141  
      90A      1.174188    91A      1.194095    92A      1.209737  
      93A      1.223644    94A      1.238012    95A      1.246536  
      96A      1.255114    97A      1.262049    98A      1.283452  
      99A      1.322523   100A      1.325544   101A      1.373369  
     102A      1.382707   103A      1.385966   104A      1.406263  
     105A      1.420376   106A      1.443439   107A      1.468503  
     108A      1.505751   109A      1.541676   110A      1.548108  
     111A      1.559617   112A      1.567129   113A      1.582103  
     114A      1.604198   115A      1.621553   116A      1.639055  
     117A      1.693510   118A      1.703578   119A      1.729669  
     120A      1.776333   121A      1.792086   122A      1.838993  
     123A      1.895412   124A      1.908834   125A      1.940468  
     126A      1.950904   127A      1.971280   128A      1.996900  
     129A      2.044098   130A      2.059618   131A      2.074329  
     132A      2.094986   133A      2.108368   134A      2.124607  
     135A      2.149727   136A      2.172571   137A      2.277154  
     138A      2.316551   139A      2.328850   140A      2.376538  
     141A      2.408549   142A      2.456831   143A      2.470313  
     144A      2.483798   145A      2.496570   146A      2.500237  
     147A      2.531491   148A      2.550965   149A      2.605821  
     150A      2.639459   151A      2.687818   152A      2.724191  
     153A      2.738444   154A      2.748161   155A      2.884089  
     156A      2.929245   157A      2.945752   158A      3.020155  
     159A      3.684853   160A      3.749571   161A      3.824641  
     162A      3.905171   163A      3.936926   164A      3.960278  
     165A      3.980510   166A      4.002663   167A      4.012687  
     168A      4.025841   169A      4.077348   170A      4.082516  
     171A      4.102112   172A      4.144639   173A      4.160924  
     174A      4.196384   175A      4.214557   176A      4.222945  
     177A      4.227620   178A      4.263825   179A      4.312674  
     180A      4.315036   181A      4.341890   182A      4.387564  
     183A      4.396600   184A      4.426402   185A      4.438048  
     186A      4.450132   187A      4.470790   188A      4.490814  
     189A      4.525244   190A      4.545440   191A      4.569429  
     192A      4.581725   193A      4.601409   194A      4.696218  
     195A      4.756492   196A      4.758401   197A      4.767273  
     198A      4.809246   199A      4.815609   200A      4.859944  
     201A      4.869150   202A      4.883128   203A      4.937050  
     204A      5.006928   205A      5.074942   206A      5.131319  
     207A      5.155482   208A      5.178766   209A      5.213417  
     210A      5.242008   211A      5.325919   212A      5.343066  
     213A      5.359888   214A      5.372937   215A      5.413211  
     216A      5.467243   217A      5.471460   218A      5.484281  
     219A      5.519283   220A      5.697072   221A      5.709561  
     222A      5.782961   223A      6.035060   224A      6.134278  
     225A      6.145817   226A      6.167275   227A      6.214702  
     228A      6.223516   229A      6.558480   230A      6.652744  
     231A      6.669036   232A      6.747122   233A      6.903944  
     234A      7.122842   235A      7.152601   236A      7.280724  
     237A      7.318115   238A      7.334270   239A      7.426499  
     240A      7.431214   241A      7.731433   242A      7.740675  
     243A      7.757724   244A      7.847790   245A      7.941154  
     246A      8.015352   247A      8.117983   248A      8.157503  
     249A      8.814824   250A     10.225225   251A     16.185863  
     252A     16.810683   253A     28.034472   254A     28.237732  
     255A     28.958447   256A     51.150510   257A    161.021095  

    Final Occupation by Irrep:
              A 
    DOCC [     5 ]

  @DF-RHF Final Energy:   -76.06046339709827

   => Energetics <=

    Nuclear Repulsion Energy =              9.1814286862845318
    One-Electron Energy =                -123.0285938530083740
    Two-Electron Energy =                  37.7867017696255658
    Total Energy =                        -76.0604633970982746

Computation Completed


Properties will be evaluated at   0.000000,  -0.000000,   0.000000 [a0]

Properties computed using the SCF density matrix

  Nuclear Dipole Moment: [e a0]
     X:    37.4294      Y:   -27.8921      Z:    16.3815

  Electronic Dipole Moment: [e a0]
     X:   -38.1829      Y:    27.8796      Z:   -16.3353

  Dipole Moment: [e a0]
     X:    -0.7536      Y:    -0.0125      Z:     0.0462     Total:     0.7551

  Dipole Moment: [D]
     X:    -1.9154      Y:    -0.0317      Z:     0.1175     Total:     1.9193


*** tstop() called on node37.bme.utexas.edu at Tue Feb 22 17:47:41 2022
Module time:
	user time   =      20.55 seconds =       0.34 minutes
	system time =       1.33 seconds =       0.02 minutes
	total time  =          9 seconds =       0.15 minutes
Total time:
	user time   =      42.06 seconds =       0.70 minutes
	system time =       2.89 seconds =       0.05 minutes
	total time  =         20 seconds =       0.33 minutes

*** tstart() called on node37.bme.utexas.edu
*** at Tue Feb 22 17:47:41 2022


  //>>>>>>>>>>>>>>>>>>>>>>>>>>>>>>>>>>>//
  //               DFMP2               //
  //<<<<<<<<<<<<<<<<<<<<<<<<<<<<<<<<<<<//

   => Loading Basis Set <=

    Name: (AUG-CC-PVTZ AUX)
    Role: RIFIT
    Keyword: DF_BASIS_MP2
    atoms 1        entry CL         line   742 file /home/bdw2292/miniconda3/envs/amoebamdpoltype/share/psi4/basis/aug-cc-pvtz-ri.gbs 
    atoms 2        entry C          line   148 file /home/bdw2292/miniconda3/envs/amoebamdpoltype/share/psi4/basis/aug-cc-pvtz-ri.gbs 
    atoms 3-5, 7-8 entry H          line    30 file /home/bdw2292/miniconda3/envs/amoebamdpoltype/share/psi4/basis/aug-cc-pvtz-ri.gbs 
    atoms 6        entry O          line   264 file /home/bdw2292/miniconda3/envs/amoebamdpoltype/share/psi4/basis/aug-cc-pvtz-ri.gbs 

	 --------------------------------------------------------
	                          DF-MP2                         
	      2nd-Order Density-Fitted Moller-Plesset Theory     
	              RMP2 Wavefunction,   4 Threads             
	                                                         
	        Rob Parrish, Justin Turney, Andy Simmonett,      
	           Ed Hohenstein, and C. David Sherrill          
	 --------------------------------------------------------

   => Auxiliary Basis Set <=

  Basis Set: (AUG-CC-PVTZ AUX)
    Blend: AUG-CC-PVTZ-RI
    Number of shells: 163
    Number of basis function: 589
    Number of Cartesian functions: 738
    Spherical Harmonics?: true
    Max angular momentum: 4

	 --------------------------------------------------------
	                 NBF =   257, NAUX =   589
	 --------------------------------------------------------
	   CLASS    FOCC     OCC    AOCC    AVIR     VIR    FVIR
	   PAIRS       1       5       4     252     252       0
	 --------------------------------------------------------

	-----------------------------------------------------------
	 ==================> DF-MP2 Energies <==================== 
	-----------------------------------------------------------
	 Reference Energy          =     -76.0604633970982746 [Eh]
	 Singles Energy            =      -0.0000000000000000 [Eh]
	 Same-Spin Energy          =      -0.0651136412724753 [Eh]
	 Opposite-Spin Energy      =      -0.2031570969147282 [Eh]
	 Correlation Energy        =      -0.2682707381872035 [Eh]
	 Total Energy              =     -76.3287341352854725 [Eh]
	-----------------------------------------------------------
	 ================> DF-SCS-MP2 Energies <================== 
	-----------------------------------------------------------
	 SCS Same-Spin Scale       =       0.3333333333333333 [-]
	 SCS Opposite-Spin Scale   =       1.2000000000000000 [-]
	 SCS Same-Spin Energy      =      -0.0217045470908251 [Eh]
	 SCS Opposite-Spin Energy  =      -0.2437885162976738 [Eh]
	 SCS Correlation Energy    =      -0.2654930633884989 [Eh]
	 SCS Total Energy          =     -76.3259564604867791 [Eh]
	-----------------------------------------------------------


*** tstop() called on node37.bme.utexas.edu at Tue Feb 22 17:47:44 2022
Module time:
	user time   =       7.70 seconds =       0.13 minutes
	system time =       0.68 seconds =       0.01 minutes
	total time  =          3 seconds =       0.05 minutes
Total time:
	user time   =      49.76 seconds =       0.83 minutes
	system time =       3.57 seconds =       0.06 minutes
	total time  =         23 seconds =       0.38 minutes

  //>>>>>>>>>>>>>>>>>>>>>>>>>>>>>>>>>>>>//
  // CBS Computation: MP2 / AUG-CC-PVQZ //
  //<<<<<<<<<<<<<<<<<<<<<<<<<<<<<<<<<<<<//

    SCF Algorithm Type (re)set to DF.

*** tstart() called on node37.bme.utexas.edu
*** at Tue Feb 22 17:47:44 2022

   => Loading Basis Set <=

    Name: AUG-CC-PVQZ
    Role: ORBITAL
    Keyword: BASIS
    atoms 1        entry CL         line  1218 file /home/bdw2292/miniconda3/envs/amoebamdpoltype/share/psi4/basis/aug-cc-pvqz.gbs 
    atoms 2        entry C          line   299 file /home/bdw2292/miniconda3/envs/amoebamdpoltype/share/psi4/basis/aug-cc-pvqz.gbs 
    atoms 3-5, 7-8 entry H          line    36 file /home/bdw2292/miniconda3/envs/amoebamdpoltype/share/psi4/basis/aug-cc-pvqz.gbs 
    atoms 6        entry O          line   419 file /home/bdw2292/miniconda3/envs/amoebamdpoltype/share/psi4/basis/aug-cc-pvqz.gbs 


         ---------------------------------------------------------
                                   SCF
               by Justin Turney, Rob Parrish, Andy Simmonett
                          and Daniel G. A. Smith
                              RHF Reference
                        4 Threads,  14305 MiB Core
         ---------------------------------------------------------

  ==> Geometry <==

    Molecular point group: c1
    Full point group: C1

    Geometry (in Angstrom), charge = 0, multiplicity = 1:

       Center              X                  Y                   Z               Mass       
    ------------   -----------------  -----------------  -----------------  -----------------
      Gh(CL)         -0.251225755518     0.776965115169    -0.448979076650    34.968852682000
      Gh(C)          -1.787563855518    -0.008175084831    -0.008434276650    12.000000000000
      Gh(H)          -1.934400955518    -0.879548684831    -0.646987676650     1.007825032230
      Gh(H)          -1.736917455518    -0.318889884831     1.035334923350     1.007825032230
      Gh(H)          -2.604723255518     0.699758115169    -0.147308176650     1.007825032230
         O            2.092609544482    -1.474164284831     0.860028923350    15.994914619570
         H            1.570964344482    -2.139613184831     1.307193123350     1.007825032230
         H            1.494928544482    -0.826936584831     0.481292023350     1.007825032230

  Running in c1 symmetry.

  Rotational constants: A =      0.49272  B =      0.09299  C =      0.07941 [cm^-1]
  Rotational constants: A =  14771.25779  B =   2787.74445  C =   2380.68305 [MHz]
  Nuclear repulsion =    9.181428686284532

  Charge       = 0
  Multiplicity = 1
  Electrons    = 10
  Nalpha       = 5
  Nbeta        = 5

  ==> Algorithm <==

  SCF Algorithm Type is DF.
  DIIS enabled.
  MOM disabled.
  Fractional occupation disabled.
  Guess Type is SAD.
  Energy threshold   = 1.00e-08
  Density threshold  = 1.00e-08
  Integral threshold = 0.00e+00

  ==> Primary Basis <==

  Basis Set: AUG-CC-PVQZ
    Blend: AUG-CC-PVQZ
    Number of shells: 132
    Number of basis function: 474
    Number of Cartesian functions: 594
    Spherical Harmonics?: true
    Max angular momentum: 4

   => Loading Basis Set <=

    Name: (AUG-CC-PVQZ AUX)
    Role: JKFIT
    Keyword: DF_BASIS_SCF
    atoms 1        entry CL         line   904 file /home/bdw2292/miniconda3/envs/amoebamdpoltype/share/psi4/basis/aug-cc-pvqz-jkfit.gbs 
    atoms 2        entry C          line   178 file /home/bdw2292/miniconda3/envs/amoebamdpoltype/share/psi4/basis/aug-cc-pvqz-jkfit.gbs 
    atoms 3-5, 7-8 entry H          line    70 file /home/bdw2292/miniconda3/envs/amoebamdpoltype/share/psi4/basis/aug-cc-pvqz-jkfit.gbs 
    atoms 6        entry O          line   318 file /home/bdw2292/miniconda3/envs/amoebamdpoltype/share/psi4/basis/aug-cc-pvqz-jkfit.gbs 

  ==> Pre-Iterations <==

   -------------------------------------------------------
    Irrep   Nso     Nmo     Nalpha   Nbeta   Ndocc  Nsocc
   -------------------------------------------------------
     A        474     474       0       0       0       0
   -------------------------------------------------------
    Total     474     474       5       5       5       0
   -------------------------------------------------------

  ==> Integral Setup <==

  DFHelper Memory: AOs need 1.388 GiB; user supplied 10.477 GiB. Using in-core AOs.

  ==> MemDFJK: Density-Fitted J/K Matrices <==

    J tasked:                   Yes
    K tasked:                   Yes
    wK tasked:                   No
    OpenMP threads:               4
    Memory [MiB]:             10728
    Algorithm:                 Core
    Schwarz Cutoff:           1E-12
    Mask sparsity (%):       6.9326
    Fitting Condition:        1E-10

   => Auxiliary Basis Set <=

  Basis Set: (AUG-CC-PVQZ AUX)
    Blend: AUG-CC-PVQZ-JKFIT
    Number of shells: 204
    Number of basis function: 848
    Number of Cartesian functions: 1148
    Spherical Harmonics?: true
    Max angular momentum: 5

  Minimum eigenvalue in the overlap matrix is 1.4387197459E-05.
  Using Symmetric Orthogonalization.

  SCF Guess: Superposition of Atomic Densities via on-the-fly atomic UHF.

  ==> Iterations <==

                           Total Energy        Delta E     RMS |[F,P]|

   @DF-RHF iter SAD:   -75.47891910262891   -7.54789e+01   0.00000e+00 
   @DF-RHF iter   1:   -75.98164932487720   -5.02730e-01   9.90792e-04 DIIS
   @DF-RHF iter   2:   -76.03416744491257   -5.25181e-02   6.73212e-04 DIIS
   @DF-RHF iter   3:   -76.06541155198440   -3.12441e-02   4.58503e-05 DIIS
   @DF-RHF iter   4:   -76.06580357632397   -3.92024e-04   1.12060e-05 DIIS
   @DF-RHF iter   5:   -76.06582847162936   -2.48953e-05   2.51437e-06 DIIS
   @DF-RHF iter   6:   -76.06583051480452   -2.04318e-06   5.74494e-07 DIIS
   @DF-RHF iter   7:   -76.06583063410416   -1.19300e-07   1.12044e-07 DIIS
   @DF-RHF iter   8:   -76.06583063813765   -4.03350e-09   1.79469e-08 DIIS
   @DF-RHF iter   9:   -76.06583063822217   -8.45120e-11   4.34625e-09 DIIS
  Energy and wave function converged.


  ==> Post-Iterations <==

    Orbital Energies [Eh]
    ---------------------

    Doubly Occupied:                                                      

       1A    -20.563100     2A     -1.349927     3A     -0.724738  
       4A     -0.577484     5A     -0.509310  

    Virtual:                                                              

       6A      0.015590     7A      0.033482     8A      0.039078  
       9A      0.042520    10A      0.054169    11A      0.072202  
      12A      0.082589    13A      0.092383    14A      0.094639  
      15A      0.101403    16A      0.107880    17A      0.120040  
      18A      0.143642    19A      0.150253    20A      0.154919  
      21A      0.169717    22A      0.176507    23A      0.188956  
      24A      0.213977    25A      0.217293    26A      0.222588  
      27A      0.227886    28A      0.236889    29A      0.244358  
      30A      0.252975    31A      0.254448    32A      0.260368  
      33A      0.270452    34A      0.272622    35A      0.281590  
      36A      0.296577    37A      0.299382    38A      0.307604  
      39A      0.325769    40A      0.344972    41A      0.347465  
      42A      0.359451    43A      0.368430    44A      0.375031  
      45A      0.382516    46A      0.388193    47A      0.410098  
      48A      0.416419    49A      0.425701    50A      0.436916  
      51A      0.458705    52A      0.473394    53A      0.477483  
      54A      0.499770    55A      0.513796    56A      0.522409  
      57A      0.531867    58A      0.537257    59A      0.545778  
      60A      0.553853    61A      0.565925    62A      0.572887  
      63A      0.574230    64A      0.610061    65A      0.620531  
      66A      0.647526    67A      0.667159    68A      0.676967  
      69A      0.683875    70A      0.689862    71A      0.696748  
      72A      0.708339    73A      0.717701    74A      0.726722  
      75A      0.734563    76A      0.749253    77A      0.762467  
      78A      0.764376    79A      0.773657    80A      0.785786  
      81A      0.801214    82A      0.808087    83A      0.814256  
      84A      0.828969    85A      0.844119    86A      0.858370  
      87A      0.866332    88A      0.877786    89A      0.881503  
      90A      0.885057    91A      0.893205    92A      0.902631  
      93A      0.910173    94A      0.927343    95A      0.951078  
      96A      0.965845    97A      0.972041    98A      0.979197  
      99A      0.995873   100A      1.004398   101A      1.015830  
     102A      1.030567   103A      1.049050   104A      1.060539  
     105A      1.067638   106A      1.072959   107A      1.082518  
     108A      1.097075   109A      1.100003   110A      1.117720  
     111A      1.131606   112A      1.148228   113A      1.161219  
     114A      1.178583   115A      1.182247   116A      1.213095  
     117A      1.230098   118A      1.260690   119A      1.281044  
     120A      1.308180   121A      1.316900   122A      1.337850  
     123A      1.356295   124A      1.363466   125A      1.422863  
     126A      1.436591   127A      1.448500   128A      1.465158  
     129A      1.488159   130A      1.511702   131A      1.526704  
     132A      1.529151   133A      1.549726   134A      1.568769  
     135A      1.582149   136A      1.592541   137A      1.603418  
     138A      1.624136   139A      1.639305   140A      1.654986  
     141A      1.661393   142A      1.671790   143A      1.680653  
     144A      1.682600   145A      1.708347   146A      1.717102  
     147A      1.725261   148A      1.747406   149A      1.760046  
     150A      1.771933   151A      1.787115   152A      1.800665  
     153A      1.815214   154A      1.833737   155A      1.837739  
     156A      1.850855   157A      1.863410   158A      1.871450  
     159A      1.884831   160A      1.894952   161A      1.905161  
     162A      1.926163   163A      1.928603   164A      1.950455  
     165A      1.952646   166A      1.957312   167A      1.968836  
     168A      1.983475   169A      2.008623   170A      2.018818  
     171A      2.031354   172A      2.049216   173A      2.052746  
     174A      2.059428   175A      2.082734   176A      2.100546  
     177A      2.101516   178A      2.112569   179A      2.138909  
     180A      2.151809   181A      2.182215   182A      2.190770  
     183A      2.198558   184A      2.210908   185A      2.228428  
     186A      2.236627   187A      2.249995   188A      2.268796  
     189A      2.278276   190A      2.295295   191A      2.297660  
     192A      2.317345   193A      2.342872   194A      2.366573  
     195A      2.381927   196A      2.425974   197A      2.446805  
     198A      2.466675   199A      2.487464   200A      2.511499  
     201A      2.525324   202A      2.530289   203A      2.560706  
     204A      2.581027   205A      2.606881   206A      2.617556  
     207A      2.637118   208A      2.654652   209A      2.683780  
     210A      2.711880   211A      2.734779   212A      2.746738  
     213A      2.770869   214A      2.799527   215A      2.810582  
     216A      2.822757   217A      2.849778   218A      2.870681  
     219A      2.906822   220A      2.919421   221A      2.936573  
     222A      2.960989   223A      2.986040   224A      2.997917  
     225A      3.007097   226A      3.025550   227A      3.041596  
     228A      3.046744   229A      3.078973   230A      3.120257  
     231A      3.141647   232A      3.160652   233A      3.191163  
     234A      3.201602   235A      3.222332   236A      3.246769  
     237A      3.256324   238A      3.270892   239A      3.281816  
     240A      3.315614   241A      3.342367   242A      3.372557  
     243A      3.373577   244A      3.383899   245A      3.401092  
     246A      3.430897   247A      3.452351   248A      3.465651  
     249A      3.478178   250A      3.484792   251A      3.561123  
     252A      3.629626   253A      3.641677   254A      3.674678  
     255A      3.708120   256A      3.732530   257A      3.754424  
     258A      3.790054   259A      3.807465   260A      3.829845  
     261A      3.840074   262A      3.897007   263A      3.911892  
     264A      3.949893   265A      3.973069   266A      3.986443  
     267A      4.023064   268A      4.066397   269A      4.116500  
     270A      4.125601   271A      4.169504   272A      4.173314  
     273A      4.201904   274A      4.213973   275A      4.227314  
     276A      4.270251   277A      4.282758   278A      4.297424  
     279A      4.372289   280A      4.382996   281A      4.435384  
     282A      4.453730   283A      4.518595   284A      4.594157  
     285A      4.636594   286A      4.698814   287A      4.711385  
     288A      4.724046   289A      4.739920   290A      4.851666  
     291A      4.867032   292A      4.881604   293A      4.896794  
     294A      4.923158   295A      4.938569   296A      4.990685  
     297A      4.993316   298A      5.027029   299A      5.115566  
     300A      5.131224   301A      5.181103   302A      5.260239  
     303A      5.363108   304A      5.424546   305A      5.447558  
     306A      5.462642   307A      5.487209   308A      5.565751  
     309A      5.591178   310A      5.628652   311A      5.641614  
     312A      5.669950   313A      5.696494   314A      5.829448  
     315A      5.850397   316A      5.858118   317A      5.903157  
     318A      5.923318   319A      6.002982   320A      6.112818  
     321A      6.199380   322A      6.336487   323A      6.363825  
     324A      6.404924   325A      6.418199   326A      6.451405  
     327A      6.517864   328A      6.566319   329A      6.737379  
     330A      6.758532   331A      6.785101   332A      6.804865  
     333A      6.857061   334A      6.868550   335A      6.876176  
     336A      6.934133   337A      6.945767   338A      6.973029  
     339A      6.990928   340A      7.014984   341A      7.120802  
     342A      7.159836   343A      7.210365   344A      7.244564  
     345A      7.294769   346A      7.347552   347A      7.365000  
     348A      7.390689   349A      7.619786   350A      7.642666  
     351A      7.649834   352A      7.655603   353A      7.740473  
     354A      7.761954   355A      7.780605   356A      7.805836  
     357A      7.834473   358A      7.849011   359A      7.871719  
     360A      7.882558   361A      7.887627   362A      7.902073  
     363A      7.919595   364A      7.937504   365A      7.971753  
     366A      7.983158   367A      8.000175   368A      8.044219  
     369A      8.130340   370A      8.141972   371A      8.170357  
     372A      8.208313   373A      8.317259   374A      8.331410  
     375A      8.386161   376A      8.417387   377A      8.518320  
     378A      8.539682   379A      8.546615   380A      8.627581  
     381A      8.674208   382A      8.790989   383A      8.801695  
     384A      8.830184   385A      8.838939   386A      8.866288  
     387A      8.876860   388A      8.897182   389A      8.911116  
     390A      9.020273   391A      9.058864   392A      9.169675  
     393A      9.207268   394A      9.239321   395A      9.305317  
     396A      9.308102   397A      9.397946   398A      9.515802  
     399A      9.529266   400A      9.579441   401A      9.619699  
     402A      9.685371   403A      9.693359   404A      9.762533  
     405A      9.768101   406A      9.829579   407A      9.832800  
     408A      9.869678   409A      9.888049   410A     10.000669  
     411A     10.034402   412A     10.047259   413A     10.051188  
     414A     10.057325   415A     10.285725   416A     10.306295  
     417A     10.470650   418A     10.492787   419A     10.560667  
     420A     10.596299   421A     10.609016   422A     10.723011  
     423A     10.741113   424A     10.749803   425A     10.765974  
     426A     10.824111   427A     10.908514   428A     11.030317  
     429A     11.083495   430A     11.169092   431A     11.175534  
     432A     11.208049   433A     11.295811   434A     11.321742  
     435A     11.349581   436A     11.422837   437A     11.493630  
     438A     11.722593   439A     11.846210   440A     11.898625  
     441A     12.006776   442A     12.051767   443A     12.095300  
     444A     12.140911   445A     12.211761   446A     12.291219  
     447A     12.320222   448A     12.598143   449A     12.812776  
     450A     12.902763   451A     12.919089   452A     13.107606  
     453A     13.142522   454A     13.266573   455A     13.551840  
     456A     14.018002   457A     14.173037   458A     14.510623  
     459A     14.785446   460A     14.856848   461A     14.916982  
     462A     15.335123   463A     16.459487   464A     17.033688  
     465A     17.276051   466A     17.296310   467A     17.313811  
     468A     31.088370   469A     31.144149   470A     31.340815  
     471A     43.235435   472A     45.729410   473A     71.608861  
     474A    160.394542  

    Final Occupation by Irrep:
              A 
    DOCC [     5 ]

  @DF-RHF Final Energy:   -76.06583063822217

   => Energetics <=

    Nuclear Repulsion Energy =              9.1814286862845318
    One-Electron Energy =                -123.0453977206199880
    Two-Electron Energy =                  37.7981383961133020
    Total Energy =                        -76.0658306382221525

Computation Completed


Properties will be evaluated at   0.000000,  -0.000000,   0.000000 [a0]

Properties computed using the SCF density matrix

  Nuclear Dipole Moment: [e a0]
     X:    37.4294      Y:   -27.8921      Z:    16.3815

  Electronic Dipole Moment: [e a0]
     X:   -38.1820      Y:    27.8796      Z:   -16.3353

  Dipole Moment: [e a0]
     X:    -0.7526      Y:    -0.0125      Z:     0.0462     Total:     0.7541

  Dipole Moment: [D]
     X:    -1.9129      Y:    -0.0318      Z:     0.1174     Total:     1.9168


*** tstop() called on node37.bme.utexas.edu at Tue Feb 22 17:48:08 2022
Module time:
	user time   =      66.45 seconds =       1.11 minutes
	system time =       3.88 seconds =       0.06 minutes
	total time  =         24 seconds =       0.40 minutes
Total time:
	user time   =     116.26 seconds =       1.94 minutes
	system time =       7.46 seconds =       0.12 minutes
	total time  =         47 seconds =       0.78 minutes

*** tstart() called on node37.bme.utexas.edu
*** at Tue Feb 22 17:48:08 2022


  //>>>>>>>>>>>>>>>>>>>>>>>>>>>>>>>>>>>//
  //               DFMP2               //
  //<<<<<<<<<<<<<<<<<<<<<<<<<<<<<<<<<<<//

   => Loading Basis Set <=

    Name: (AUG-CC-PVQZ AUX)
    Role: RIFIT
    Keyword: DF_BASIS_MP2
    atoms 1        entry CL         line   914 file /home/bdw2292/miniconda3/envs/amoebamdpoltype/share/psi4/basis/aug-cc-pvqz-ri.gbs 
    atoms 2        entry C          line   184 file /home/bdw2292/miniconda3/envs/amoebamdpoltype/share/psi4/basis/aug-cc-pvqz-ri.gbs 
    atoms 3-5, 7-8 entry H          line    30 file /home/bdw2292/miniconda3/envs/amoebamdpoltype/share/psi4/basis/aug-cc-pvqz-ri.gbs 
    atoms 6        entry O          line   332 file /home/bdw2292/miniconda3/envs/amoebamdpoltype/share/psi4/basis/aug-cc-pvqz-ri.gbs 

	 --------------------------------------------------------
	                          DF-MP2                         
	      2nd-Order Density-Fitted Moller-Plesset Theory     
	              RMP2 Wavefunction,   4 Threads             
	                                                         
	        Rob Parrish, Justin Turney, Andy Simmonett,      
	           Ed Hohenstein, and C. David Sherrill          
	 --------------------------------------------------------

   => Auxiliary Basis Set <=

  Basis Set: (AUG-CC-PVQZ AUX)
    Blend: AUG-CC-PVQZ-RI
    Number of shells: 216
    Number of basis function: 930
    Number of Cartesian functions: 1267
    Spherical Harmonics?: true
    Max angular momentum: 5

	 --------------------------------------------------------
	                 NBF =   474, NAUX =   930
	 --------------------------------------------------------
	   CLASS    FOCC     OCC    AOCC    AVIR     VIR    FVIR
	   PAIRS       1       5       4     469     469       0
	 --------------------------------------------------------

	-----------------------------------------------------------
	 ==================> DF-MP2 Energies <==================== 
	-----------------------------------------------------------
	 Reference Energy          =     -76.0658306382221667 [Eh]
	 Singles Energy            =      -0.0000000000000000 [Eh]
	 Same-Spin Energy          =      -0.0671733017454546 [Eh]
	 Opposite-Spin Energy      =      -0.2186047580784807 [Eh]
	 Correlation Energy        =      -0.2857780598239353 [Eh]
	 Total Energy              =     -76.3516086980461068 [Eh]
	-----------------------------------------------------------
	 ================> DF-SCS-MP2 Energies <================== 
	-----------------------------------------------------------
	 SCS Same-Spin Scale       =       0.3333333333333333 [-]
	 SCS Opposite-Spin Scale   =       1.2000000000000000 [-]
	 SCS Same-Spin Energy      =      -0.0223911005818182 [Eh]
	 SCS Opposite-Spin Energy  =      -0.2623257096941768 [Eh]
	 SCS Correlation Energy    =      -0.2847168102759950 [Eh]
	 SCS Total Energy          =     -76.3505474484981619 [Eh]
	-----------------------------------------------------------


*** tstop() called on node37.bme.utexas.edu at Tue Feb 22 17:48:20 2022
Module time:
	user time   =      29.00 seconds =       0.48 minutes
	system time =       2.46 seconds =       0.04 minutes
	total time  =         12 seconds =       0.20 minutes
Total time:
	user time   =     145.27 seconds =       2.42 minutes
	system time =       9.92 seconds =       0.17 minutes
	total time  =         59 seconds =       0.98 minutes

  //>>>>>>>>>>>>>>>>>>>>>>>>>>>>>>>>>>>//
  //  CBS Results: mp2/aug-cc-pV[TQ]Z  //
  //<<<<<<<<<<<<<<<<<<<<<<<<<<<<<<<<<<<//


   ==> HF <==

   HI-zeta (4) Energy:               -76.065830638222


   ==> Helgaker 2-point correlated extrapolation for method: MP2 <==

   LO-zeta (3) Energy:               -76.328734135285
   HI-zeta (4) Energy:               -76.351608698046
   Alpha (exponent) Value:             3.000000000000
   Extrapolated Energy:              -76.368300946547

   @Extrapolated MP2/(T,Q):          -76.368300946547



   ==> Helgaker 2-point correlated extrapolation for method: HF <==

   LO-zeta (3) Energy:               -76.060463397098
   HI-zeta (4) Energy:               -76.065830638222
   Alpha (exponent) Value:             3.000000000000
   Extrapolated Energy:              -76.069747273637

   @Extrapolated HF/(T,Q):           -76.069747273637


   ==> Components <==

  ---------------------------------------------------------------------------------------------------------
                          Method / Basis                      Rqd      Energy [Eh]   Variable
  ---------------------------------------------------------------------------------------------------------
                              hf / aug-cc-pvtz                  *     -76.06046340   HF TOTAL ENERGY
                             mp2 / aug-cc-pvtz                  *     -76.32873414   MP2 TOTAL ENERGY
                              hf / aug-cc-pvqz                  *     -76.06583064   HF TOTAL ENERGY
                             mp2 / aug-cc-pvqz                  *     -76.35160870   MP2 TOTAL ENERGY
  ---------------------------------------------------------------------------------------------------------

   ==> Stages <==

  ---------------------------------------------------------------------------------------------------------
      Stage               Method / Basis                       Wt      Energy [Eh]   Scheme
  ---------------------------------------------------------------------------------------------------------
        scf                   hf / aug-cc-pvqz                  1     -76.06583064   xtpl_highest_1
       corl                  mp2 / aug-cc-pv[tq]z               1     -76.36830095   corl_xtpl_helgaker_2
       corl                   hf / aug-cc-pv[tq]z              -1     -76.06974727   corl_xtpl_helgaker_2
  ---------------------------------------------------------------------------------------------------------

   ==> CBS <==

  ---------------------------------------------------------------------------------------------------------
      Stage               Method / Basis                               Energy [Eh]   Scheme
  ---------------------------------------------------------------------------------------------------------
        scf                   hf / aug-cc-pvqz                        -76.06583064   xtpl_highest_1
       corl                  mp2 / aug-cc-pv[tq]z                      -0.29855367   corl_xtpl_helgaker_2
      total                  CBS                                      -76.36438431   
  ---------------------------------------------------------------------------------------------------------
   => Loading Basis Set <=

    Name: DEF2-SVP
    Role: ORBITAL
    Keyword: BASIS
    atoms 1        entry CL         line   356 file /home/bdw2292/miniconda3/envs/amoebamdpoltype/share/psi4/basis/def2-svp.gbs 
    atoms 2        entry C          line    90 file /home/bdw2292/miniconda3/envs/amoebamdpoltype/share/psi4/basis/def2-svp.gbs 
    atoms 3-5, 7-8 entry H          line    15 file /home/bdw2292/miniconda3/envs/amoebamdpoltype/share/psi4/basis/def2-svp.gbs 
    atoms 6        entry O          line   130 file /home/bdw2292/miniconda3/envs/amoebamdpoltype/share/psi4/basis/def2-svp.gbs 


       N-Body: Complex Energy (fragments = (2,), basis = (1, 2):   -76.36438431113238)

       N-Body: Computing complex (3/4) with fragments (1,) in the basis of fragments (1, 2).


  //>>>>>>>>>>>>>>>>>>>>>>>>>>>>>>>>>>>//
  //   CBS Setup: mp2/aug-cc-pV[TQ]Z   //
  //<<<<<<<<<<<<<<<<<<<<<<<<<<<<<<<<<<<//

    Naive listing of computations required.
             hf / aug-cc-pvqz              for  HF TOTAL ENERGY
            mp2 / aug-cc-pvtz              for  MP2 TOTAL ENERGY
            mp2 / aug-cc-pvqz              for  MP2 TOTAL ENERGY
             hf / aug-cc-pvtz              for  HF TOTAL ENERGY
             hf / aug-cc-pvqz              for  HF TOTAL ENERGY

    Enlightened listing of computations required.
            mp2 / aug-cc-pvtz              for  MP2 TOTAL ENERGY
            mp2 / aug-cc-pvqz              for  MP2 TOTAL ENERGY

    Full listing of computations to be obtained (required and bonus).
             hf / aug-cc-pvtz              for  HF TOTAL ENERGY
            mp2 / aug-cc-pvtz              for  MP2 TOTAL ENERGY
             hf / aug-cc-pvqz              for  HF TOTAL ENERGY
            mp2 / aug-cc-pvqz              for  MP2 TOTAL ENERGY

  //>>>>>>>>>>>>>>>>>>>>>>>>>>>>>>>>>>>>//
  // CBS Computation: MP2 / AUG-CC-PVTZ //
  //<<<<<<<<<<<<<<<<<<<<<<<<<<<<<<<<<<<<//

    SCF Algorithm Type (re)set to DF.

*** tstart() called on node37.bme.utexas.edu
*** at Tue Feb 22 17:48:21 2022

   => Loading Basis Set <=

    Name: AUG-CC-PVTZ
    Role: ORBITAL
    Keyword: BASIS
    atoms 1        entry CL         line   984 file /home/bdw2292/miniconda3/envs/amoebamdpoltype/share/psi4/basis/aug-cc-pvtz.gbs 
    atoms 2        entry C          line   235 file /home/bdw2292/miniconda3/envs/amoebamdpoltype/share/psi4/basis/aug-cc-pvtz.gbs 
    atoms 3-5, 7-8 entry H          line    36 file /home/bdw2292/miniconda3/envs/amoebamdpoltype/share/psi4/basis/aug-cc-pvtz.gbs 
    atoms 6        entry O          line   327 file /home/bdw2292/miniconda3/envs/amoebamdpoltype/share/psi4/basis/aug-cc-pvtz.gbs 


         ---------------------------------------------------------
                                   SCF
               by Justin Turney, Rob Parrish, Andy Simmonett
                          and Daniel G. A. Smith
                              RHF Reference
                        4 Threads,  14305 MiB Core
         ---------------------------------------------------------

  ==> Geometry <==

    Molecular point group: c1
    Full point group: C1

    Geometry (in Angstrom), charge = 0, multiplicity = 1:

       Center              X                  Y                   Z               Mass       
    ------------   -----------------  -----------------  -----------------  -----------------
         CL          -0.251225755518     0.776965115169    -0.448979076650    34.968852682000
         C           -1.787563855518    -0.008175084831    -0.008434276650    12.000000000000
         H           -1.934400955518    -0.879548684831    -0.646987676650     1.007825032230
         H           -1.736917455518    -0.318889884831     1.035334923350     1.007825032230
         H           -2.604723255518     0.699758115169    -0.147308176650     1.007825032230
      Gh(O)           2.092609544482    -1.474164284831     0.860028923350    15.994914619570
      Gh(H)           1.570964344482    -2.139613184831     1.307193123350     1.007825032230
[...]
      28A      0.108428    29A      0.116304    30A      0.132667  
      31A      0.149788    32A      0.154602    33A      0.166345  
      34A      0.168737    35A      0.172142    36A      0.197903  
      37A      0.203390    38A      0.215952    39A      0.218812  
      40A      0.233101    41A      0.234952    42A      0.236645  
      43A      0.249654    44A      0.250416    45A      0.264553  
      46A      0.274323    47A      0.283324    48A      0.286440  
      49A      0.304482    50A      0.314384    51A      0.322419  
      52A      0.327857    53A      0.333273    54A      0.336296  
      55A      0.350153    56A      0.354130    57A      0.366107  
      58A      0.372766    59A      0.377154    60A      0.389207  
      61A      0.398176    62A      0.409808    63A      0.417320  
      64A      0.446575    65A      0.448804    66A      0.488987  
      67A      0.511215    68A      0.532414    69A      0.537781  
      70A      0.544492    71A      0.548763    72A      0.560286  
      73A      0.565293    74A      0.570281    75A      0.577158  
      76A      0.599266    77A      0.609181    78A      0.616553  
      79A      0.624423    80A      0.633052    81A      0.651385  
      82A      0.664938    83A      0.681101    84A      0.684455  
      85A      0.691899    86A      0.693678    87A      0.699837  
      88A      0.705165    89A      0.715682    90A      0.726412  
      91A      0.728585    92A      0.733760    93A      0.744657  
      94A      0.756482    95A      0.775538    96A      0.782833  
      97A      0.787790    98A      0.799620    99A      0.803986  
     100A      0.811427   101A      0.814099   102A      0.829346  
     103A      0.842504   104A      0.855071   105A      0.870731  
     106A      0.880967   107A      0.900232   108A      0.906481  
     109A      0.912790   110A      0.927800   111A      0.942420  
     112A      0.950943   113A      0.963630   114A      0.984455  
     115A      0.994358   116A      1.006155   117A      1.061869  
     118A      1.068792   119A      1.078366   120A      1.089500  
     121A      1.110898   122A      1.127378   123A      1.142777  
     124A      1.149775   125A      1.161370   126A      1.165866  
     127A      1.170168   128A      1.186394   129A      1.210068  
     130A      1.217495   131A      1.227997   132A      1.247326  
     133A      1.261722   134A      1.277336   135A      1.291750  
     136A      1.299800   137A      1.320643   138A      1.324466  
     139A      1.339092   140A      1.390925   141A      1.434799  
     142A      1.442952   143A      1.447210   144A      1.476010  
     145A      1.489751   146A      1.500488   147A      1.518702  
     148A      1.537449   149A      1.563618   150A      1.601288  
     151A      1.621149   152A      1.628421   153A      1.638335  
     154A      1.654779   155A      1.673997   156A      1.683030  
     157A      1.693400   158A      1.704155   159A      1.710837  
     160A      1.719963   161A      1.729037   162A      1.735167  
     163A      1.747430   164A      1.766087   165A      1.775336  
     166A      1.788980   167A      1.792850   168A      1.811739  
     169A      1.825267   170A      1.835501   171A      1.840153  
     172A      1.846427   173A      1.867395   174A      1.878525  
     175A      1.888963   176A      1.898914   177A      1.910078  
     178A      1.925709   179A      1.936340   180A      1.940847  
     181A      1.963385   182A      1.965810   183A      1.969560  
     184A      1.989118   185A      1.999487   186A      2.012886  
     187A      2.016444   188A      2.022525   189A      2.038388  
     190A      2.057450   191A      2.062864   192A      2.072883  
     193A      2.083048   194A      2.097190   195A      2.108745  
     196A      2.121984   197A      2.129523   198A      2.164399  
     199A      2.166032   200A      2.188937   201A      2.203871  
     202A      2.208814   203A      2.228544   204A      2.241589  
     205A      2.244127   206A      2.252534   207A      2.256489  
     208A      2.271727   209A      2.274223   210A      2.307492  
     211A      2.324687   212A      2.332438   213A      2.338065  
     214A      2.359758   215A      2.371513   216A      2.393572  
     217A      2.415120   218A      2.431539   219A      2.450777  
     220A      2.471970   221A      2.484015   222A      2.501402  
     223A      2.534368   224A      2.560064   225A      2.613521  
     226A      2.629215   227A      2.647172   228A      2.662112  
     229A      2.674508   230A      2.742748   231A      2.748541  
     232A      2.757753   233A      2.775749   234A      2.796572  
     235A      2.829798   236A      2.839623   237A      2.855383  
     238A      2.878410   239A      2.911438   240A      2.931002  
     241A      2.958343   242A      2.964729   243A      2.989671  
     244A      3.013065   245A      3.043910   246A      3.061620  
     247A      3.077109   248A      3.103467   249A      3.114663  
     250A      3.122167   251A      3.153438   252A      3.173547  
     253A      3.183400   254A      3.259521   255A      3.293580  
     256A      3.317979   257A      3.337121   258A      3.347615  
     259A      3.358699   260A      3.424530   261A      3.471396  
     262A      3.509043   263A      3.586604   264A      3.597395  
     265A      3.617065   266A      3.643396   267A      3.696493  
     268A      3.719676   269A      3.734425   270A      3.773728  
     271A      3.791412   272A      3.810319   273A      3.819264  
     274A      3.843568   275A      3.860747   276A      3.862450  
     277A      3.883883   278A      3.951001   279A      3.981134  
     280A      4.011546   281A      4.049548   282A      4.099245  
     283A      4.106087   284A      4.134872   285A      4.143570  
     286A      4.179531   287A      4.191328   288A      4.193287  
     289A      4.220696   290A      4.251274   291A      4.257864  
     292A      4.276033   293A      4.311462   294A      4.370387  
     295A      4.409871   296A      4.452258   297A      4.498961  
     298A      4.516883   299A      4.536295   300A      4.612768  
     301A      4.633979   302A      4.649073   303A      4.679689  
     304A      4.683669   305A      4.706318   306A      4.726052  
     307A      4.742983   308A      4.749002   309A      4.792581  
     310A      4.811442   311A      4.843380   312A      4.860949  
     313A      4.871323   314A      4.882219   315A      4.909767  
     316A      4.932392   317A      4.961358   318A      4.978790  
     319A      5.017654   320A      5.030840   321A      5.039993  
     322A      5.047914   323A      5.086957   324A      5.127552  
     325A      5.189469   326A      5.205949   327A      5.219154  
     328A      5.296722   329A      5.341986   330A      5.367322  
     331A      5.418453   332A      5.439393   333A      5.552694  
     334A      5.578972   335A      5.637339   336A      5.667709  
     337A      5.923878   338A      5.985885   339A      6.110451  
     340A      6.115334   341A      6.195998   342A      6.221198  
     343A      6.270785   344A      6.367087   345A      6.379730  
     346A      6.390863   347A      6.459370   348A      6.608528  
     349A      6.639807   350A      6.694054   351A      6.701153  
     352A      6.740527   353A      6.793615   354A      6.813061  
     355A      6.870200   356A      6.881967   357A      6.891546  
     358A      6.918539   359A      6.946842   360A      6.953264  
     361A      6.963088   362A      6.979029   363A      7.005657  
     364A      7.047049   365A      7.083380   366A      7.101689  
     367A      7.148156   368A      7.308964   369A      7.323778  
     370A      7.351080   371A      7.453476   372A      7.574068  
     373A      7.607422   374A      7.617988   375A      7.686258  
     376A      7.691537   377A      7.782187   378A      7.790847  
     379A      7.817956   380A      7.867332   381A      7.875070  
     382A      7.884456   383A      7.894233   384A      7.901951  
     385A      7.924293   386A      7.976848   387A      8.013057  
     388A      8.115856   389A      8.221691   390A      8.272383  
     391A      8.283121   392A      8.388755   393A      8.406177  
     394A      8.417878   395A      8.427784   396A      8.530537  
     397A      8.595354   398A      8.606716   399A      8.640369  
     400A      8.669691   401A      8.804963   402A      8.815180  
     403A      8.864375   404A      8.870722   405A      8.912828  
     406A      8.931985   407A      9.011081   408A      9.036358  
     409A      9.057494   410A      9.157407   411A      9.177039  
     412A      9.185386   413A      9.204346   414A      9.223631  
     415A      9.253544   416A      9.416210   417A      9.436401  
     418A      9.562370   419A      9.567330   420A      9.576051  
     421A      9.634597   422A      9.675922   423A      9.691241  
     424A      9.899560   425A      9.947793   426A      9.989746  
     427A     10.013688   428A     10.061071   429A     10.062580  
     430A     10.132321   431A     10.137678   432A     10.332256  
     433A     10.337928   434A     10.378593   435A     10.486859  
     436A     10.574907   437A     10.785840   438A     10.800703  
     439A     10.826293   440A     10.849107   441A     10.959912  
     442A     10.978380   443A     11.044697   444A     11.095967  
     445A     11.215484   446A     11.309417   447A     11.431612  
     448A     11.438761   449A     11.505039   450A     11.736191  
     451A     11.859947   452A     11.911728   453A     12.076514  
     454A     12.224691   455A     12.301845   456A     12.610961  
     457A     12.821999   458A     12.915646   459A     12.934756  
     460A     13.124677   461A     13.153256   462A     13.279224  
     463A     13.334148   464A     14.032395   465A     14.186138  
     466A     14.524638   467A     14.871113   468A     14.931209  
     469A     15.349742   470A     17.046166   471A     17.327270  
     472A     26.560404   473A     28.642541   474A     45.737352  

    Final Occupation by Irrep:
              A 
    DOCC [    18 ]

  @DF-RHF Final Energy:  -575.22137095949313

   => Energetics <=

    Nuclear Repulsion Energy =             98.2141157495120751
    One-Electron Energy =                -988.3505527864836040
    Two-Electron Energy =                 314.9150660774783432
    Total Energy =                       -575.2213709594932425

Computation Completed


Properties will be evaluated at   0.000000,  -0.000000,   0.000000 [a0]

Properties computed using the SCF density matrix

  Nuclear Dipole Moment: [e a0]
     X:    -2.7694      Y:    -3.9669      Z:     2.3178

  Electronic Dipole Moment: [e a0]
     X:     1.1858      Y:     3.6928      Z:    -2.1302

  Dipole Moment: [e a0]
     X:    -1.5836      Y:    -0.2741      Z:     0.1875     Total:     1.6180

  Dipole Moment: [D]
     X:    -4.0251      Y:    -0.6966      Z:     0.4766     Total:     4.1127


*** tstop() called on node37.bme.utexas.edu at Tue Feb 22 17:50:29 2022
Module time:
	user time   =      78.46 seconds =       1.31 minutes
	system time =       4.39 seconds =       0.07 minutes
	total time  =         30 seconds =       0.50 minutes
Total time:
	user time   =     448.75 seconds =       7.48 minutes
	system time =      28.92 seconds =       0.48 minutes
	total time  =        188 seconds =       3.13 minutes

*** tstart() called on node37.bme.utexas.edu
*** at Tue Feb 22 17:50:29 2022


  //>>>>>>>>>>>>>>>>>>>>>>>>>>>>>>>>>>>//
  //               DFMP2               //
  //<<<<<<<<<<<<<<<<<<<<<<<<<<<<<<<<<<<//

   => Loading Basis Set <=

    Name: (AUG-CC-PVQZ AUX)
    Role: RIFIT
    Keyword: DF_BASIS_MP2
    atoms 1        entry CL         line   914 file /home/bdw2292/miniconda3/envs/amoebamdpoltype/share/psi4/basis/aug-cc-pvqz-ri.gbs 
    atoms 2        entry C          line   184 file /home/bdw2292/miniconda3/envs/amoebamdpoltype/share/psi4/basis/aug-cc-pvqz-ri.gbs 
    atoms 3-5, 7-8 entry H          line    30 file /home/bdw2292/miniconda3/envs/amoebamdpoltype/share/psi4/basis/aug-cc-pvqz-ri.gbs 
    atoms 6        entry O          line   332 file /home/bdw2292/miniconda3/envs/amoebamdpoltype/share/psi4/basis/aug-cc-pvqz-ri.gbs 

	 --------------------------------------------------------
	                          DF-MP2                         
	      2nd-Order Density-Fitted Moller-Plesset Theory     
	              RMP2 Wavefunction,   4 Threads             
	                                                         
	        Rob Parrish, Justin Turney, Andy Simmonett,      
	           Ed Hohenstein, and C. David Sherrill          
	 --------------------------------------------------------

   => Auxiliary Basis Set <=

  Basis Set: (AUG-CC-PVQZ AUX)
    Blend: AUG-CC-PVQZ-RI
    Number of shells: 216
    Number of basis function: 930
    Number of Cartesian functions: 1267
    Spherical Harmonics?: true
    Max angular momentum: 5

	 --------------------------------------------------------
	                 NBF =   474, NAUX =   930
	 --------------------------------------------------------
	   CLASS    FOCC     OCC    AOCC    AVIR     VIR    FVIR
	   PAIRS       7      18      11     456     456       0
	 --------------------------------------------------------

	-----------------------------------------------------------
	 ==================> DF-MP2 Energies <==================== 
	-----------------------------------------------------------
	 Reference Energy          =    -575.2213709594931288 [Eh]
	 Singles Energy            =      -0.0000000000000000 [Eh]
	 Same-Spin Energy          =      -0.1566077663059952 [Eh]
	 Opposite-Spin Energy      =      -0.5388299028443938 [Eh]
	 Correlation Energy        =      -0.6954376691503890 [Eh]
	 Total Energy              =    -575.9168086286434800 [Eh]
	-----------------------------------------------------------
	 ================> DF-SCS-MP2 Energies <================== 
	-----------------------------------------------------------
	 SCS Same-Spin Scale       =       0.3333333333333333 [-]
	 SCS Opposite-Spin Scale   =       1.2000000000000000 [-]
	 SCS Same-Spin Energy      =      -0.0522025887686651 [Eh]
	 SCS Opposite-Spin Energy  =      -0.6465958834132726 [Eh]
	 SCS Correlation Energy    =      -0.6987984721819376 [Eh]
	 SCS Total Energy          =    -575.9201694316750491 [Eh]
	-----------------------------------------------------------


*** tstop() called on node37.bme.utexas.edu at Tue Feb 22 17:50:43 2022
Module time:
	user time   =      29.98 seconds =       0.50 minutes
	system time =       2.16 seconds =       0.04 minutes
	total time  =         14 seconds =       0.23 minutes
Total time:
	user time   =     478.73 seconds =       7.98 minutes
	system time =      31.08 seconds =       0.52 minutes
	total time  =        202 seconds =       3.37 minutes

  //>>>>>>>>>>>>>>>>>>>>>>>>>>>>>>>>>>>//
  //  CBS Results: mp2/aug-cc-pV[TQ]Z  //
  //<<<<<<<<<<<<<<<<<<<<<<<<<<<<<<<<<<<//


   ==> HF <==

   HI-zeta (4) Energy:               -575.221370959493


   ==> Helgaker 2-point correlated extrapolation for method: MP2 <==

   LO-zeta (3) Energy:               -575.861235103336
   HI-zeta (4) Energy:               -575.916808628643
   Alpha (exponent) Value:             3.000000000000
   Extrapolated Energy:              -575.957362282246

   @Extrapolated MP2/(T,Q):          -575.957362282246



   ==> Helgaker 2-point correlated extrapolation for method: HF <==

   LO-zeta (3) Energy:               -575.209946631752
   HI-zeta (4) Energy:               -575.221370959493
   Alpha (exponent) Value:             3.000000000000
   Extrapolated Energy:              -575.229707631088

   @Extrapolated HF/(T,Q):           -575.229707631088


   ==> Components <==

  ---------------------------------------------------------------------------------------------------------
                          Method / Basis                      Rqd      Energy [Eh]   Variable
  ---------------------------------------------------------------------------------------------------------
                              hf / aug-cc-pvtz                  *    -575.20994663   HF TOTAL ENERGY
                             mp2 / aug-cc-pvtz                  *    -575.86123510   MP2 TOTAL ENERGY
                              hf / aug-cc-pvqz                  *    -575.22137096   HF TOTAL ENERGY
                             mp2 / aug-cc-pvqz                  *    -575.91680863   MP2 TOTAL ENERGY
  ---------------------------------------------------------------------------------------------------------

   ==> Stages <==

  ---------------------------------------------------------------------------------------------------------
      Stage               Method / Basis                       Wt      Energy [Eh]   Scheme
  ---------------------------------------------------------------------------------------------------------
        scf                   hf / aug-cc-pvqz                  1    -575.22137096   xtpl_highest_1
       corl                  mp2 / aug-cc-pv[tq]z               1    -575.95736228   corl_xtpl_helgaker_2
       corl                   hf / aug-cc-pv[tq]z              -1    -575.22970763   corl_xtpl_helgaker_2
  ---------------------------------------------------------------------------------------------------------

   ==> CBS <==

  ---------------------------------------------------------------------------------------------------------
      Stage               Method / Basis                               Energy [Eh]   Scheme
  ---------------------------------------------------------------------------------------------------------
        scf                   hf / aug-cc-pvqz                       -575.22137096   xtpl_highest_1
       corl                  mp2 / aug-cc-pv[tq]z                      -0.72765465   corl_xtpl_helgaker_2
      total                  CBS                                     -575.94902561   
  ---------------------------------------------------------------------------------------------------------
   => Loading Basis Set <=

    Name: DEF2-SVP
    Role: ORBITAL
    Keyword: BASIS
    atoms 1        entry CL         line   356 file /home/bdw2292/miniconda3/envs/amoebamdpoltype/share/psi4/basis/def2-svp.gbs 
    atoms 2        entry C          line    90 file /home/bdw2292/miniconda3/envs/amoebamdpoltype/share/psi4/basis/def2-svp.gbs 
    atoms 3-5, 7-8 entry H          line    15 file /home/bdw2292/miniconda3/envs/amoebamdpoltype/share/psi4/basis/def2-svp.gbs 
    atoms 6        entry O          line   130 file /home/bdw2292/miniconda3/envs/amoebamdpoltype/share/psi4/basis/def2-svp.gbs 


       N-Body: Complex Energy (fragments = (1, 2), basis = (1, 2):  -575.94902561065089)

   ==> N-Body: Counterpoise Corrected (CP) energies <==

   n-Body     Total Energy [Eh]       I.E. [kcal/mol]      Delta [kcal/mol]
        1     -575.945672468209        0.000000000000        0.000000000000
        2     -575.948917320162       -2.036175341807       -2.036175341807

   => Loading Basis Set <=

    Name: DEF2-SVP
    Role: ORBITAL
    Keyword: BASIS
    atoms 1        entry CL         line   356 file /home/bdw2292/miniconda3/envs/amoebamdpoltype/share/psi4/basis/def2-svp.gbs 
    atoms 2        entry C          line    90 file /home/bdw2292/miniconda3/envs/amoebamdpoltype/share/psi4/basis/def2-svp.gbs 
    atoms 3-5, 7-8 entry H          line    15 file /home/bdw2292/miniconda3/envs/amoebamdpoltype/share/psi4/basis/def2-svp.gbs 
    atoms 6        entry O          line   130 file /home/bdw2292/miniconda3/envs/amoebamdpoltype/share/psi4/basis/def2-svp.gbs 

CP Energy =  -0.003245
    Psi4 stopped on: Tuesday, 22 February 2022 05:50PM
    Psi4 wall time for execution: 0:03:24.14

*** Psi4 exiting successfully. Buy a developer a beer!
