
    -----------------------------------------------------------------------
          Psi4: An Open-Source Ab Initio Electronic Structure Package
                               Psi4 1.3.2 release

                         Git: Rev {HEAD} ecbda83 


    R. M. Parrish, L. A. Burns, D. G. A. Smith, A. C. Simmonett,
    A. E. DePrince III, E. G. Hohenstein, U. Bozkaya, A. Yu. Sokolov,
    R. Di Remigio, R. M. Richard, J. F. Gonthier, A. M. James,
    H. R. McAlexander, A. Kumar, M. Saitow, X. Wang, B. P. Pritchard,
    P. Verma, H. F. Schaefer III, K. Patkowski, R. A. King, E. F. Valeev,
    F. A. Evangelista, J. M. Turney, T. D. Crawford, and C. D. Sherrill,
    J. Chem. Theory Comput. 13(7) pp 3185--3197 (2017).
    (doi: 10.1021/acs.jctc.7b00174)


                         Additional Contributions by
    P. Kraus, H. Kruse, M. H. Lechner, M. C. Schieber, R. A. Shaw,
    A. Alenaizan, R. Galvelis, Z. L. Glick, S. Lehtola, and J. P. Misiewicz

    -----------------------------------------------------------------------


    Psi4 started on: Tuesday, 22 February 2022 06:21PM

    Process ID: 31332
    Host:       node37.bme.utexas.edu
    PSIDATADIR: /home/bdw2292/miniconda3/envs/amoebamdpoltype/share/psi4
    Memory:     500.0 MiB
    Threads:    1
    
  ==> Input File <==

--------------------------------------------------------------------------
molecule { 
0 1
 Cl                  0.4394908    -0.1801125    -0.5551848
  C                 -1.2708923    -0.1638391    -0.0650151
  H                 -1.8543908    -0.7369805    -0.7855537
  H                 -1.3567971    -0.6113388     0.9253055
  H                 -1.6196502     0.8685789    -0.0375069
--
0 1
 Cl                  3.3887963     1.5467717     2.3892560
  C                  1.6196099     1.3795263     2.4933524
  H                  1.2756186     0.7450813     1.6769138
  H                  1.3638176     0.9276596     3.4514816
  H                  1.1665518     2.3675465     2.4150163
}
memory 15GB
set_num_threads(4)
psi4_io.set_default_path("/scratch/bdw2292/Psi4-CH3Cl")
set maxiter 500
set freeze_core True
set PROPERTIES_ORIGIN ["COM"]
e_dim= energy('mp2/aug-cc-pV[TQ]Z',bsse_type='cp')

psi4.print_out('CP Energy = %10.6f' % (e_dim))
clean()
--------------------------------------------------------------------------

  Memory set to  13.970 GiB by Python driver.
  Threads set to 4 by Python driver.


   ===> N-Body Interaction Abacus <===
        BSSE Treatment:                     cp
        Number of 1-body computations:     4
        Number of 2-body computations:     1

   ==> N-Body: Now computing 1-body complexes <==


       N-Body: Computing complex (1/4) with fragments (2,) in the basis of fragments (2,).


  //>>>>>>>>>>>>>>>>>>>>>>>>>>>>>>>>>>>//
  //   CBS Setup: mp2/aug-cc-pV[TQ]Z   //
  //<<<<<<<<<<<<<<<<<<<<<<<<<<<<<<<<<<<//

    Naive listing of computations required.
             hf / aug-cc-pvqz              for  HF TOTAL ENERGY
            mp2 / aug-cc-pvtz              for  MP2 TOTAL ENERGY
            mp2 / aug-cc-pvqz              for  MP2 TOTAL ENERGY
             hf / aug-cc-pvtz              for  HF TOTAL ENERGY
             hf / aug-cc-pvqz              for  HF TOTAL ENERGY

    Enlightened listing of computations required.
            mp2 / aug-cc-pvtz              for  MP2 TOTAL ENERGY
            mp2 / aug-cc-pvqz              for  MP2 TOTAL ENERGY

    Full listing of computations to be obtained (required and bonus).
             hf / aug-cc-pvtz              for  HF TOTAL ENERGY
            mp2 / aug-cc-pvtz              for  MP2 TOTAL ENERGY
             hf / aug-cc-pvqz              for  HF TOTAL ENERGY
            mp2 / aug-cc-pvqz              for  MP2 TOTAL ENERGY

  //>>>>>>>>>>>>>>>>>>>>>>>>>>>>>>>>>>>>//
  // CBS Computation: MP2 / AUG-CC-PVTZ //
  //<<<<<<<<<<<<<<<<<<<<<<<<<<<<<<<<<<<<//

    SCF Algorithm Type (re)set to DF.

*** tstart() called on node37.bme.utexas.edu
*** at Tue Feb 22 18:21:36 2022

   => Loading Basis Set <=

    Name: AUG-CC-PVTZ
    Role: ORBITAL
    Keyword: BASIS
    atoms 1   entry CL         line   984 file /home/bdw2292/miniconda3/envs/amoebamdpoltype/share/psi4/basis/aug-cc-pvtz.gbs 
    atoms 2   entry C          line   235 file /home/bdw2292/miniconda3/envs/amoebamdpoltype/share/psi4/basis/aug-cc-pvtz.gbs 
    atoms 3-5 entry H          line    36 file /home/bdw2292/miniconda3/envs/amoebamdpoltype/share/psi4/basis/aug-cc-pvtz.gbs 


         ---------------------------------------------------------
                                   SCF
               by Justin Turney, Rob Parrish, Andy Simmonett
                          and Daniel G. A. Smith
                              RHF Reference
                        4 Threads,  14305 MiB Core
         ---------------------------------------------------------

  ==> Geometry <==

    Molecular point group: c1
    Full point group: C1

    Geometry (in Angstrom), charge = 0, multiplicity = 1:

       Center              X                  Y                   Z               Mass       
    ------------   -----------------  -----------------  -----------------  -----------------
         CL           2.018360521876     0.886998871274     1.379292053558    34.968852682000
         C            0.249174121876     0.719753471274     1.483388453558    12.000000000000
         H           -0.094817178124     0.085308471274     0.666949853558     1.007825032230
         H           -0.006618178124     0.267886771274     2.441517653558     1.007825032230
         H           -0.203883978124     1.707773671274     1.405052353558     1.007825032230

  Running in c1 symmetry.

  Rotational constants: A =      0.78233  B =      0.06448  C =      0.06026 [cm^-1]
  Rotational constants: A =  23453.70005  B =   1933.10186  C =   1806.40314 [MHz]
  Nuclear repulsion =   51.342189271446081

  Charge       = 0
  Multiplicity = 1
  Electrons    = 26
  Nalpha       = 13
  Nbeta        = 13

  ==> Algorithm <==

  SCF Algorithm Type is DF.
  DIIS enabled.
  MOM disabled.
  Fractional occupation disabled.
  Guess Type is SAD.
  Energy threshold   = 1.00e-08
  Density threshold  = 1.00e-08
  Integral threshold = 0.00e+00

  ==> Primary Basis <==

  Basis Set: AUG-CC-PVTZ
    Blend: AUG-CC-PVTZ
    Number of shells: 57
    Number of basis function: 165
    Number of Cartesian functions: 189
    Spherical Harmonics?: true
    Max angular momentum: 3

   => Loading Basis Set <=

    Name: (AUG-CC-PVTZ AUX)
    Role: JKFIT
    Keyword: DF_BASIS_SCF
    atoms 1   entry CL         line   816 file /home/bdw2292/miniconda3/envs/amoebamdpoltype/share/psi4/basis/aug-cc-pvtz-jkfit.gbs 
    atoms 2   entry C          line   162 file /home/bdw2292/miniconda3/envs/amoebamdpoltype/share/psi4/basis/aug-cc-pvtz-jkfit.gbs 
    atoms 3-5 entry H          line    70 file /home/bdw2292/miniconda3/envs/amoebamdpoltype/share/psi4/basis/aug-cc-pvtz-jkfit.gbs 

  ==> Pre-Iterations <==

   -------------------------------------------------------
    Irrep   Nso     Nmo     Nalpha   Nbeta   Ndocc  Nsocc
   -------------------------------------------------------
     A        165     165       0       0       0       0
   -------------------------------------------------------
    Total     165     165      13      13      13       0
   -------------------------------------------------------

  ==> Integral Setup <==

  DFHelper Memory: AOs need 0.086 GiB; user supplied 10.477 GiB. Using in-core AOs.

  ==> MemDFJK: Density-Fitted J/K Matrices <==

    J tasked:                   Yes
    K tasked:                   Yes
    wK tasked:                   No
    OpenMP threads:               4
    Memory [MiB]:             10728
    Algorithm:                 Core
    Schwarz Cutoff:           1E-12
    Mask sparsity (%):       0.0000
    Fitting Condition:        1E-10

   => Auxiliary Basis Set <=

  Basis Set: (AUG-CC-PVTZ AUX)
    Blend: AUG-CC-PVTZ-JKFIT
    Number of shells: 114
    Number of basis function: 388
    Number of Cartesian functions: 476
    Spherical Harmonics?: true
    Max angular momentum: 4

  Minimum eigenvalue in the overlap matrix is 7.4975283288E-05.
  Using Symmetric Orthogonalization.

  SCF Guess: Superposition of Atomic Densities via on-the-fly atomic UHF.

  ==> Iterations <==

                           Total Energy        Delta E     RMS |[F,P]|

   @DF-RHF iter SAD:  -498.70203592120021   -4.98702e+02   0.00000e+00 
   @DF-RHF iter   1:  -499.11157674125309   -4.09541e-01   1.46152e-03 DIIS
   @DF-RHF iter   2:  -499.14399989672381   -3.24232e-02   5.12420e-04 DIIS
   @DF-RHF iter   3:  -499.14794102881842   -3.94113e-03   1.55313e-04 DIIS
   @DF-RHF iter   4:  -499.14852289434992   -5.81866e-04   4.42530e-05 DIIS
   @DF-RHF iter   5:  -499.14856619105279   -4.32967e-05   6.52380e-06 DIIS
   @DF-RHF iter   6:  -499.14856757612807   -1.38508e-06   1.31270e-06 DIIS
   @DF-RHF iter   7:  -499.14856762937546   -5.32474e-08   4.38074e-07 DIIS
   @DF-RHF iter   8:  -499.14856763602984   -6.65437e-09   1.19740e-07 DIIS
   @DF-RHF iter   9:  -499.14856763673538   -7.05541e-10   2.00929e-08 DIIS
   @DF-RHF iter  10:  -499.14856763675306   -1.76783e-11   3.01909e-09 DIIS
  Energy and wave function converged.


  ==> Post-Iterations <==

    Orbital Energies [Eh]
    ---------------------

    Doubly Occupied:                                                      

       1A   -104.827059     2A    -11.291792     3A    -10.551342  
       4A     -8.018253     5A     -8.016379     6A     -8.016379  
       7A     -1.128437     8A     -0.914213     9A     -0.616321  
      10A     -0.616112    11A     -0.547251    12A     -0.435857  
      13A     -0.435805  

    Virtual:                                                              

      14A      0.028272    15A      0.046285    16A      0.046308  
      17A      0.065375    18A      0.115736    19A      0.126804  
      20A      0.126885    21A      0.133593    22A      0.139865  
      23A      0.139881    24A      0.202575    25A      0.207699  
      26A      0.207736    27A      0.263973    28A      0.275209  
      29A      0.275329    30A      0.306655    31A      0.332210  
      32A      0.332313    33A      0.343315    34A      0.343682  
      35A      0.354544    36A      0.354599    37A      0.391247  
      38A      0.424485    39A      0.436697    40A      0.436738  
      41A      0.452514    42A      0.452618    43A      0.493827  
      44A      0.493854    45A      0.510629    46A      0.510778  
      47A      0.513091    48A      0.661810    49A      0.661923  
      50A      0.711223    51A      0.742260    52A      0.782384  
      53A      0.782418    54A      0.797606    55A      0.862637  
      56A      0.862732    57A      0.870266    58A      0.893572  
      59A      0.893637    60A      0.932824    61A      0.932841  
      62A      0.950879    63A      0.961322    64A      0.961621  
      65A      0.985009    66A      1.021995    67A      1.027696  
      68A      1.027860    69A      1.055550    70A      1.094464  
      71A      1.094529    72A      1.105534    73A      1.129808  
      74A      1.130040    75A      1.152483    76A      1.167827  
      77A      1.168011    78A      1.274489    79A      1.274726  
      80A      1.286646    81A      1.384755    82A      1.408023  
      83A      1.408268    84A      1.492610    85A      1.567164  
      86A      1.582668    87A      1.582893    88A      1.626146  
      89A      1.664657    90A      1.674301    91A      1.674530  
      92A      1.703469    93A      1.703574    94A      1.755234  
      95A      1.820608    96A      1.820812    97A      1.932275  
      98A      1.932633    99A      1.936825   100A      1.964068  
     101A      2.043885   102A      2.044101   103A      2.188301  
     104A      2.188418   105A      2.196079   106A      2.481788  
     107A      2.627556   108A      2.627601   109A      2.685041  
     110A      2.685129   111A      2.707570   112A      2.929172  
     113A      2.929186   114A      2.976158   115A      3.040726  
     116A      3.107141   117A      3.134855   118A      3.134942  
     119A      3.139138   120A      3.183757   121A      3.244774  
     122A      3.244831   123A      3.350704   124A      3.350917  
     125A      3.555039   126A      3.555225   127A      3.555995  
     128A      3.568777   129A      3.592942   130A      3.593073  
     131A      3.795108   132A      3.795183   133A      3.909305  
     134A      3.909473   135A      4.031609   136A      4.077646  
     137A      4.077970   138A      4.081875   139A      4.152186  
     140A      4.191551   141A      4.191887   142A      4.450023  
     143A      4.450206   144A      4.493729   145A      4.734056  
     146A      4.734358   147A      4.758445   148A      4.848994  
     149A      4.866837   150A      4.968484   151A      4.968858  
     152A      5.167943   153A      5.168978   154A      5.202387  
     155A      5.506766   156A      5.507415   157A      5.540105  
     158A      5.615235   159A      5.916795   160A      6.035911  
     161A      6.036831   162A      6.594981   163A      6.595967  
     164A      7.523955   165A     16.743819  

    Final Occupation by Irrep:
              A 
    DOCC [    13 ]

  @DF-RHF Final Energy:  -499.14856763675306

   => Energetics <=

    Nuclear Repulsion Energy =             51.3421892714460810
    One-Electron Energy =                -790.1511156760835775
    Two-Electron Energy =                 239.6603587678844463
    Total Energy =                       -499.1485676367531141

Computation Completed


Properties will be evaluated at   2.769332,   1.577463,   2.668013 [a0]

Properties computed using the SCF density matrix

  Nuclear Dipole Moment: [e a0]
     X:    -4.9139      Y:    -0.4634      Z:     0.2904

  Electronic Dipole Moment: [e a0]
     X:     4.0869      Y:     0.3854      Z:    -0.2415

  Dipole Moment: [e a0]
     X:    -0.8270      Y:    -0.0780      Z:     0.0488     Total:     0.8321

  Dipole Moment: [D]
     X:    -2.1020      Y:    -0.1983      Z:     0.1241     Total:     2.1150


*** tstop() called on node37.bme.utexas.edu at Tue Feb 22 18:21:43 2022
Module time:
	user time   =      10.91 seconds =       0.18 minutes
	system time =       0.88 seconds =       0.01 minutes
	total time  =          7 seconds =       0.12 minutes
Total time:
	user time   =      10.91 seconds =       0.18 minutes
	system time =       0.88 seconds =       0.01 minutes
	total time  =          7 seconds =       0.12 minutes

*** tstart() called on node37.bme.utexas.edu
*** at Tue Feb 22 18:21:43 2022


  //>>>>>>>>>>>>>>>>>>>>>>>>>>>>>>>>>>>//
  //               DFMP2               //
  //<<<<<<<<<<<<<<<<<<<<<<<<<<<<<<<<<<<//

   => Loading Basis Set <=

    Name: (AUG-CC-PVTZ AUX)
    Role: RIFIT
    Keyword: DF_BASIS_MP2
    atoms 1   entry CL         line   742 file /home/bdw2292/miniconda3/envs/amoebamdpoltype/share/psi4/basis/aug-cc-pvtz-ri.gbs 
    atoms 2   entry C          line   148 file /home/bdw2292/miniconda3/envs/amoebamdpoltype/share/psi4/basis/aug-cc-pvtz-ri.gbs 
    atoms 3-5 entry H          line    30 file /home/bdw2292/miniconda3/envs/amoebamdpoltype/share/psi4/basis/aug-cc-pvtz-ri.gbs 

	 --------------------------------------------------------
	                          DF-MP2                         
	      2nd-Order Density-Fitted Moller-Plesset Theory     
	              RMP2 Wavefunction,   4 Threads             
	                                                         
	        Rob Parrish, Justin Turney, Andy Simmonett,      
	           Ed Hohenstein, and C. David Sherrill          
	 --------------------------------------------------------

   => Auxiliary Basis Set <=

  Basis Set: (AUG-CC-PVTZ AUX)
    Blend: AUG-CC-PVTZ-RI
    Number of shells: 107
    Number of basis function: 391
    Number of Cartesian functions: 492
    Spherical Harmonics?: true
    Max angular momentum: 4

	 --------------------------------------------------------
	                 NBF =   165, NAUX =   391
	 --------------------------------------------------------
	   CLASS    FOCC     OCC    AOCC    AVIR     VIR    FVIR
	   PAIRS       6      13       7     152     152       0
	 --------------------------------------------------------

	-----------------------------------------------------------
	 ==================> DF-MP2 Energies <==================== 
	-----------------------------------------------------------
	 Reference Energy          =    -499.1485676367530573 [Eh]
	 Singles Energy            =      -0.0000000000000000 [Eh]
	 Same-Spin Energy          =      -0.0856094926325368 [Eh]
	 Opposite-Spin Energy      =      -0.2948772870590454 [Eh]
	 Correlation Energy        =      -0.3804867796915822 [Eh]
	 Total Energy              =    -499.5290544164446374 [Eh]
	-----------------------------------------------------------
	 ================> DF-SCS-MP2 Energies <================== 
	-----------------------------------------------------------
	 SCS Same-Spin Scale       =       0.3333333333333333 [-]
	 SCS Opposite-Spin Scale   =       1.2000000000000000 [-]
	 SCS Same-Spin Energy      =      -0.0285364975441789 [Eh]
	 SCS Opposite-Spin Energy  =      -0.3538527444708545 [Eh]
	 SCS Correlation Energy    =      -0.3823892420150334 [Eh]
	 SCS Total Energy          =    -499.5309568787681087 [Eh]
	-----------------------------------------------------------


*** tstop() called on node37.bme.utexas.edu at Tue Feb 22 18:21:46 2022
Module time:
	user time   =       3.81 seconds =       0.06 minutes
	system time =       0.26 seconds =       0.00 minutes
	total time  =          3 seconds =       0.05 minutes
Total time:
	user time   =      14.73 seconds =       0.25 minutes
	system time =       1.14 seconds =       0.02 minutes
	total time  =         10 seconds =       0.17 minutes

  //>>>>>>>>>>>>>>>>>>>>>>>>>>>>>>>>>>>>//
  // CBS Computation: MP2 / AUG-CC-PVQZ //
  //<<<<<<<<<<<<<<<<<<<<<<<<<<<<<<<<<<<<//

    SCF Algorithm Type (re)set to DF.

*** tstart() called on node37.bme.utexas.edu
*** at Tue Feb 22 18:21:46 2022

   => Loading Basis Set <=

    Name: AUG-CC-PVQZ
    Role: ORBITAL
    Keyword: BASIS
    atoms 1   entry CL         line  1218 file /home/bdw2292/miniconda3/envs/amoebamdpoltype/share/psi4/basis/aug-cc-pvqz.gbs 
    atoms 2   entry C          line   299 file /home/bdw2292/miniconda3/envs/amoebamdpoltype/share/psi4/basis/aug-cc-pvqz.gbs 
    atoms 3-5 entry H          line    36 file /home/bdw2292/miniconda3/envs/amoebamdpoltype/share/psi4/basis/aug-cc-pvqz.gbs 


         ---------------------------------------------------------
                                   SCF
               by Justin Turney, Rob Parrish, Andy Simmonett
                          and Daniel G. A. Smith
                              RHF Reference
                        4 Threads,  14305 MiB Core
         ---------------------------------------------------------

  ==> Geometry <==

    Molecular point group: c1
    Full point group: C1

    Geometry (in Angstrom), charge = 0, multiplicity = 1:

       Center              X                  Y                   Z               Mass       
    ------------   -----------------  -----------------  -----------------  -----------------
         CL           2.018360521876     0.886998871274     1.379292053558    34.968852682000
         C            0.249174121876     0.719753471274     1.483388453558    12.000000000000
         H           -0.094817178124     0.085308471274     0.666949853558     1.007825032230
         H           -0.006618178124     0.267886771274     2.441517653558     1.007825032230
         H           -0.203883978124     1.707773671274     1.405052353558     1.007825032230

  Running in c1 symmetry.

  Rotational constants: A =      0.78233  B =      0.06448  C =      0.06026 [cm^-1]
  Rotational constants: A =  23453.70005  B =   1933.10186  C =   1806.40314 [MHz]
  Nuclear repulsion =   51.342189271446081

  Charge       = 0
  Multiplicity = 1
  Electrons    = 26
  Nalpha       = 13
  Nbeta        = 13

  ==> Algorithm <==

  SCF Algorithm Type is DF.
  DIIS enabled.
  MOM disabled.
  Fractional occupation disabled.
  Guess Type is SAD.
  Energy threshold   = 1.00e-08
  Density threshold  = 1.00e-08
  Integral threshold = 0.00e+00

  ==> Primary Basis <==

  Basis Set: AUG-CC-PVQZ
    Blend: AUG-CC-PVQZ
    Number of shells: 84
    Number of basis function: 302
    Number of Cartesian functions: 379
    Spherical Harmonics?: true
    Max angular momentum: 4

   => Loading Basis Set <=

    Name: (AUG-CC-PVQZ AUX)
    Role: JKFIT
    Keyword: DF_BASIS_SCF
    atoms 1   entry CL         line   904 file /home/bdw2292/miniconda3/envs/amoebamdpoltype/share/psi4/basis/aug-cc-pvqz-jkfit.gbs 
    atoms 2   entry C          line   178 file /home/bdw2292/miniconda3/envs/amoebamdpoltype/share/psi4/basis/aug-cc-pvqz-jkfit.gbs 
    atoms 3-5 entry H          line    70 file /home/bdw2292/miniconda3/envs/amoebamdpoltype/share/psi4/basis/aug-cc-pvqz-jkfit.gbs 

  ==> Pre-Iterations <==

   -------------------------------------------------------
    Irrep   Nso     Nmo     Nalpha   Nbeta   Ndocc  Nsocc
   -------------------------------------------------------
     A        302     302       0       0       0       0
   -------------------------------------------------------
    Total     302     302      13      13      13       0
   -------------------------------------------------------

  ==> Integral Setup <==

  DFHelper Memory: AOs need 0.404 GiB; user supplied 10.477 GiB. Using in-core AOs.

  ==> MemDFJK: Density-Fitted J/K Matrices <==

    J tasked:                   Yes
    K tasked:                   Yes
    wK tasked:                   No
    OpenMP threads:               4
    Memory [MiB]:             10728
    Algorithm:                 Core
    Schwarz Cutoff:           1E-12
    Mask sparsity (%):       0.0088
    Fitting Condition:        1E-10

   => Auxiliary Basis Set <=

  Basis Set: (AUG-CC-PVQZ AUX)
    Blend: AUG-CC-PVQZ-JKFIT
    Number of shells: 134
    Number of basis function: 554
    Number of Cartesian functions: 748
    Spherical Harmonics?: true
    Max angular momentum: 5

  Minimum eigenvalue in the overlap matrix is 1.6785926657E-05.
  Using Symmetric Orthogonalization.

  SCF Guess: Superposition of Atomic Densities via on-the-fly atomic UHF.

  ==> Iterations <==

                           Total Energy        Delta E     RMS |[F,P]|

   @DF-RHF iter SAD:  -498.70705864456068   -4.98707e+02   0.00000e+00 
   @DF-RHF iter   1:  -499.11724094406969   -4.10182e-01   8.20834e-04 DIIS
   @DF-RHF iter   2:  -499.15000955769790   -3.27686e-02   2.83985e-04 DIIS
   @DF-RHF iter   3:  -499.15400831215328   -3.99875e-03   8.74982e-05 DIIS
   @DF-RHF iter   4:  -499.15459868281891   -5.90371e-04   2.60573e-05 DIIS
   @DF-RHF iter   5:  -499.15464779451924   -4.91117e-05   3.82927e-06 DIIS
   @DF-RHF iter   6:  -499.15464944104258   -1.64652e-06   7.83002e-07 DIIS
   @DF-RHF iter   7:  -499.15464950761555   -6.65730e-08   2.80980e-07 DIIS
   @DF-RHF iter   8:  -499.15464951651069   -8.89514e-09   8.00607e-08 DIIS
   @DF-RHF iter   9:  -499.15464951756621   -1.05553e-09   1.37329e-08 DIIS
   @DF-RHF iter  10:  -499.15464951759009   -2.38742e-11   2.01293e-09 DIIS
  Energy and wave function converged.


  ==> Post-Iterations <==

    Orbital Energies [Eh]
    ---------------------

    Doubly Occupied:                                                      

       1A   -104.824977     2A    -11.290415     3A    -10.550418  
       4A     -8.017553     5A     -8.015828     6A     -8.015828  
       7A     -1.127976     8A     -0.913995     9A     -0.616250  
      10A     -0.616041    11A     -0.547331    12A     -0.435839  
      13A     -0.435788  

    Virtual:                                                              

      14A      0.025159    15A      0.041721    16A      0.041742  
      17A      0.055727    18A      0.097498    19A      0.108113  
      20A      0.108184    21A      0.114398    22A      0.114419  
      23A      0.117408    24A      0.173710    25A      0.173719  
      26A      0.174656    27A      0.231724    28A      0.240476  
      29A      0.240539    30A      0.254118    31A      0.271095  
      32A      0.271163    33A      0.273099    34A      0.273389  
      35A      0.283089    36A      0.283155    37A      0.308800  
      38A      0.337123    39A      0.339775    40A      0.339809  
      41A      0.368260    42A      0.368292    43A      0.373932  
      44A      0.373972    45A      0.386406    46A      0.412986  
      47A      0.413040    48A      0.521558    49A      0.521780  
      50A      0.545602    51A      0.565441    52A      0.567693  
      53A      0.567785    54A      0.613986    55A      0.617996  
      56A      0.618109    57A      0.653201    58A      0.653299  
      59A      0.665630    60A      0.698864    61A      0.698928  
      62A      0.716891    63A      0.741989    64A      0.748223  
      65A      0.748254    66A      0.748428    67A      0.777814  
      68A      0.777897    69A      0.782911    70A      0.799892  
      71A      0.799928    72A      0.831811    73A      0.850859  
      74A      0.872593    75A      0.872836    76A      0.918802  
      77A      0.918972    78A      0.934745    79A      0.976927  
      80A      0.977089    81A      1.001189    82A      1.045165  
      83A      1.045338    84A      1.077754    85A      1.108166  
      86A      1.148562    87A      1.148761    88A      1.163691  
      89A      1.165350    90A      1.165427    91A      1.176367  
      92A      1.238142    93A      1.238196    94A      1.245965  
      95A      1.275697    96A      1.302685    97A      1.302832  
      98A      1.389137    99A      1.425632   100A      1.425900  
     101A      1.492128   102A      1.492242   103A      1.499059  
     104A      1.622451   105A      1.662502   106A      1.662608  
     107A      1.736210   108A      1.736507   109A      1.750130  
     110A      1.765697   111A      1.766065   112A      1.785022  
     113A      1.785089   114A      1.844206   115A      1.844385  
     116A      1.863548   117A      1.877080   118A      1.888338  
     119A      1.888385   120A      1.959170   121A      1.959390  
     122A      1.974219   123A      1.982231   124A      1.982471  
     125A      1.983510   126A      1.996474   127A      2.003593  
     128A      2.003726   129A      2.045939   130A      2.064570  
     131A      2.064688   132A      2.067748   133A      2.096098  
     134A      2.122498   135A      2.122555   136A      2.148756  
     137A      2.189658   138A      2.204099   139A      2.218482  
     140A      2.218675   141A      2.262837   142A      2.262866  
     143A      2.264145   144A      2.293783   145A      2.296957  
     146A      2.327707   147A      2.327824   148A      2.384087  
     149A      2.384324   150A      2.426185   151A      2.426446  
     152A      2.447210   153A      2.511964   154A      2.512297  
     155A      2.653859   156A      2.654593   157A      2.656504  
     158A      2.665875   159A      2.757627   160A      2.757904  
     161A      2.767886   162A      2.780580   163A      2.826116  
     164A      2.826252   165A      2.881633   166A      2.956097  
     167A      2.956369   168A      3.018917   169A      3.019077  
     170A      3.086103   171A      3.086803   172A      3.088602  
     173A      3.137640   174A      3.266962   175A      3.267536  
     176A      3.310955   177A      3.432688   178A      3.433234  
     179A      3.575701   180A      3.575848   181A      3.616859  
     182A      3.658354   183A      3.773544   184A      3.809888  
     185A      3.810191   186A      3.827709   187A      3.864047  
     188A      3.865060   189A      3.904687   190A      4.041945  
     191A      4.079590   192A      4.079968   193A      4.143967  
     194A      4.144213   195A      4.170776   196A      4.243930  
     197A      4.244274   198A      4.382977   199A      4.383079  
     200A      4.494310   201A      4.507512   202A      4.507618  
     203A      4.649889   204A      4.650923   205A      4.703119  
     206A      4.703274   207A      4.742817   208A      4.745185  
     209A      4.760927   210A      4.781099   211A      4.781139  
     212A      4.833345   213A      4.868595   214A      4.868798  
     215A      4.871343   216A      4.973240   217A      5.012995  
     218A      5.013545   219A      5.057846   220A      5.058220  
     221A      5.182156   222A      5.182554   223A      5.369909  
     224A      5.370530   225A      5.560071   226A      6.117936  
     227A      6.118140   228A      6.202092   229A      6.261508  
     230A      6.374597   231A      6.374923   232A      6.429087  
     233A      6.611036   234A      6.611276   235A      6.699237  
     236A      6.699333   237A      6.734133   238A      6.797604  
     239A      6.814207   240A      6.814332   241A      6.949270  
     242A      6.955115   243A      6.955574   244A      6.970818  
     245A      6.971259   246A      7.079488   247A      7.080137  
     248A      7.152018   249A      7.302421   250A      7.328490  
     251A      7.328954   252A      7.431012   253A      7.577268  
     254A      7.596089   255A      7.596140   256A      7.691127  
     257A      7.691475   258A      7.784322   259A      7.878119  
     260A      7.880459   261A      7.921342   262A      8.276958  
     263A      8.277564   264A      8.395397   265A      8.415974  
     266A      8.417635   267A      8.511723   268A      8.599650  
     269A      8.600652   270A      8.866701   271A      8.866829  
     272A      8.935646   273A      9.017140   274A      9.161651  
     275A      9.161746   276A      9.213419   277A      9.228731  
     278A      9.412816   279A      9.414285   280A      9.564608  
     281A      9.569063   282A      9.569449   283A      9.675085  
     284A      9.675463   285A      9.943862   286A      9.979322  
     287A     10.133968   288A     10.134922   289A     10.341512  
     290A     10.342214   291A     10.381376   292A     10.793395  
     293A     10.794546   294A     10.850982   295A     10.968123  
     296A     10.968487   297A     11.443297   298A     13.122108  
     299A     13.122358   300A     13.312864   301A     26.237153  
     302A     28.618940  

    Final Occupation by Irrep:
              A 
    DOCC [    13 ]

  @DF-RHF Final Energy:  -499.15464951759009

   => Energetics <=

    Nuclear Repulsion Energy =             51.3421892714460810
    One-Electron Energy =                -790.1772016984812126
    Two-Electron Energy =                 239.6803629094450514
    Total Energy =                       -499.1546495175900873

Computation Completed


Properties will be evaluated at   2.769332,   1.577463,   2.668013 [a0]

Properties computed using the SCF density matrix

  Nuclear Dipole Moment: [e a0]
     X:    -4.9139      Y:    -0.4634      Z:     0.2904

  Electronic Dipole Moment: [e a0]
     X:     4.0912      Y:     0.3858      Z:    -0.2418

  Dipole Moment: [e a0]
     X:    -0.8227      Y:    -0.0776      Z:     0.0486     Total:     0.8277

  Dipole Moment: [D]
     X:    -2.0910      Y:    -0.1972      Z:     0.1235     Total:     2.1039


*** tstop() called on node37.bme.utexas.edu at Tue Feb 22 18:22:00 2022
Module time:
	user time   =      31.66 seconds =       0.53 minutes
	system time =       2.08 seconds =       0.03 minutes
	total time  =         14 seconds =       0.23 minutes
Total time:
	user time   =      46.44 seconds =       0.77 minutes
	system time =       3.22 seconds =       0.05 minutes
	total time  =         24 seconds =       0.40 minutes

*** tstart() called on node37.bme.utexas.edu
*** at Tue Feb 22 18:22:00 2022


  //>>>>>>>>>>>>>>>>>>>>>>>>>>>>>>>>>>>//
  //               DFMP2               //
  //<<<<<<<<<<<<<<<<<<<<<<<<<<<<<<<<<<<//

   => Loading Basis Set <=

    Name: (AUG-CC-PVQZ AUX)
    Role: RIFIT
    Keyword: DF_BASIS_MP2
    atoms 1   entry CL         line   914 file /home/bdw2292/miniconda3/envs/amoebamdpoltype/share/psi4/basis/aug-cc-pvqz-ri.gbs 
    atoms 2   entry C          line   184 file /home/bdw2292/miniconda3/envs/amoebamdpoltype/share/psi4/basis/aug-cc-pvqz-ri.gbs 
    atoms 3-5 entry H          line    30 file /home/bdw2292/miniconda3/envs/amoebamdpoltype/share/psi4/basis/aug-cc-pvqz-ri.gbs 

	 --------------------------------------------------------
	                          DF-MP2                         
	      2nd-Order Density-Fitted Moller-Plesset Theory     
	              RMP2 Wavefunction,   4 Threads             
	                                                         
	        Rob Parrish, Justin Turney, Andy Simmonett,      
	           Ed Hohenstein, and C. David Sherrill          
	 --------------------------------------------------------

   => Auxiliary Basis Set <=

  Basis Set: (AUG-CC-PVQZ AUX)
    Blend: AUG-CC-PVQZ-RI
    Number of shells: 140
    Number of basis function: 602
    Number of Cartesian functions: 820
    Spherical Harmonics?: true
    Max angular momentum: 5

	 --------------------------------------------------------
	                 NBF =   302, NAUX =   602
	 --------------------------------------------------------
	   CLASS    FOCC     OCC    AOCC    AVIR     VIR    FVIR
	   PAIRS       6      13       7     289     289       0
	 --------------------------------------------------------

	-----------------------------------------------------------
	 ==================> DF-MP2 Energies <==================== 
	-----------------------------------------------------------
	 Reference Energy          =    -499.1546495175900873 [Eh]
	 Singles Energy            =      -0.0000000000000000 [Eh]
	 Same-Spin Energy          =      -0.0882290079934624 [Eh]
	 Opposite-Spin Energy      =      -0.3189664531821675 [Eh]
	 Correlation Energy        =      -0.4071954611756299 [Eh]
	 Total Energy              =    -499.5618449787656914 [Eh]
	-----------------------------------------------------------
	 ================> DF-SCS-MP2 Energies <================== 
	-----------------------------------------------------------
	 SCS Same-Spin Scale       =       0.3333333333333333 [-]
	 SCS Opposite-Spin Scale   =       1.2000000000000000 [-]
	 SCS Same-Spin Energy      =      -0.0294096693311541 [Eh]
	 SCS Opposite-Spin Energy  =      -0.3827597438186010 [Eh]
	 SCS Correlation Energy    =      -0.4121694131497551 [Eh]
	 SCS Total Energy          =    -499.5668189307398279 [Eh]
	-----------------------------------------------------------


*** tstop() called on node37.bme.utexas.edu at Tue Feb 22 18:22:05 2022
Module time:
	user time   =      11.17 seconds =       0.19 minutes
	system time =       0.75 seconds =       0.01 minutes
	total time  =          5 seconds =       0.08 minutes
Total time:
	user time   =      57.61 seconds =       0.96 minutes
	system time =       3.97 seconds =       0.07 minutes
	total time  =         29 seconds =       0.48 minutes

  //>>>>>>>>>>>>>>>>>>>>>>>>>>>>>>>>>>>//
  //  CBS Results: mp2/aug-cc-pV[TQ]Z  //
  //<<<<<<<<<<<<<<<<<<<<<<<<<<<<<<<<<<<//


   ==> HF <==

   HI-zeta (4) Energy:               -499.154649517590


   ==> Helgaker 2-point correlated extrapolation for method: MP2 <==

   LO-zeta (3) Energy:               -499.529054416445
   HI-zeta (4) Energy:               -499.561844978766
   Alpha (exponent) Value:             3.000000000000
   Extrapolated Energy:              -499.585773226946

   @Extrapolated MP2/(T,Q):          -499.585773226946



   ==> Helgaker 2-point correlated extrapolation for method: HF <==

   LO-zeta (3) Energy:               -499.148567636753
   HI-zeta (4) Energy:               -499.154649517590
   Alpha (exponent) Value:             3.000000000000
   Extrapolated Energy:              -499.159087646850

   @Extrapolated HF/(T,Q):           -499.159087646850


   ==> Components <==

  ---------------------------------------------------------------------------------------------------------
                          Method / Basis                      Rqd      Energy [Eh]   Variable
  ---------------------------------------------------------------------------------------------------------
                              hf / aug-cc-pvtz                  *    -499.14856764   HF TOTAL ENERGY
                             mp2 / aug-cc-pvtz                  *    -499.52905442   MP2 TOTAL ENERGY
                              hf / aug-cc-pvqz                  *    -499.15464952   HF TOTAL ENERGY
                             mp2 / aug-cc-pvqz                  *    -499.56184498   MP2 TOTAL ENERGY
  ---------------------------------------------------------------------------------------------------------

   ==> Stages <==

  ---------------------------------------------------------------------------------------------------------
      Stage               Method / Basis                       Wt      Energy [Eh]   Scheme
  ---------------------------------------------------------------------------------------------------------
        scf                   hf / aug-cc-pvqz                  1    -499.15464952   xtpl_highest_1
       corl                  mp2 / aug-cc-pv[tq]z               1    -499.58577323   corl_xtpl_helgaker_2
       corl                   hf / aug-cc-pv[tq]z              -1    -499.15908765   corl_xtpl_helgaker_2
  ---------------------------------------------------------------------------------------------------------

   ==> CBS <==

  ---------------------------------------------------------------------------------------------------------
      Stage               Method / Basis                               Energy [Eh]   Scheme
  ---------------------------------------------------------------------------------------------------------
        scf                   hf / aug-cc-pvqz                       -499.15464952   xtpl_highest_1
       corl                  mp2 / aug-cc-pv[tq]z                      -0.42668558   corl_xtpl_helgaker_2
      total                  CBS                                     -499.58133510   
  ---------------------------------------------------------------------------------------------------------
   => Loading Basis Set <=

    Name: DEF2-SVP
    Role: ORBITAL
    Keyword: BASIS
    atoms 1   entry CL         line   356 file /home/bdw2292/miniconda3/envs/amoebamdpoltype/share/psi4/basis/def2-svp.gbs 
    atoms 2   entry C          line    90 file /home/bdw2292/miniconda3/envs/amoebamdpoltype/share/psi4/basis/def2-svp.gbs 
    atoms 3-5 entry H          line    15 file /home/bdw2292/miniconda3/envs/amoebamdpoltype/share/psi4/basis/def2-svp.gbs 


       N-Body: Complex Energy (fragments = (2,), basis = (2,):  -499.58133509768652)

       N-Body: Computing complex (2/4) with fragments (2,) in the basis of fragments (1, 2).


  //>>>>>>>>>>>>>>>>>>>>>>>>>>>>>>>>>>>//
  //   CBS Setup: mp2/aug-cc-pV[TQ]Z   //
  //<<<<<<<<<<<<<<<<<<<<<<<<<<<<<<<<<<<//

    Naive listing of computations required.
             hf / aug-cc-pvqz              for  HF TOTAL ENERGY
            mp2 / aug-cc-pvtz              for  MP2 TOTAL ENERGY
            mp2 / aug-cc-pvqz              for  MP2 TOTAL ENERGY
             hf / aug-cc-pvtz              for  HF TOTAL ENERGY
             hf / aug-cc-pvqz              for  HF TOTAL ENERGY

    Enlightened listing of computations required.
            mp2 / aug-cc-pvtz              for  MP2 TOTAL ENERGY
            mp2 / aug-cc-pvqz              for  MP2 TOTAL ENERGY

    Full listing of computations to be obtained (required and bonus).
             hf / aug-cc-pvtz              for  HF TOTAL ENERGY
            mp2 / aug-cc-pvtz              for  MP2 TOTAL ENERGY
             hf / aug-cc-pvqz              for  HF TOTAL ENERGY
            mp2 / aug-cc-pvqz              for  MP2 TOTAL ENERGY

  //>>>>>>>>>>>>>>>>>>>>>>>>>>>>>>>>>>>>//
  // CBS Computation: MP2 / AUG-CC-PVTZ //
  //<<<<<<<<<<<<<<<<<<<<<<<<<<<<<<<<<<<<//

    SCF Algorithm Type (re)set to DF.

*** tstart() called on node37.bme.utexas.edu
*** at Tue Feb 22 18:22:07 2022

   => Loading Basis Set <=

    Name: AUG-CC-PVTZ
    Role: ORBITAL
    Keyword: BASIS
    atoms 1, 6      entry CL         line   984 file /home/bdw2292/miniconda3/envs/amoebamdpoltype/share/psi4/basis/aug-cc-pvtz.gbs 
    atoms 2, 7      entry C          line   235 file /home/bdw2292/miniconda3/envs/amoebamdpoltype/share/psi4/basis/aug-cc-pvtz.gbs 
    atoms 3-5, 8-10 entry H          line    36 file /home/bdw2292/miniconda3/envs/amoebamdpoltype/share/psi4/basis/aug-cc-pvtz.gbs 


         ---------------------------------------------------------
                                   SCF
               by Justin Turney, Rob Parrish, Andy Simmonett
                          and Daniel G. A. Smith
                              RHF Reference
                        4 Threads,  14305 MiB Core
         ---------------------------------------------------------

  ==> Geometry <==

    Molecular point group: c1
    Full point group: C1

    Geometry (in Angstrom), charge = 0, multiplicity = 1:

       Center              X                  Y                   Z               Mass       
    ------------   -----------------  -----------------  -----------------  -----------------
      Gh(CL)         -0.930944978124    -0.839885328726    -1.565148746442    34.968852682000
      Gh(C)          -2.641328078124    -0.823611928726    -1.074979046442    12.000000000000
      Gh(H)          -3.224826578124    -1.396753328726    -1.795517646442     1.007825032230
      Gh(H)          -2.727232878124    -1.271111628726    -0.084658446442     1.007825032230
      Gh(H)          -2.990085978124     0.208806071274    -1.047470846442     1.007825032230
         CL           2.018360521876     0.886998871274     1.379292053558    34.968852682000
         C            0.249174121876     0.719753471274     1.483388453558    12.000000000000
         H           -0.094817178124     0.085308471274     0.666949853558     1.007825032230
         H           -0.006618178124     0.267886771274     2.441517653558     1.007825032230
         H           -0.203883978124     1.707773671274     1.405052353558     1.007825032230

  Running in c1 symmetry.

  Rotational constants: A =      0.32920  B =      0.03275  C =      0.03013 [cm^-1]
  Rotational constants: A =   9869.29876  B =    981.83031  C =    903.24374 [MHz]
  Nuclear repulsion =   51.342189271446081

  Charge       = 0
  Multiplicity = 1
  Electrons    = 26
  Nalpha       = 13
  Nbeta        = 13

  ==> Algorithm <==

  SCF Algorithm Type is DF.
  DIIS enabled.
  MOM disabled.
  Fractional occupation disabled.
  Guess Type is SAD.
  Energy threshold   = 1.00e-08
  Density threshold  = 1.00e-08
  Integral threshold = 0.00e+00

  ==> Primary Basis <==

  Basis Set: AUG-CC-PVTZ
    Blend: AUG-CC-PVTZ
    Number of shells: 114
    Number of basis function: 330
    Number of Cartesian functions: 378
    Spherical Harmonics?: true
    Max angular momentum: 3

   => Loading Basis Set <=

    Name: (AUG-CC-PVTZ AUX)
    Role: JKFIT
    Keyword: DF_BASIS_SCF
    atoms 1, 6      entry CL         line   816 file /home/bdw2292/miniconda3/envs/amoebamdpoltype/share/psi4/basis/aug-cc-pvtz-jkfit.gbs 
    atoms 2, 7      entry C          line   162 file /home/bdw2292/miniconda3/envs/amoebamdpoltype/share/psi4/basis/aug-cc-pvtz-jkfit.gbs 
    atoms 3-5, 8-10 entry H          line    70 file /home/bdw2292/miniconda3/envs/amoebamdpoltype/share/psi4/basis/aug-cc-pvtz-jkfit.gbs 

  ==> Pre-Iterations <==

   -------------------------------------------------------
    Irrep   Nso     Nmo     Nalpha   Nbeta   Ndocc  Nsocc
   -------------------------------------------------------
     A        330     330       0       0       0       0
   -------------------------------------------------------
    Total     330     330      13      13      13       0
   -------------------------------------------------------

  ==> Integral Setup <==

  DFHelper Memory: AOs need 0.631 GiB; user supplied 10.477 GiB. Using in-core AOs.

  ==> MemDFJK: Density-Fitted J/K Matrices <==

    J tasked:                   Yes
    K tasked:                   Yes
    wK tasked:                   No
    OpenMP threads:               4
    Memory [MiB]:             10728
    Algorithm:                 Core
    Schwarz Cutoff:           1E-12
    Mask sparsity (%):       4.5344
    Fitting Condition:        1E-10

   => Auxiliary Basis Set <=

  Basis Set: (AUG-CC-PVTZ AUX)
    Blend: AUG-CC-PVTZ-JKFIT
    Number of shells: 228
    Number of basis function: 776
    Number of Cartesian functions: 952
    Spherical Harmonics?: true
    Max angular momentum: 4

  Minimum eigenvalue in the overlap matrix is 3.7485011322E-05.
  Using Symmetric Orthogonalization.

  SCF Guess: Superposition of Atomic Densities via on-the-fly atomic UHF.

  ==> Iterations <==

                           Total Energy        Delta E     RMS |[F,P]|

   @DF-RHF iter SAD:  -498.70203624230714   -4.98702e+02   0.00000e+00 
   @DF-RHF iter   1:  -499.11160001721856   -4.09564e-01   7.30938e-04 DIIS
   @DF-RHF iter   2:  -499.14402841840541   -3.24284e-02   2.56270e-04 DIIS
   @DF-RHF iter   3:  -499.14797088046026   -3.94246e-03   7.76809e-05 DIIS
   @DF-RHF iter   4:  -499.14855311057346   -5.82230e-04   2.21426e-05 DIIS
   @DF-RHF iter   5:  -499.14859647579482   -4.33652e-05   3.26472e-06 DIIS
   @DF-RHF iter   6:  -499.14859786321944   -1.38742e-06   6.56494e-07 DIIS
   @DF-RHF iter   7:  -499.14859791650315   -5.32837e-08   2.19207e-07 DIIS
   @DF-RHF iter   8:  -499.14859792317253   -6.66938e-09   5.99511e-08 DIIS
   @DF-RHF iter   9:  -499.14859792387978   -7.07246e-10   1.00697e-08 DIIS
   @DF-RHF iter  10:  -499.14859792389615   -1.63709e-11   1.50897e-09 DIIS
  Energy and wave function converged.


  ==> Post-Iterations <==

    Orbital Energies [Eh]
    ---------------------

    Doubly Occupied:                                                      

       1A   -104.827090     2A    -11.291786     3A    -10.551338  
       4A     -8.018245     5A     -8.016376     6A     -8.016375  
       7A     -1.128424     8A     -0.914203     9A     -0.616314  
      10A     -0.616103    11A     -0.547246    12A     -0.435849  
      13A     -0.435796  

    Virtual:                                                              

      14A      0.019295    15A      0.035289    16A      0.038999  
      17A      0.048929    18A      0.055596    19A      0.060386  
      20A      0.074743    21A      0.094053    22A      0.097062  
      23A      0.106727    24A      0.110116    25A      0.122237  
      26A      0.129982    27A      0.132527    28A      0.135086  
      29A      0.141656    30A      0.147792    31A      0.153179  
      32A      0.162994    33A      0.179795    34A      0.198576  
      35A      0.202365    36A      0.212296    37A      0.238922  
      38A      0.243845    39A      0.259171    40A      0.274150  
      41A      0.279324    42A      0.285543    43A      0.292212  
      44A      0.301542    45A      0.306097    46A      0.311651  
      47A      0.320667    48A      0.329594    49A      0.337392  
      50A      0.342139    51A      0.350458    52A      0.358222  
      53A      0.363368    54A      0.370897    55A      0.380883  
      56A      0.387367    57A      0.392856    58A      0.402119  
      59A      0.406627    60A      0.410805    61A      0.428184  
      62A      0.444402    63A      0.448897    64A      0.457144  
      65A      0.458300    66A      0.472025    67A      0.474566  
      68A      0.488485    69A      0.495656    70A      0.501684  
      71A      0.513566    72A      0.524230    73A      0.546335  
      74A      0.555610    75A      0.563153    76A      0.572887  
      77A      0.600671    78A      0.605694    79A      0.623498  
      80A      0.624347    81A      0.649800    82A      0.651319  
      83A      0.662139    84A      0.676526    85A      0.699364  
      86A      0.718853    87A      0.721274    88A      0.735729  
      89A      0.761299    90A      0.780028    91A      0.792867  
      92A      0.799582    93A      0.814176    94A      0.848168  
      95A      0.864217    96A      0.868270    97A      0.883782  
      98A      0.898052    99A      0.902819   100A      0.914710  
     101A      0.936527   102A      0.944117   103A      0.948224  
     104A      0.967178   105A      0.972927   106A      0.993478  
     107A      0.999975   108A      1.013034   109A      1.016531  
     110A      1.031736   111A      1.043883   112A      1.046360  
     113A      1.050098   114A      1.059809   115A      1.075142  
     116A      1.084243   117A      1.087382   118A      1.100279  
     119A      1.104470   120A      1.112079   121A      1.121174  
     122A      1.138257   123A      1.143706   124A      1.145255  
     125A      1.156619   126A      1.158028   127A      1.171025  
     128A      1.175829   129A      1.185078   130A      1.199999  
     131A      1.221669   132A      1.235950   133A      1.242284  
     134A      1.249738   135A      1.264094   136A      1.279974  
     137A      1.295921   138A      1.307665   139A      1.337570  
     140A      1.345539   141A      1.361440   142A      1.379690  
     143A      1.393500   144A      1.396248   145A      1.401767  
     146A      1.414138   147A      1.418022   148A      1.436930  
     149A      1.469534   150A      1.493380   151A      1.510896  
     152A      1.535239   153A      1.540812   154A      1.553749  
     155A      1.555964   156A      1.564695   157A      1.582566  
     158A      1.593530   159A      1.601959   160A      1.628471  
     161A      1.647456   162A      1.657021   163A      1.688609  
     164A      1.704492   165A      1.719038   166A      1.726838  
     167A      1.736117   168A      1.771418   169A      1.777899  
     170A      1.795785   171A      1.815896   172A      1.838131  
     173A      1.866816   174A      1.893182   175A      1.904422  
     176A      1.928009   177A      1.931659   178A      1.945383  
     179A      1.960406   180A      1.972051   181A      2.000848  
     182A      2.017688   183A      2.035947   184A      2.048257  
     185A      2.059676   186A      2.065744   187A      2.087540  
     188A      2.113431   189A      2.145206   190A      2.156086  
     191A      2.168205   192A      2.173406   193A      2.190193  
     194A      2.240469   195A      2.287415   196A      2.312475  
     197A      2.336284   198A      2.402351   199A      2.507331  
     200A      2.511857   201A      2.524027   202A      2.593039  
     203A      2.600898   204A      2.633196   205A      2.644509  
     206A      2.694797   207A      2.710944   208A      2.717060  
     209A      2.758429   210A      2.824548   211A      2.936912  
     212A      2.961047   213A      2.985083   214A      3.089758  
     215A      3.116070   216A      3.128939   217A      3.160196  
     218A      3.171695   219A      3.196049   220A      3.223289  
     221A      3.258968   222A      3.289053   223A      3.365968  
     224A      3.376945   225A      3.569037   226A      3.582587  
     227A      3.593765   228A      3.600499   229A      3.640130  
     230A      3.665310   231A      3.797889   232A      3.815137  
     233A      3.892026   234A      3.911413   235A      3.927832  
     236A      3.950394   237A      3.980036   238A      3.994249  
     239A      4.003449   240A      4.022406   241A      4.066487  
     242A      4.076790   243A      4.088037   244A      4.097208  
     245A      4.106473   246A      4.113986   247A      4.154809  
     248A      4.165985   249A      4.172117   250A      4.186318  
     251A      4.202186   252A      4.206867   253A      4.219833  
     254A      4.232109   255A      4.239715   256A      4.298556  
     257A      4.403775   258A      4.423507   259A      4.451508  
     260A      4.460582   261A      4.462472   262A      4.490833  
     263A      4.507139   264A      4.523072   265A      4.534681  
     266A      4.583958   267A      4.591567   268A      4.623706  
     269A      4.722075   270A      4.754788   271A      4.768037  
     272A      4.774465   273A      4.795076   274A      4.825558  
     275A      4.831821   276A      4.849834   277A      4.876847  
     278A      4.884235   279A      4.886500   280A      4.901843  
     281A      4.941825   282A      4.991988   283A      4.998991  
     284A      5.081130   285A      5.098654   286A      5.144075  
     287A      5.175733   288A      5.203063   289A      5.205953  
     290A      5.226486   291A      5.251708   292A      5.334533  
     293A      5.351424   294A      5.391611   295A      5.475173  
     296A      5.478544   297A      5.500400   298A      5.518761  
     299A      5.538865   300A      5.640924   301A      5.706901  
     302A      5.717638   303A      5.749570   304A      5.948595  
     305A      6.053757   306A      6.059722   307A      6.102143  
     308A      6.141216   309A      6.156428   310A      6.224319  
     311A      6.228925   312A      6.616085   313A      6.657174  
     314A      6.665054   315A      6.684549   316A      7.139831  
     317A      7.571482   318A      7.745435   319A      7.770375  
     320A      7.858204   321A      8.135277   322A      8.178720  
     323A     10.265402   324A     16.407735   325A     17.513454  
     326A     28.061918   327A     28.315580   328A     28.982229  
     329A     51.287426   330A    161.040582  

    Final Occupation by Irrep:
              A 
    DOCC [    13 ]

  @DF-RHF Final Energy:  -499.14859792389615

   => Energetics <=

    Nuclear Repulsion Energy =             51.3421892714460810
    One-Electron Energy =                -790.1512803499620077
    Two-Electron Energy =                 239.6604931546198145
    Total Energy =                       -499.1485979238961477

Computation Completed


Properties will be evaluated at   0.000000,  -0.000000,   0.000000 [a0]

Properties computed using the SCF density matrix

  Nuclear Dipole Moment: [e a0]
     X:    67.0888      Y:    40.5506      Z:    69.6587

  Electronic Dipole Moment: [e a0]
     X:   -67.9155      Y:   -40.6284      Z:   -69.6097

  Dipole Moment: [e a0]
     X:    -0.8267      Y:    -0.0778      Z:     0.0490     Total:     0.8318

  Dipole Moment: [D]
     X:    -2.1013      Y:    -0.1977      Z:     0.1245     Total:     2.1142


*** tstop() called on node37.bme.utexas.edu at Tue Feb 22 18:22:21 2022
Module time:
	user time   =      40.16 seconds =       0.67 minutes
	system time =       2.00 seconds =       0.03 minutes
	total time  =         14 seconds =       0.23 minutes
Total time:
	user time   =      99.72 seconds =       1.66 minutes
	system time =       6.03 seconds =       0.10 minutes
	total time  =         45 seconds =       0.75 minutes

*** tstart() called on node37.bme.utexas.edu
*** at Tue Feb 22 18:22:21 2022


  //>>>>>>>>>>>>>>>>>>>>>>>>>>>>>>>>>>>//
  //               DFMP2               //
  //<<<<<<<<<<<<<<<<<<<<<<<<<<<<<<<<<<<//

   => Loading Basis Set <=

    Name: (AUG-CC-PVTZ AUX)
    Role: RIFIT
    Keyword: DF_BASIS_MP2
    atoms 1, 6      entry CL         line   742 file /home/bdw2292/miniconda3/envs/amoebamdpoltype/share/psi4/basis/aug-cc-pvtz-ri.gbs 
    atoms 2, 7      entry C          line   148 file /home/bdw2292/miniconda3/envs/amoebamdpoltype/share/psi4/basis/aug-cc-pvtz-ri.gbs 
    atoms 3-5, 8-10 entry H          line    30 file /home/bdw2292/miniconda3/envs/amoebamdpoltype/share/psi4/basis/aug-cc-pvtz-ri.gbs 

	 --------------------------------------------------------
	                          DF-MP2                         
	      2nd-Order Density-Fitted Moller-Plesset Theory     
	              RMP2 Wavefunction,   4 Threads             
	                                                         
	        Rob Parrish, Justin Turney, Andy Simmonett,      
	           Ed Hohenstein, and C. David Sherrill          
	 --------------------------------------------------------

   => Auxiliary Basis Set <=

  Basis Set: (AUG-CC-PVTZ AUX)
    Blend: AUG-CC-PVTZ-RI
    Number of shells: 214
    Number of basis function: 782
    Number of Cartesian functions: 984
    Spherical Harmonics?: true
    Max angular momentum: 4

	 --------------------------------------------------------
	                 NBF =   330, NAUX =   782
	 --------------------------------------------------------
	   CLASS    FOCC     OCC    AOCC    AVIR     VIR    FVIR
	   PAIRS       6      13       7     317     317       0
	 --------------------------------------------------------

	-----------------------------------------------------------
	 ==================> DF-MP2 Energies <==================== 
	-----------------------------------------------------------
	 Reference Energy          =    -499.1485979238961477 [Eh]
	 Singles Energy            =      -0.0000000000000000 [Eh]
	 Same-Spin Energy          =      -0.0856324616044417 [Eh]
	 Opposite-Spin Energy      =      -0.2950706423473971 [Eh]
	 Correlation Energy        =      -0.3807031039518388 [Eh]
	 Total Energy              =    -499.5293010278479642 [Eh]
	-----------------------------------------------------------
	 ================> DF-SCS-MP2 Energies <================== 
	-----------------------------------------------------------
	 SCS Same-Spin Scale       =       0.3333333333333333 [-]
	 SCS Opposite-Spin Scale   =       1.2000000000000000 [-]
	 SCS Same-Spin Energy      =      -0.0285441538681472 [Eh]
	 SCS Opposite-Spin Energy  =      -0.3540847708168765 [Eh]
	 SCS Correlation Energy    =      -0.3826289246850237 [Eh]
	 SCS Total Energy          =    -499.5312268485811842 [Eh]
	-----------------------------------------------------------


*** tstop() called on node37.bme.utexas.edu at Tue Feb 22 18:22:28 2022
Module time:
	user time   =      17.23 seconds =       0.29 minutes
	system time =       0.96 seconds =       0.02 minutes
	total time  =          7 seconds =       0.12 minutes
Total time:
	user time   =     116.95 seconds =       1.95 minutes
	system time =       6.99 seconds =       0.12 minutes
	total time  =         52 seconds =       0.87 minutes

  //>>>>>>>>>>>>>>>>>>>>>>>>>>>>>>>>>>>>//
  // CBS Computation: MP2 / AUG-CC-PVQZ //
  //<<<<<<<<<<<<<<<<<<<<<<<<<<<<<<<<<<<<//

    SCF Algorithm Type (re)set to DF.

*** tstart() called on node37.bme.utexas.edu
*** at Tue Feb 22 18:22:28 2022

   => Loading Basis Set <=

    Name: AUG-CC-PVQZ
    Role: ORBITAL
    Keyword: BASIS
    atoms 1, 6      entry CL         line  1218 file /home/bdw2292/miniconda3/envs/amoebamdpoltype/share/psi4/basis/aug-cc-pvqz.gbs 
    atoms 2, 7      entry C          line   299 file /home/bdw2292/miniconda3/envs/amoebamdpoltype/share/psi4/basis/aug-cc-pvqz.gbs 
    atoms 3-5, 8-10 entry H          line    36 file /home/bdw2292/miniconda3/envs/amoebamdpoltype/share/psi4/basis/aug-cc-pvqz.gbs 


         ---------------------------------------------------------
                                   SCF
               by Justin Turney, Rob Parrish, Andy Simmonett
                          and Daniel G. A. Smith
                              RHF Reference
                        4 Threads,  14305 MiB Core
         ---------------------------------------------------------

  ==> Geometry <==

    Molecular point group: c1
    Full point group: C1

    Geometry (in Angstrom), charge = 0, multiplicity = 1:

       Center              X                  Y                   Z               Mass       
    ------------   -----------------  -----------------  -----------------  -----------------
      Gh(CL)         -0.930944978124    -0.839885328726    -1.565148746442    34.968852682000
      Gh(C)          -2.641328078124    -0.823611928726    -1.074979046442    12.000000000000
      Gh(H)          -3.224826578124    -1.396753328726    -1.795517646442     1.007825032230
      Gh(H)          -2.727232878124    -1.271111628726    -0.084658446442     1.007825032230
      Gh(H)          -2.990085978124     0.208806071274    -1.047470846442     1.007825032230
         CL           2.018360521876     0.886998871274     1.379292053558    34.968852682000
         C            0.249174121876     0.719753471274     1.483388453558    12.000000000000
         H           -0.094817178124     0.085308471274     0.666949853558     1.007825032230
         H           -0.006618178124     0.267886771274     2.441517653558     1.007825032230
         H           -0.203883978124     1.707773671274     1.405052353558     1.007825032230

  Running in c1 symmetry.

  Rotational constants: A =      0.32920  B =      0.03275  C =      0.03013 [cm^-1]
  Rotational constants: A =   9869.29876  B =    981.83031  C =    903.24374 [MHz]
  Nuclear repulsion =   51.342189271446081

  Charge       = 0
  Multiplicity = 1
  Electrons    = 26
  Nalpha       = 13
  Nbeta        = 13

  ==> Algorithm <==

  SCF Algorithm Type is DF.
  DIIS enabled.
  MOM disabled.
  Fractional occupation disabled.
  Guess Type is SAD.
  Energy threshold   = 1.00e-08
  Density threshold  = 1.00e-08
  Integral threshold = 0.00e+00

  ==> Primary Basis <==

  Basis Set: AUG-CC-PVQZ
    Blend: AUG-CC-PVQZ
    Number of shells: 168
    Number of basis function: 604
    Number of Cartesian functions: 758
    Spherical Harmonics?: true
    Max angular momentum: 4

   => Loading Basis Set <=

    Name: (AUG-CC-PVQZ AUX)
    Role: JKFIT
    Keyword: DF_BASIS_SCF
    atoms 1, 6      entry CL         line   904 file /home/bdw2292/miniconda3/envs/amoebamdpoltype/share/psi4/basis/aug-cc-pvqz-jkfit.gbs 
    atoms 2, 7      entry C          line   178 file /home/bdw2292/miniconda3/envs/amoebamdpoltype/share/psi4/basis/aug-cc-pvqz-jkfit.gbs 
    atoms 3-5, 8-10 entry H          line    70 file /home/bdw2292/miniconda3/envs/amoebamdpoltype/share/psi4/basis/aug-cc-pvqz-jkfit.gbs 

  ==> Pre-Iterations <==

   -------------------------------------------------------
    Irrep   Nso     Nmo     Nalpha   Nbeta   Ndocc  Nsocc
   -------------------------------------------------------
     A        604     604       0       0       0       0
   -------------------------------------------------------
    Total     604     604      13      13      13       0
   -------------------------------------------------------

  ==> Integral Setup <==

  DFHelper Memory: AOs need 2.869 GiB; user supplied 10.477 GiB. Using in-core AOs.

  ==> MemDFJK: Density-Fitted J/K Matrices <==

    J tasked:                   Yes
    K tasked:                   Yes
    wK tasked:                   No
    OpenMP threads:               4
    Memory [MiB]:             10728
    Algorithm:                 Disk
    Schwarz Cutoff:           1E-12
    Mask sparsity (%):       8.3949
    Fitting Condition:        1E-10

   => Auxiliary Basis Set <=

  Basis Set: (AUG-CC-PVQZ AUX)
    Blend: AUG-CC-PVQZ-JKFIT
    Number of shells: 268
    Number of basis function: 1108
    Number of Cartesian functions: 1496
    Spherical Harmonics?: true
    Max angular momentum: 5

  Minimum eigenvalue in the overlap matrix is 1.0206414285E-05.
  Using Symmetric Orthogonalization.

  SCF Guess: Superposition of Atomic Densities via on-the-fly atomic UHF.

  ==> Iterations <==

                           Total Energy        Delta E     RMS |[F,P]|

   @DF-RHF iter SAD:  -498.70705869654773   -4.98707e+02   0.00000e+00 
   @DF-RHF iter   1:  -499.11725278729983   -4.10194e-01   4.10443e-04 DIIS
   @DF-RHF iter   2:  -499.15002315374051   -3.27704e-02   1.42000e-04 DIIS
   @DF-RHF iter   3:  -499.15402229024454   -3.99914e-03   4.37547e-05 DIIS
   @DF-RHF iter   4:  -499.15461276756167   -5.90477e-04   1.30313e-05 DIIS
   @DF-RHF iter   5:  -499.15466190018941   -4.91326e-05   1.91512e-06 DIIS
   @DF-RHF iter   6:  -499.15466354771439   -1.64752e-06   3.91552e-07 DIIS
   @DF-RHF iter   7:  -499.15466361430617   -6.65918e-08   1.40517e-07 DIIS
   @DF-RHF iter   8:  -499.15466362320637   -8.90020e-09   4.00444e-08 DIIS
   @DF-RHF iter   9:  -499.15466362426037   -1.05399e-09   6.87323e-09 DIIS
  Energy and wave function converged.


  ==> Post-Iterations <==

    Orbital Energies [Eh]
    ---------------------

    Doubly Occupied:                                                      

       1A   -104.824975     2A    -11.290410     3A    -10.550412  
       4A     -8.017549     5A     -8.015823     6A     -8.015822  
       7A     -1.127969     8A     -0.913990     9A     -0.616246  
      10A     -0.616037    11A     -0.547327    12A     -0.435835  
      13A     -0.435784  

    Virtual:                                                              

      14A      0.017324    15A      0.031956    16A      0.035202  
      17A      0.043528    18A      0.050673    19A      0.055101  
      20A      0.064616    21A      0.082408    22A      0.086282  
      23A      0.090407    24A      0.094308    25A      0.105724  
      26A      0.113305    27A      0.113812    28A      0.115621  
      29A      0.118421    30A      0.126658    31A      0.132258  
      32A      0.143793    33A      0.152055    34A      0.171325  
      35A      0.175413    36A      0.180515    37A      0.194868  
      38A      0.210671    39A      0.222790    40A      0.236088  
      41A      0.241251    42A      0.244005    43A      0.247295  
      44A      0.251015    45A      0.258003    46A      0.259887  
      47A      0.262066    48A      0.272440    49A      0.279306  
      50A      0.282053    51A      0.286361    52A      0.291296  
      53A      0.294899    54A      0.303293    55A      0.304787  
      56A      0.313728    57A      0.319257    58A      0.333840  
      59A      0.337276    60A      0.341277    61A      0.347284  
      62A      0.355882    63A      0.365347    64A      0.369563  
      65A      0.371400    66A      0.375216    67A      0.379329  
      68A      0.381888    69A      0.385054    70A      0.396436  
      71A      0.408352    72A      0.412934    73A      0.430150  
      74A      0.437741    75A      0.443512    76A      0.451110  
      77A      0.462610    78A      0.471658    79A      0.481555  
      80A      0.485881    81A      0.513642    82A      0.521969  
      83A      0.525724    84A      0.541135    85A      0.547443  
      86A      0.552231    87A      0.560454    88A      0.573291  
      89A      0.590100    90A      0.596028    91A      0.602070  
      92A      0.622913    93A      0.624054    94A      0.633564  
      95A      0.640525    96A      0.655615    97A      0.659587  
      98A      0.679229    99A      0.689613   100A      0.694061  
     101A      0.699872   102A      0.703170   103A      0.708158  
     104A      0.717845   105A      0.723599   106A      0.732713  
     107A      0.741386   108A      0.749564   109A      0.757983  
     110A      0.763086   111A      0.771325   112A      0.785510  
     113A      0.787314   114A      0.792152   115A      0.810402  
     116A      0.811620   117A      0.814970   118A      0.823939  
     119A      0.832548   120A      0.837465   121A      0.857128  
     122A      0.859630   123A      0.863977   124A      0.867579  
     125A      0.872279   126A      0.891531   127A      0.893693  
     128A      0.900758   129A      0.917678   130A      0.919937  
     131A      0.937880   132A      0.941747   133A      0.949241  
     134A      0.955324   135A      0.967339   136A      0.969209  
     137A      0.984228   138A      0.997435   139A      1.005209  
     140A      1.016077   141A      1.024587   142A      1.032823  
     143A      1.039086   144A      1.056995   145A      1.063264  
     146A      1.073893   147A      1.079962   148A      1.085615  
     149A      1.094235   150A      1.101807   151A      1.108335  
     152A      1.113296   153A      1.127198   154A      1.130723  
     155A      1.144652   156A      1.148267   157A      1.156829  
     158A      1.176621   159A      1.181941   160A      1.197372  
     161A      1.205840   162A      1.208499   163A      1.222676  
     164A      1.238579   165A      1.251066   166A      1.260257  
     167A      1.269839   168A      1.274288   169A      1.287234  
     170A      1.302838   171A      1.317770   172A      1.326530  
     173A      1.332020   174A      1.343757   175A      1.362134  
     176A      1.375495   177A      1.400502   178A      1.420974  
     179A      1.445853   180A      1.447832   181A      1.471481  
     182A      1.483642   183A      1.493733   184A      1.504718  
     185A      1.511439   186A      1.524179   187A      1.534491  
     188A      1.547814   189A      1.548491   190A      1.594855  
     191A      1.600456   192A      1.618598   193A      1.630932  
     194A      1.664987   195A      1.671701   196A      1.681032  
     197A      1.699475   198A      1.719321   199A      1.737040  
     200A      1.751025   201A      1.759371   202A      1.773197  
     203A      1.777210   204A      1.784142   205A      1.802708  
     206A      1.813938   207A      1.830834   208A      1.838959  
     209A      1.843856   210A      1.863842   211A      1.873467  
     212A      1.887178   213A      1.892621   214A      1.906041  
     215A      1.912835   216A      1.916965   217A      1.927250  
     218A      1.934056   219A      1.942791   220A      1.948684  
     221A      1.953810   222A      1.966802   223A      1.973449  
     224A      1.983441   225A      1.986733   226A      2.003350  
     227A      2.010709   228A      2.015196   229A      2.023907  
     230A      2.025602   231A      2.035302   232A      2.038630  
     233A      2.050866   234A      2.067351   235A      2.078031  
     236A      2.085205   237A      2.094731   238A      2.105606  
     239A      2.108229   240A      2.122730   241A      2.128654  
     242A      2.136229   243A      2.149111   244A      2.161298  
     245A      2.164834   246A      2.168470   247A      2.184645  
     248A      2.190824   249A      2.206803   250A      2.213839  
     251A      2.224196   252A      2.235225   253A      2.243493  
     254A      2.245783   255A      2.253591   256A      2.266459  
     257A      2.270978   258A      2.276691   259A      2.292976  
     260A      2.302940   261A      2.313421   262A      2.314556  
     263A      2.322967   264A      2.347868   265A      2.360684  
     266A      2.364573   267A      2.373588   268A      2.385652  
     269A      2.399544   270A      2.407672   271A      2.416471  
     272A      2.438202   273A      2.448766   274A      2.460240  
     275A      2.471017   276A      2.492675   277A      2.505498  
     278A      2.519403   279A      2.527934   280A      2.532829  
     281A      2.545077   282A      2.553123   283A      2.559146  
     284A      2.570632   285A      2.591416   286A      2.609059  
     287A      2.630521   288A      2.655233   289A      2.676520  
     290A      2.692093   291A      2.704386   292A      2.710811  
     293A      2.726422   294A      2.735110   295A      2.758611  
     296A      2.773270   297A      2.777587   298A      2.783740  
     299A      2.809452   300A      2.815791   301A      2.829789  
     302A      2.840810   303A      2.857270   304A      2.873542  
     305A      2.886769   306A      2.908835   307A      2.917387  
     308A      2.921259   309A      2.947345   310A      2.964146  
     311A      2.984718   312A      2.997418   313A      3.019757  
     314A      3.023547   315A      3.038478   316A      3.046321  
     317A      3.054742   318A      3.082949   319A      3.097907  
     320A      3.122681   321A      3.134328   322A      3.142619  
     323A      3.175939   324A      3.195507   325A      3.202951  
     326A      3.232623   327A      3.249961   328A      3.276294  
     329A      3.277146   330A      3.299506   331A      3.321715  
     332A      3.332538   333A      3.379264   334A      3.384491  
     335A      3.410485   336A      3.429627   337A      3.443085  
     338A      3.464912   339A      3.466976   340A      3.478447  
     341A      3.486856   342A      3.501224   343A      3.525696  
     344A      3.560653   345A      3.598663   346A      3.616501  
     347A      3.647358   348A      3.652462   349A      3.665154  
     350A      3.696979   351A      3.729104   352A      3.770194  
     353A      3.812549   354A      3.826764   355A      3.835049  
     356A      3.857393   357A      3.862847   358A      3.883054  
     359A      3.905899   360A      3.915613   361A      3.936070  
     362A      3.949593   363A      3.965593   364A      3.989100  
     365A      4.029357   366A      4.067561   367A      4.097284  
     368A      4.126419   369A      4.143888   370A      4.161195  
     371A      4.173660   372A      4.182822   373A      4.228847  
     374A      4.240907   375A      4.263289   376A      4.277848  
     377A      4.297068   378A      4.342466   379A      4.380913  
     380A      4.428171   381A      4.438810   382A      4.451034  
     383A      4.475734   384A      4.480091   385A      4.541371  
     386A      4.541498   387A      4.575958   388A      4.619269  
     389A      4.683835   390A      4.687345   391A      4.714368  
     392A      4.720962   393A      4.727788   394A      4.759890  
     395A      4.775163   396A      4.789993   397A      4.798084  
     398A      4.801476   399A      4.860900   400A      4.875310  
     401A      4.893246   402A      4.897583   403A      4.902993  
     404A      4.929428   405A      4.944176   406A      4.971085  
     407A      4.998690   408A      5.028723   409A      5.040196  
     410A      5.081156   411A      5.083982   412A      5.096070  
     413A      5.146907   414A      5.184020   415A      5.205878  
     416A      5.231499   417A      5.274153   418A      5.403864  
     419A      5.415460   420A      5.445496   421A      5.473476  
     422A      5.489762   423A      5.601061   424A      5.615413  
     425A      5.639430   426A      5.643478   427A      5.686243  
     428A      5.829802   429A      5.869788   430A      5.871464  
     431A      5.974776   432A      6.095832   433A      6.166673  
     434A      6.220187   435A      6.281158   436A      6.354226  
     437A      6.367337   438A      6.407087   439A      6.424761  
     440A      6.427842   441A      6.436949   442A      6.462657  
     443A      6.511358   444A      6.535290   445A      6.552609  
     446A      6.627412   447A      6.646689   448A      6.710075  
     449A      6.743387   450A      6.754335   451A      6.771959  
     452A      6.783198   453A      6.795868   454A      6.808385  
     455A      6.837502   456A      6.855123   457A      6.937012  
     458A      6.946877   459A      6.954414   460A      6.969771  
     461A      6.991451   462A      6.998358   463A      7.012666  
     464A      7.017898   465A      7.029162   466A      7.107013  
     467A      7.121038   468A      7.131196   469A      7.138395  
     470A      7.171246   471A      7.203724   472A      7.222488  
     473A      7.262955   474A      7.307266   475A      7.339164  
     476A      7.350808   477A      7.363463   478A      7.373671  
     479A      7.385084   480A      7.413412   481A      7.508316  
     482A      7.594677   483A      7.629046   484A      7.638451  
     485A      7.653120   486A      7.667167   487A      7.678010  
     488A      7.692791   489A      7.730075   490A      7.753624  
     491A      7.787052   492A      7.803356   493A      7.848951  
     494A      7.871883   495A      7.891218   496A      7.902374  
     497A      7.917359   498A      7.936666   499A      7.945506  
     500A      7.972954   501A      8.000009   502A      8.019978  
     503A      8.149443   504A      8.160930   505A      8.210333  
     506A      8.308399   507A      8.323699   508A      8.332599  
     509A      8.350051   510A      8.415915   511A      8.439641  
     512A      8.449894   513A      8.488365   514A      8.531122  
     515A      8.553338   516A      8.556949   517A      8.592397  
     518A      8.626872   519A      8.801074   520A      8.839647  
     521A      8.847105   522A      8.878812   523A      8.883316  
     524A      8.888863   525A      8.910774   526A      8.929774  
     527A      8.978918   528A      9.035345   529A      9.182246  
     530A      9.199947   531A      9.215120   532A      9.252495  
     533A      9.282315   534A      9.314262   535A      9.338391  
     536A      9.409271   537A      9.444391   538A      9.493372  
     539A      9.523846   540A      9.532495   541A      9.583147  
     542A      9.599567   543A      9.619424   544A      9.689378  
     545A      9.693507   546A      9.708348   547A      9.713818  
     548A      9.740457   549A      9.777499   550A      9.786667  
     551A      9.833373   552A      9.846561   553A      9.885335  
     554A      9.999662   555A     10.019799   556A     10.053439  
     557A     10.070822   558A     10.166354   559A     10.177582  
     560A     10.297343   561A     10.319138   562A     10.357800  
     563A     10.370403   564A     10.408885   565A     10.498039  
     566A     10.607740   567A     10.626717   568A     10.740339  
     569A     10.751764   570A     10.763587   571A     10.785635  
     572A     10.844160   573A     10.856994   574A     10.901536  
     575A     10.923762   576A     10.981557   577A     11.002386  
     578A     11.180591   579A     11.193850   580A     11.328758  
     581A     11.384108   582A     11.485293   583A     12.015509  
     584A     12.101160   585A     12.163682   586A     12.328170  
     587A     13.113274   588A     13.167705   589A     13.182547  
     590A     13.235350   591A     13.432250   592A     13.573054  
     593A     14.808144   594A     16.482225   595A     17.300873  
     596A     17.321632   597A     26.437784   598A     28.728511  
     599A     31.100349   600A     31.159619   601A     31.350036  
     602A     43.433732   603A     71.654544   604A    160.425331  

    Final Occupation by Irrep:
              A 
    DOCC [    13 ]

  @DF-RHF Final Energy:  -499.15466362426037

   => Energetics <=

    Nuclear Repulsion Energy =             51.3421892714460810
    One-Electron Energy =                -790.1773486210074680
    Two-Electron Energy =                 239.6804957253010571
    Total Energy =                       -499.1546636242603654

Computation Completed


Properties will be evaluated at   0.000000,  -0.000000,   0.000000 [a0]

Properties computed using the SCF density matrix

  Nuclear Dipole Moment: [e a0]
     X:    67.0888      Y:    40.5506      Z:    69.6587

  Electronic Dipole Moment: [e a0]
     X:   -67.9114      Y:   -40.6282      Z:   -69.6101

  Dipole Moment: [e a0]
     X:    -0.8226      Y:    -0.0776      Z:     0.0486     Total:     0.8277

  Dipole Moment: [D]
     X:    -2.0910      Y:    -0.1972      Z:     0.1236     Total:     2.1039


*** tstop() called on node37.bme.utexas.edu at Tue Feb 22 18:24:35 2022
Module time:
	user time   =     224.50 seconds =       3.74 minutes
	system time =      55.45 seconds =       0.92 minutes
	total time  =        127 seconds =       2.12 minutes
Total time:
	user time   =     341.53 seconds =       5.69 minutes
	system time =      62.45 seconds =       1.04 minutes
	total time  =        179 seconds =       2.98 minutes

*** tstart() called on node37.bme.utexas.edu
*** at Tue Feb 22 18:24:35 2022


  //>>>>>>>>>>>>>>>>>>>>>>>>>>>>>>>>>>>//
  //               DFMP2               //
  //<<<<<<<<<<<<<<<<<<<<<<<<<<<<<<<<<<<//

   => Loading Basis Set <=

    Name: (AUG-CC-PVQZ AUX)
    Role: RIFIT
    Keyword: DF_BASIS_MP2
[...]
     141A      0.877820   142A      0.880365   143A      0.888746  
     144A      0.898869   145A      0.912940   146A      0.923917  
     147A      0.930710   148A      0.945911   149A      0.950433  
     150A      0.951534   151A      0.965734   152A      0.971518  
     153A      0.992352   154A      1.007248   155A      1.015976  
     156A      1.024497   157A      1.039538   158A      1.059634  
     159A      1.064461   160A      1.074629   161A      1.080818  
     162A      1.091728   163A      1.103467   164A      1.114157  
     165A      1.117786   166A      1.123005   167A      1.143339  
     168A      1.161304   169A      1.162465   170A      1.169635  
     171A      1.174105   172A      1.191919   173A      1.203798  
     174A      1.206442   175A      1.210979   176A      1.215166  
     177A      1.226002   178A      1.234971   179A      1.257214  
     180A      1.262158   181A      1.268043   182A      1.275065  
     183A      1.283337   184A      1.288829   185A      1.290386  
     186A      1.304145   187A      1.307257   188A      1.327167  
     189A      1.330855   190A      1.351671   191A      1.353919  
     192A      1.363387   193A      1.387332   194A      1.398034  
     195A      1.436146   196A      1.438534   197A      1.468739  
     198A      1.472910   199A      1.490119   200A      1.508907  
     201A      1.525860   202A      1.527887   203A      1.538107  
     204A      1.560658   205A      1.572519   206A      1.626603  
     207A      1.645867   208A      1.660200   209A      1.692293  
     210A      1.696914   211A      1.711242   212A      1.714680  
     213A      1.733881   214A      1.746561   215A      1.764437  
     216A      1.766278   217A      1.780916   218A      1.791534  
     219A      1.795253   220A      1.812384   221A      1.819784  
     222A      1.828959   223A      1.837665   224A      1.848105  
     225A      1.857016   226A      1.862898   227A      1.883711  
     228A      1.888402   229A      1.889564   230A      1.905770  
     231A      1.917001   232A      1.927705   233A      1.934532  
     234A      1.938411   235A      1.952059   236A      1.953640  
     237A      1.957926   238A      1.962615   239A      1.971742  
     240A      1.980251   241A      1.990128   242A      1.998166  
     243A      2.001720   244A      2.007485   245A      2.016711  
     246A      2.024661   247A      2.026218   248A      2.039264  
     249A      2.046444   250A      2.056162   251A      2.064350  
     252A      2.070677   253A      2.079679   254A      2.091582  
     255A      2.105095   256A      2.109148   257A      2.118803  
     258A      2.130580   259A      2.133076   260A      2.142671  
     261A      2.149400   262A      2.155815   263A      2.163181  
     264A      2.175550   265A      2.191171   266A      2.194535  
     267A      2.201395   268A      2.222253   269A      2.231698  
     270A      2.233185   271A      2.241518   272A      2.246376  
     273A      2.259622   274A      2.263449   275A      2.269484  
     276A      2.276999   277A      2.293605   278A      2.296603  
     279A      2.302722   280A      2.305756   281A      2.310277  
     282A      2.320991   283A      2.336731   284A      2.342253  
     285A      2.348872   286A      2.356245   287A      2.369466  
     288A      2.382060   289A      2.395680   290A      2.397348  
     291A      2.409970   292A      2.417824   293A      2.420107  
     294A      2.444142   295A      2.456315   296A      2.463856  
     297A      2.486159   298A      2.498545   299A      2.501812  
     300A      2.514960   301A      2.526537   302A      2.545160  
     303A      2.567605   304A      2.568964   305A      2.595235  
     306A      2.619679   307A      2.647073   308A      2.654530  
     309A      2.663800   310A      2.671862   311A      2.685971  
     312A      2.709096   313A      2.728126   314A      2.746822  
     315A      2.766822   316A      2.770665   317A      2.779319  
     318A      2.793152   319A      2.813190   320A      2.830723  
     321A      2.833737   322A      2.857543   323A      2.861778  
     324A      2.890043   325A      2.902643   326A      2.914058  
     327A      2.917458   328A      2.949014   329A      2.969448  
     330A      2.976452   331A      2.995038   332A      3.022267  
     333A      3.030001   334A      3.047972   335A      3.064936  
     336A      3.091788   337A      3.103306   338A      3.117885  
     339A      3.126029   340A      3.140868   341A      3.152388  
     342A      3.177420   343A      3.196570   344A      3.223631  
     345A      3.227057   346A      3.275443   347A      3.291389  
     348A      3.311394   349A      3.346936   350A      3.375636  
     351A      3.397523   352A      3.436652   353A      3.473792  
     354A      3.479723   355A      3.509707   356A      3.547920  
     357A      3.592981   358A      3.614584   359A      3.632028  
     360A      3.635492   361A      3.651545   362A      3.682709  
     363A      3.711745   364A      3.714448   365A      3.802529  
     366A      3.820554   367A      3.840900   368A      3.851006  
     369A      3.857883   370A      3.863070   371A      3.868203  
     372A      3.886883   373A      3.898134   374A      3.934524  
     375A      3.940272   376A      3.958942   377A      3.976600  
     378A      3.996668   379A      4.048108   380A      4.101213  
     381A      4.107712   382A      4.129722   383A      4.145877  
     384A      4.153077   385A      4.175025   386A      4.180221  
     387A      4.204406   388A      4.214763   389A      4.239957  
     390A      4.270955   391A      4.285159   392A      4.312798  
     393A      4.327482   394A      4.377608   395A      4.417616  
     396A      4.437970   397A      4.461831   398A      4.477368  
     399A      4.516593   400A      4.538337   401A      4.542937  
     402A      4.570672   403A      4.582079   404A      4.663324  
     405A      4.679129   406A      4.691351   407A      4.693282  
     408A      4.704453   409A      4.714858   410A      4.726837  
     411A      4.731624   412A      4.765847   413A      4.771967  
     414A      4.782555   415A      4.795842   416A      4.804059  
     417A      4.813223   418A      4.837941   419A      4.854965  
     420A      4.860081   421A      4.886970   422A      4.897546  
     423A      4.903286   424A      4.913434   425A      4.921272  
     426A      4.941128   427A      4.966426   428A      4.989089  
     429A      5.004588   430A      5.022924   431A      5.035540  
     432A      5.048958   433A      5.052385   434A      5.083022  
     435A      5.095540   436A      5.105671   437A      5.110976  
     438A      5.121709   439A      5.156370   440A      5.209210  
     441A      5.217545   442A      5.243875   443A      5.294269  
     444A      5.379488   445A      5.414912   446A      5.417741  
     447A      5.435865   448A      5.489905   449A      5.570662  
     450A      5.623148   451A      6.113787   452A      6.141523  
     453A      6.174977   454A      6.209803   455A      6.214733  
     456A      6.276121   457A      6.296844   458A      6.359852  
     459A      6.378144   460A      6.394617   461A      6.419538  
     462A      6.443732   463A      6.498985   464A      6.543017  
     465A      6.612664   466A      6.624501   467A      6.648984  
     468A      6.660989   469A      6.697196   470A      6.719172  
     471A      6.737674   472A      6.744737   473A      6.772558  
     474A      6.792186   475A      6.800380   476A      6.830540  
     477A      6.837483   478A      6.860150   479A      6.919606  
     480A      6.942453   481A      6.955809   482A      6.957690  
     483A      6.973778   484A      6.977078   485A      6.986052  
     486A      6.997350   487A      7.000231   488A      7.017176  
     489A      7.030294   490A      7.097150   491A      7.112734  
     492A      7.129281   493A      7.156396   494A      7.158749  
     495A      7.168644   496A      7.228407   497A      7.322252  
     498A      7.338691   499A      7.341185   500A      7.375789  
     501A      7.384693   502A      7.398575   503A      7.495582  
     504A      7.521752   505A      7.585176   506A      7.603515  
     507A      7.633371   508A      7.639205   509A      7.684052  
     510A      7.700570   511A      7.703121   512A      7.743865  
     513A      7.783859   514A      7.790574   515A      7.811844  
     516A      7.853374   517A      7.881518   518A      7.899803  
     519A      7.920661   520A      7.934839   521A      7.956263  
     522A      7.964742   523A      8.284236   524A      8.298563  
     525A      8.320105   526A      8.334887   527A      8.398021  
     528A      8.414216   529A      8.433769   530A      8.453770  
     531A      8.457453   532A      8.491993   533A      8.535334  
     534A      8.558329   535A      8.616498   536A      8.621543  
     537A      8.638052   538A      8.805537   539A      8.872085  
     540A      8.877565   541A      8.891458   542A      8.919035  
     543A      8.948309   544A      8.982156   545A      9.020155  
     546A      9.043644   547A      9.164437   548A      9.187265  
     549A      9.199223   550A      9.207650   551A      9.212954  
     552A      9.230423   553A      9.271536   554A      9.309481  
     555A      9.428128   556A      9.443934   557A      9.456387  
     558A      9.501131   559A      9.574115   560A      9.580872  
     561A      9.585340   562A      9.608988   563A      9.639651  
     564A      9.685685   565A      9.708360   566A      9.718192  
     567A      9.720145   568A      9.759219   569A      9.959269  
     570A     10.005189   571A     10.010562   572A     10.029349  
     573A     10.138291   574A     10.158953   575A     10.179456  
     576A     10.190817   577A     10.340258   578A     10.349587  
     579A     10.366623   580A     10.376235   581A     10.389681  
     582A     10.418780   583A     10.798919   584A     10.815898  
     585A     10.845396   586A     10.861301   587A     10.870732  
     588A     10.908509   589A     10.967502   590A     10.989578  
     591A     10.997097   592A     11.009734   593A     11.444848  
     594A     11.494022   595A     13.138962   596A     13.175488  
     597A     13.187177   598A     13.242597   599A     13.359265  
     600A     13.441096   601A     26.418729   602A     26.716670  
     603A     28.692829   604A     28.739297  

    Final Occupation by Irrep:
              A 
    DOCC [    26 ]

  @DF-RHF Final Energy:  -998.30661757478435

   => Energetics <=

    Nuclear Repulsion Energy =            184.1292955455359959
    One-Electron Energy =               -1743.2033958334232011
    Two-Electron Energy =                 560.7674827131028223
    Total Energy =                       -998.3066175747843545

Computation Completed


Properties will be evaluated at   0.000000,  -0.000000,   0.000000 [a0]

Properties computed using the SCF density matrix

  Nuclear Dipole Moment: [e a0]
     X:    -9.6647      Y:    -0.4163      Z:     1.6568

  Electronic Dipole Moment: [e a0]
     X:     8.0125      Y:     0.2880      Z:    -1.5038

  Dipole Moment: [e a0]
     X:    -1.6522      Y:    -0.1284      Z:     0.1531     Total:     1.6642

  Dipole Moment: [D]
     X:    -4.1994      Y:    -0.3263      Z:     0.3890     Total:     4.2300


*** tstop() called on node37.bme.utexas.edu at Tue Feb 22 18:31:25 2022
Module time:
	user time   =     245.95 seconds =       4.10 minutes
	system time =      58.27 seconds =       0.97 minutes
	total time  =        159 seconds =       2.65 minutes
Total time:
	user time   =    1103.70 seconds =      18.39 minutes
	system time =     185.83 seconds =       3.10 minutes
	total time  =        589 seconds =       9.82 minutes

*** tstart() called on node37.bme.utexas.edu
*** at Tue Feb 22 18:31:25 2022


  //>>>>>>>>>>>>>>>>>>>>>>>>>>>>>>>>>>>//
  //               DFMP2               //
  //<<<<<<<<<<<<<<<<<<<<<<<<<<<<<<<<<<<//

   => Loading Basis Set <=

    Name: (AUG-CC-PVQZ AUX)
    Role: RIFIT
    Keyword: DF_BASIS_MP2
    atoms 1, 6      entry CL         line   914 file /home/bdw2292/miniconda3/envs/amoebamdpoltype/share/psi4/basis/aug-cc-pvqz-ri.gbs 
    atoms 2, 7      entry C          line   184 file /home/bdw2292/miniconda3/envs/amoebamdpoltype/share/psi4/basis/aug-cc-pvqz-ri.gbs 
    atoms 3-5, 8-10 entry H          line    30 file /home/bdw2292/miniconda3/envs/amoebamdpoltype/share/psi4/basis/aug-cc-pvqz-ri.gbs 

	 --------------------------------------------------------
	                          DF-MP2                         
	      2nd-Order Density-Fitted Moller-Plesset Theory     
	              RMP2 Wavefunction,   4 Threads             
	                                                         
	        Rob Parrish, Justin Turney, Andy Simmonett,      
	           Ed Hohenstein, and C. David Sherrill          
	 --------------------------------------------------------

   => Auxiliary Basis Set <=

  Basis Set: (AUG-CC-PVQZ AUX)
    Blend: AUG-CC-PVQZ-RI
    Number of shells: 280
    Number of basis function: 1204
    Number of Cartesian functions: 1640
    Spherical Harmonics?: true
    Max angular momentum: 5

	 --------------------------------------------------------
	                 NBF =   604, NAUX =  1204
	 --------------------------------------------------------
	   CLASS    FOCC     OCC    AOCC    AVIR     VIR    FVIR
	   PAIRS      12      26      14     578     578       0
	 --------------------------------------------------------

	-----------------------------------------------------------
	 ==================> DF-MP2 Energies <==================== 
	-----------------------------------------------------------
	 Reference Energy          =    -998.3066175747843545 [Eh]
	 Singles Energy            =      -0.0000000000000000 [Eh]
	 Same-Spin Energy          =      -0.1783098748364620 [Eh]
	 Opposite-Spin Energy      =      -0.6400710235370726 [Eh]
	 Correlation Energy        =      -0.8183808983735346 [Eh]
	 Total Energy              =    -999.1249984731579161 [Eh]
	-----------------------------------------------------------
	 ================> DF-SCS-MP2 Energies <================== 
	-----------------------------------------------------------
	 SCS Same-Spin Scale       =       0.3333333333333333 [-]
	 SCS Opposite-Spin Scale   =       1.2000000000000000 [-]
	 SCS Same-Spin Energy      =      -0.0594366249454873 [Eh]
	 SCS Opposite-Spin Energy  =      -0.7680852282444871 [Eh]
	 SCS Correlation Energy    =      -0.8275218531899744 [Eh]
	 SCS Total Energy          =    -999.1341394279743326 [Eh]
	-----------------------------------------------------------


*** tstop() called on node37.bme.utexas.edu at Tue Feb 22 18:32:01 2022
Module time:
	user time   =      73.61 seconds =       1.23 minutes
	system time =       5.53 seconds =       0.09 minutes
	total time  =         36 seconds =       0.60 minutes
Total time:
	user time   =    1177.31 seconds =      19.62 minutes
	system time =     191.36 seconds =       3.19 minutes
	total time  =        625 seconds =      10.42 minutes

  //>>>>>>>>>>>>>>>>>>>>>>>>>>>>>>>>>>>//
  //  CBS Results: mp2/aug-cc-pV[TQ]Z  //
  //<<<<<<<<<<<<<<<<<<<<<<<<<<<<<<<<<<<//


   ==> HF <==

   HI-zeta (4) Energy:               -998.306617574784


   ==> Helgaker 2-point correlated extrapolation for method: MP2 <==

   LO-zeta (3) Energy:               -999.059697083679
   HI-zeta (4) Energy:               -999.124998473158
   Alpha (exponent) Value:             3.000000000000
   Extrapolated Energy:              -999.172650838453

   @Extrapolated MP2/(T,Q):          -999.172650838453



   ==> Helgaker 2-point correlated extrapolation for method: HF <==

   LO-zeta (3) Energy:               -998.294510602415
   HI-zeta (4) Energy:               -998.306617574784
   Alpha (exponent) Value:             3.000000000000
   Extrapolated Energy:              -998.315452392459

   @Extrapolated HF/(T,Q):           -998.315452392459


   ==> Components <==

  ---------------------------------------------------------------------------------------------------------
                          Method / Basis                      Rqd      Energy [Eh]   Variable
  ---------------------------------------------------------------------------------------------------------
                              hf / aug-cc-pvtz                  *    -998.29451060   HF TOTAL ENERGY
                             mp2 / aug-cc-pvtz                  *    -999.05969708   MP2 TOTAL ENERGY
                              hf / aug-cc-pvqz                  *    -998.30661757   HF TOTAL ENERGY
                             mp2 / aug-cc-pvqz                  *    -999.12499847   MP2 TOTAL ENERGY
  ---------------------------------------------------------------------------------------------------------

   ==> Stages <==

  ---------------------------------------------------------------------------------------------------------
      Stage               Method / Basis                       Wt      Energy [Eh]   Scheme
  ---------------------------------------------------------------------------------------------------------
        scf                   hf / aug-cc-pvqz                  1    -998.30661757   xtpl_highest_1
       corl                  mp2 / aug-cc-pv[tq]z               1    -999.17265084   corl_xtpl_helgaker_2
       corl                   hf / aug-cc-pv[tq]z              -1    -998.31545239   corl_xtpl_helgaker_2
  ---------------------------------------------------------------------------------------------------------

   ==> CBS <==

  ---------------------------------------------------------------------------------------------------------
      Stage               Method / Basis                               Energy [Eh]   Scheme
  ---------------------------------------------------------------------------------------------------------
        scf                   hf / aug-cc-pvqz                       -998.30661757   xtpl_highest_1
       corl                  mp2 / aug-cc-pv[tq]z                      -0.85719845   corl_xtpl_helgaker_2
      total                  CBS                                     -999.16381602   
  ---------------------------------------------------------------------------------------------------------
   => Loading Basis Set <=

    Name: DEF2-SVP
    Role: ORBITAL
    Keyword: BASIS
    atoms 1, 6      entry CL         line   356 file /home/bdw2292/miniconda3/envs/amoebamdpoltype/share/psi4/basis/def2-svp.gbs 
    atoms 2, 7      entry C          line    90 file /home/bdw2292/miniconda3/envs/amoebamdpoltype/share/psi4/basis/def2-svp.gbs 
    atoms 3-5, 8-10 entry H          line    15 file /home/bdw2292/miniconda3/envs/amoebamdpoltype/share/psi4/basis/def2-svp.gbs 


       N-Body: Complex Energy (fragments = (1, 2), basis = (1, 2):  -999.16381602077809)

   ==> N-Body: Counterpoise Corrected (CP) energies <==

   n-Body     Total Energy [Eh]       I.E. [kcal/mol]      Delta [kcal/mol]
        1     -999.162662649192        0.000000000000        0.000000000000
        2     -999.163709272195       -0.656765849744       -0.656765849744

   => Loading Basis Set <=

    Name: DEF2-SVP
    Role: ORBITAL
    Keyword: BASIS
    atoms 1, 6      entry CL         line   356 file /home/bdw2292/miniconda3/envs/amoebamdpoltype/share/psi4/basis/def2-svp.gbs 
    atoms 2, 7      entry C          line    90 file /home/bdw2292/miniconda3/envs/amoebamdpoltype/share/psi4/basis/def2-svp.gbs 
    atoms 3-5, 8-10 entry H          line    15 file /home/bdw2292/miniconda3/envs/amoebamdpoltype/share/psi4/basis/def2-svp.gbs 

CP Energy =  -0.001047
    Psi4 stopped on: Tuesday, 22 February 2022 06:32PM
    Psi4 wall time for execution: 0:10:27.29

*** Psi4 exiting successfully. Buy a developer a beer!
