
    -----------------------------------------------------------------------
          Psi4: An Open-Source Ab Initio Electronic Structure Package
                               Psi4 1.3.2 release

                         Git: Rev {HEAD} ecbda83 


    R. M. Parrish, L. A. Burns, D. G. A. Smith, A. C. Simmonett,
    A. E. DePrince III, E. G. Hohenstein, U. Bozkaya, A. Yu. Sokolov,
    R. Di Remigio, R. M. Richard, J. F. Gonthier, A. M. James,
    H. R. McAlexander, A. Kumar, M. Saitow, X. Wang, B. P. Pritchard,
    P. Verma, H. F. Schaefer III, K. Patkowski, R. A. King, E. F. Valeev,
    F. A. Evangelista, J. M. Turney, T. D. Crawford, and C. D. Sherrill,
    J. Chem. Theory Comput. 13(7) pp 3185--3197 (2017).
    (doi: 10.1021/acs.jctc.7b00174)


                         Additional Contributions by
    P. Kraus, H. Kruse, M. H. Lechner, M. C. Schieber, R. A. Shaw,
    A. Alenaizan, R. Galvelis, Z. L. Glick, S. Lehtola, and J. P. Misiewicz

    -----------------------------------------------------------------------


    Psi4 started on: Tuesday, 22 February 2022 05:44PM

    Process ID: 24772
    Host:       node37.bme.utexas.edu
    PSIDATADIR: /home/bdw2292/miniconda3/envs/amoebamdpoltype/share/psi4
    Memory:     500.0 MiB
    Threads:    1
    
  ==> Input File <==

--------------------------------------------------------------------------
molecule { 
0 1
 Cl                  0.2237841     0.8067207    -0.4751478
  C                 -1.3125540     0.0215805    -0.0346030
  H                 -1.4593911    -0.8497931    -0.6731564
  H                 -1.2619076    -0.2891343     1.0091662
  H                 -2.1297134     0.7295137    -0.1734769
--
0 1
  O                  2.0988524    -0.9941829     0.5720586
  H                  1.5772071    -1.6596318     1.0192228
  H                  1.5011714    -0.3469552     0.1933218
}
memory 15GB
set_num_threads(4)
psi4_io.set_default_path("/scratch/bdw2292/Psi4-CH3Cl")
set maxiter 500
set freeze_core True
set PROPERTIES_ORIGIN ["COM"]
e_dim= energy('mp2/aug-cc-pV[TQ]Z',bsse_type='cp')

psi4.print_out('CP Energy = %10.6f' % (e_dim))
clean()
--------------------------------------------------------------------------

  Memory set to  13.970 GiB by Python driver.
  Threads set to 4 by Python driver.


   ===> N-Body Interaction Abacus <===
        BSSE Treatment:                     cp
        Number of 1-body computations:     4
        Number of 2-body computations:     1

   ==> N-Body: Now computing 1-body complexes <==


       N-Body: Computing complex (1/4) with fragments (2,) in the basis of fragments (2,).


  //>>>>>>>>>>>>>>>>>>>>>>>>>>>>>>>>>>>//
  //   CBS Setup: mp2/aug-cc-pV[TQ]Z   //
  //<<<<<<<<<<<<<<<<<<<<<<<<<<<<<<<<<<<//

    Naive listing of computations required.
             hf / aug-cc-pvqz              for  HF TOTAL ENERGY
            mp2 / aug-cc-pvtz              for  MP2 TOTAL ENERGY
            mp2 / aug-cc-pvqz              for  MP2 TOTAL ENERGY
             hf / aug-cc-pvtz              for  HF TOTAL ENERGY
             hf / aug-cc-pvqz              for  HF TOTAL ENERGY

    Enlightened listing of computations required.
            mp2 / aug-cc-pvtz              for  MP2 TOTAL ENERGY
            mp2 / aug-cc-pvqz              for  MP2 TOTAL ENERGY

    Full listing of computations to be obtained (required and bonus).
             hf / aug-cc-pvtz              for  HF TOTAL ENERGY
            mp2 / aug-cc-pvtz              for  MP2 TOTAL ENERGY
             hf / aug-cc-pvqz              for  HF TOTAL ENERGY
            mp2 / aug-cc-pvqz              for  MP2 TOTAL ENERGY

  //>>>>>>>>>>>>>>>>>>>>>>>>>>>>>>>>>>>>//
  // CBS Computation: MP2 / AUG-CC-PVTZ //
  //<<<<<<<<<<<<<<<<<<<<<<<<<<<<<<<<<<<<//

    SCF Algorithm Type (re)set to DF.

*** tstart() called on node37.bme.utexas.edu
*** at Tue Feb 22 17:44:06 2022

   => Loading Basis Set <=

    Name: AUG-CC-PVTZ
    Role: ORBITAL
    Keyword: BASIS
    atoms 1   entry O          line   327 file /home/bdw2292/miniconda3/envs/amoebamdpoltype/share/psi4/basis/aug-cc-pvtz.gbs 
    atoms 2-3 entry H          line    36 file /home/bdw2292/miniconda3/envs/amoebamdpoltype/share/psi4/basis/aug-cc-pvtz.gbs 


         ---------------------------------------------------------
                                   SCF
               by Justin Turney, Rob Parrish, Andy Simmonett
                          and Daniel G. A. Smith
                              RHF Reference
                        4 Threads,  14305 MiB Core
         ---------------------------------------------------------

  ==> Geometry <==

    Molecular point group: c1
    Full point group: C1

    Geometry (in Angstrom), charge = 0, multiplicity = 1:

       Center              X                  Y                   Z               Mass       
    ------------   -----------------  -----------------  -----------------  -----------------
         O            1.747995476369    -1.143180778793     0.667565470297    15.994914619570
         H            1.226350176369    -1.808629678793     1.114729670297     1.007825032230
         H            1.150314476369    -0.495953078793     0.288828670297     1.007825032230

  Running in c1 symmetry.

  Rotational constants: A =     18.09274  B =      0.20140  C =      0.19918 [cm^-1]
  Rotational constants: A = 542406.82434  B =   6037.82345  C =   5971.37127 [MHz]
  Nuclear repulsion =    9.181428628503419

  Charge       = 0
  Multiplicity = 1
  Electrons    = 10
  Nalpha       = 5
  Nbeta        = 5

  ==> Algorithm <==

  SCF Algorithm Type is DF.
  DIIS enabled.
  MOM disabled.
  Fractional occupation disabled.
  Guess Type is SAD.
  Energy threshold   = 1.00e-08
  Density threshold  = 1.00e-08
  Integral threshold = 0.00e+00

  ==> Primary Basis <==

  Basis Set: AUG-CC-PVTZ
    Blend: AUG-CC-PVTZ
    Number of shells: 32
    Number of basis function: 92
    Number of Cartesian functions: 105
    Spherical Harmonics?: true
    Max angular momentum: 3

   => Loading Basis Set <=

    Name: (AUG-CC-PVTZ AUX)
    Role: JKFIT
    Keyword: DF_BASIS_SCF
    atoms 1   entry O          line   286 file /home/bdw2292/miniconda3/envs/amoebamdpoltype/share/psi4/basis/aug-cc-pvtz-jkfit.gbs 
    atoms 2-3 entry H          line    70 file /home/bdw2292/miniconda3/envs/amoebamdpoltype/share/psi4/basis/aug-cc-pvtz-jkfit.gbs 

  ==> Pre-Iterations <==

   -------------------------------------------------------
    Irrep   Nso     Nmo     Nalpha   Nbeta   Ndocc  Nsocc
   -------------------------------------------------------
     A         92      92       0       0       0       0
   -------------------------------------------------------
    Total      92      92       5       5       5       0
   -------------------------------------------------------

  ==> Integral Setup <==

  DFHelper Memory: AOs need 0.015 GiB; user supplied 10.477 GiB. Using in-core AOs.

  ==> MemDFJK: Density-Fitted J/K Matrices <==

    J tasked:                   Yes
    K tasked:                   Yes
    wK tasked:                   No
    OpenMP threads:               4
    Memory [MiB]:             10728
    Algorithm:                 Core
    Schwarz Cutoff:           1E-12
    Mask sparsity (%):       0.0000
    Fitting Condition:        1E-10

   => Auxiliary Basis Set <=

  Basis Set: (AUG-CC-PVTZ AUX)
    Blend: AUG-CC-PVTZ-JKFIT
    Number of shells: 58
    Number of basis function: 196
    Number of Cartesian functions: 241
    Spherical Harmonics?: true
    Max angular momentum: 4

  Minimum eigenvalue in the overlap matrix is 3.7758857876E-04.
  Using Symmetric Orthogonalization.

  SCF Guess: Superposition of Atomic Densities via on-the-fly atomic UHF.

  ==> Iterations <==

                           Total Energy        Delta E     RMS |[F,P]|

   @DF-RHF iter SAD:   -75.47376344057234   -7.54738e+01   0.00000e+00 
   @DF-RHF iter   1:   -75.97655858499168   -5.02795e-01   5.09380e-03 DIIS
   @DF-RHF iter   2:   -76.02897021399136   -5.24116e-02   3.45292e-03 DIIS
   @DF-RHF iter   3:   -76.06001550525362   -3.10453e-02   2.34507e-04 DIIS
   @DF-RHF iter   4:   -76.06040543466666   -3.89929e-04   5.60163e-05 DIIS
   @DF-RHF iter   5:   -76.06042942842180   -2.39938e-05   1.26138e-05 DIIS
   @DF-RHF iter   6:   -76.06043138848169   -1.96006e-06   2.80686e-06 DIIS
   @DF-RHF iter   7:   -76.06043149644378   -1.07962e-07   5.30033e-07 DIIS
   @DF-RHF iter   8:   -76.06043149985845   -3.41467e-09   8.79596e-08 DIIS
   @DF-RHF iter   9:   -76.06043149993268   -7.42233e-11   2.18700e-08 DIIS
   @DF-RHF iter  10:   -76.06043149993660   -3.92220e-12   2.98565e-09 DIIS
  Energy and wave function converged.


  ==> Post-Iterations <==

    Orbital Energies [Eh]
    ---------------------

    Doubly Occupied:                                                      

       1A    -20.565573     2A     -1.350667     3A     -0.724786  
       4A     -0.577443     5A     -0.509189  

    Virtual:                                                              

       6A      0.029663     7A      0.047448     8A      0.136469  
       9A      0.157889    10A      0.174282    11A      0.182057  
      12A      0.228798    13A      0.244462    14A      0.263875  
      15A      0.304621    16A      0.313151    17A      0.365234  
      18A      0.437910    19A      0.466763    20A      0.602165  
      21A      0.654335    22A      0.711081    23A      0.719358  
      24A      0.731277    25A      0.828006    26A      0.843780  
      27A      0.890066    28A      0.912869    29A      0.920664  
      30A      0.923821    31A      0.927973    32A      0.971094  
      33A      1.022888    34A      1.045246    35A      1.085085  
      36A      1.113965    37A      1.172781    38A      1.177388  
      39A      1.259665    40A      1.514328    41A      1.563119  
      42A      1.595601    43A      1.785633    44A      1.797397  
      45A      2.002886    46A      2.115795    47A      2.259714  
      48A      2.318546    49A      2.321115    50A      2.413477  
      51A      2.414572    52A      2.438633    53A      2.471652  
      54A      2.686748    55A      2.703129    56A      2.767854  
      57A      2.856425    58A      2.883800    59A      3.645128  
      60A      3.769237    61A      4.007335    62A      4.089946  
      63A      4.210860    64A      4.231441    65A      4.335047  
      66A      4.381756    67A      4.400687    68A      4.415755  
      69A      4.493726    70A      4.707822    71A      4.812997  
      72A      5.124408    73A      5.171909    74A      5.304923  
      75A      5.329917    76A      5.513214    77A      5.720447  
      78A      6.140310    79A      6.534213    80A      6.713386  
      81A      6.859323    82A      7.146117    83A      7.262241  
      84A      7.299408    85A      7.308017    86A      7.370812  
      87A      7.386307    88A      7.557806    89A      7.897594  
      90A      7.962946    91A      8.788904    92A     15.853656  

    Final Occupation by Irrep:
              A 
    DOCC [     5 ]

  @DF-RHF Final Energy:   -76.06043149993660

   => Energetics <=

    Nuclear Repulsion Energy =              9.1814286285034186
    One-Electron Energy =                -123.0284050919508303
    Two-Electron Energy =                  37.7865449635108064
    Total Energy =                        -76.0604314999366125

Computation Completed


Properties will be evaluated at   3.184870,  -2.162225,   1.268752 [a0]

Properties computed using the SCF density matrix

  Nuclear Dipole Moment: [e a0]
     X:    -0.9316      Y:    -0.0152      Z:     0.0570

  Electronic Dipole Moment: [e a0]
     X:     0.1781      Y:     0.0026      Z:    -0.0107

  Dipole Moment: [e a0]
     X:    -0.7535      Y:    -0.0126      Z:     0.0463     Total:     0.7550

  Dipole Moment: [D]
     X:    -1.9152      Y:    -0.0320      Z:     0.1176     Total:     1.9191


*** tstop() called on node37.bme.utexas.edu at Tue Feb 22 17:44:08 2022
Module time:
	user time   =       4.78 seconds =       0.08 minutes
	system time =       0.38 seconds =       0.01 minutes
	total time  =          2 seconds =       0.03 minutes
Total time:
	user time   =       4.78 seconds =       0.08 minutes
	system time =       0.38 seconds =       0.01 minutes
	total time  =          2 seconds =       0.03 minutes

*** tstart() called on node37.bme.utexas.edu
*** at Tue Feb 22 17:44:08 2022


  //>>>>>>>>>>>>>>>>>>>>>>>>>>>>>>>>>>>//
  //               DFMP2               //
  //<<<<<<<<<<<<<<<<<<<<<<<<<<<<<<<<<<<//

   => Loading Basis Set <=

    Name: (AUG-CC-PVTZ AUX)
    Role: RIFIT
    Keyword: DF_BASIS_MP2
    atoms 1   entry O          line   264 file /home/bdw2292/miniconda3/envs/amoebamdpoltype/share/psi4/basis/aug-cc-pvtz-ri.gbs 
    atoms 2-3 entry H          line    30 file /home/bdw2292/miniconda3/envs/amoebamdpoltype/share/psi4/basis/aug-cc-pvtz-ri.gbs 

	 --------------------------------------------------------
	                          DF-MP2                         
	      2nd-Order Density-Fitted Moller-Plesset Theory     
	              RMP2 Wavefunction,   4 Threads             
	                                                         
	        Rob Parrish, Justin Turney, Andy Simmonett,      
	           Ed Hohenstein, and C. David Sherrill          
	 --------------------------------------------------------

   => Auxiliary Basis Set <=

  Basis Set: (AUG-CC-PVTZ AUX)
    Blend: AUG-CC-PVTZ-RI
    Number of shells: 56
    Number of basis function: 198
    Number of Cartesian functions: 246
    Spherical Harmonics?: true
    Max angular momentum: 4

	 --------------------------------------------------------
	                 NBF =    92, NAUX =   198
	 --------------------------------------------------------
	   CLASS    FOCC     OCC    AOCC    AVIR     VIR    FVIR
	   PAIRS       1       5       4      87      87       0
	 --------------------------------------------------------

	-----------------------------------------------------------
	 ==================> DF-MP2 Energies <==================== 
	-----------------------------------------------------------
	 Reference Energy          =     -76.0604314999365982 [Eh]
	 Singles Energy            =      -0.0000000000000000 [Eh]
	 Same-Spin Energy          =      -0.0650987977196898 [Eh]
	 Opposite-Spin Energy      =      -0.2029916154323280 [Eh]
	 Correlation Energy        =      -0.2680904131520178 [Eh]
	 Total Energy              =     -76.3285219130886219 [Eh]
	-----------------------------------------------------------
	 ================> DF-SCS-MP2 Energies <================== 
	-----------------------------------------------------------
	 SCS Same-Spin Scale       =       0.3333333333333333 [-]
	 SCS Opposite-Spin Scale   =       1.2000000000000000 [-]
	 SCS Same-Spin Energy      =      -0.0216995992398966 [Eh]
	 SCS Opposite-Spin Energy  =      -0.2435899385187936 [Eh]
	 SCS Correlation Energy    =      -0.2652895377586902 [Eh]
	 SCS Total Energy          =     -76.3257210376952884 [Eh]
	-----------------------------------------------------------


*** tstop() called on node37.bme.utexas.edu at Tue Feb 22 17:44:08 2022
Module time:
	user time   =       1.54 seconds =       0.03 minutes
	system time =       0.09 seconds =       0.00 minutes
	total time  =          0 seconds =       0.00 minutes
Total time:
	user time   =       6.33 seconds =       0.11 minutes
	system time =       0.47 seconds =       0.01 minutes
	total time  =          2 seconds =       0.03 minutes

  //>>>>>>>>>>>>>>>>>>>>>>>>>>>>>>>>>>>>//
  // CBS Computation: MP2 / AUG-CC-PVQZ //
  //<<<<<<<<<<<<<<<<<<<<<<<<<<<<<<<<<<<<//

    SCF Algorithm Type (re)set to DF.

*** tstart() called on node37.bme.utexas.edu
*** at Tue Feb 22 17:44:08 2022

   => Loading Basis Set <=

    Name: AUG-CC-PVQZ
    Role: ORBITAL
    Keyword: BASIS
    atoms 1   entry O          line   419 file /home/bdw2292/miniconda3/envs/amoebamdpoltype/share/psi4/basis/aug-cc-pvqz.gbs 
    atoms 2-3 entry H          line    36 file /home/bdw2292/miniconda3/envs/amoebamdpoltype/share/psi4/basis/aug-cc-pvqz.gbs 


         ---------------------------------------------------------
                                   SCF
               by Justin Turney, Rob Parrish, Andy Simmonett
                          and Daniel G. A. Smith
                              RHF Reference
                        4 Threads,  14305 MiB Core
         ---------------------------------------------------------

  ==> Geometry <==

    Molecular point group: c1
    Full point group: C1

    Geometry (in Angstrom), charge = 0, multiplicity = 1:

       Center              X                  Y                   Z               Mass       
    ------------   -----------------  -----------------  -----------------  -----------------
         O            1.747995476369    -1.143180778793     0.667565470297    15.994914619570
         H            1.226350176369    -1.808629678793     1.114729670297     1.007825032230
         H            1.150314476369    -0.495953078793     0.288828670297     1.007825032230

  Running in c1 symmetry.

  Rotational constants: A =     18.09274  B =      0.20140  C =      0.19918 [cm^-1]
  Rotational constants: A = 542406.82434  B =   6037.82345  C =   5971.37127 [MHz]
  Nuclear repulsion =    9.181428628503419

  Charge       = 0
  Multiplicity = 1
  Electrons    = 10
  Nalpha       = 5
  Nbeta        = 5

  ==> Algorithm <==

  SCF Algorithm Type is DF.
  DIIS enabled.
  MOM disabled.
  Fractional occupation disabled.
  Guess Type is SAD.
  Energy threshold   = 1.00e-08
  Density threshold  = 1.00e-08
  Integral threshold = 0.00e+00

  ==> Primary Basis <==

  Basis Set: AUG-CC-PVQZ
    Blend: AUG-CC-PVQZ
    Number of shells: 48
    Number of basis function: 172
    Number of Cartesian functions: 215
    Spherical Harmonics?: true
    Max angular momentum: 4

   => Loading Basis Set <=

    Name: (AUG-CC-PVQZ AUX)
    Role: JKFIT
    Keyword: DF_BASIS_SCF
    atoms 1   entry O          line   318 file /home/bdw2292/miniconda3/envs/amoebamdpoltype/share/psi4/basis/aug-cc-pvqz-jkfit.gbs 
    atoms 2-3 entry H          line    70 file /home/bdw2292/miniconda3/envs/amoebamdpoltype/share/psi4/basis/aug-cc-pvqz-jkfit.gbs 

  ==> Pre-Iterations <==

   -------------------------------------------------------
    Irrep   Nso     Nmo     Nalpha   Nbeta   Ndocc  Nsocc
   -------------------------------------------------------
     A        172     172       0       0       0       0
   -------------------------------------------------------
    Total     172     172       5       5       5       0
   -------------------------------------------------------

  ==> Integral Setup <==

  DFHelper Memory: AOs need 0.074 GiB; user supplied 10.477 GiB. Using in-core AOs.

  ==> MemDFJK: Density-Fitted J/K Matrices <==

    J tasked:                   Yes
    K tasked:                   Yes
    wK tasked:                   No
    OpenMP threads:               4
    Memory [MiB]:             10728
    Algorithm:                 Core
    Schwarz Cutoff:           1E-12
    Mask sparsity (%):       0.0000
    Fitting Condition:        1E-10

   => Auxiliary Basis Set <=

  Basis Set: (AUG-CC-PVQZ AUX)
    Blend: AUG-CC-PVQZ-JKFIT
    Number of shells: 70
    Number of basis function: 294
    Number of Cartesian functions: 400
    Spherical Harmonics?: true
    Max angular momentum: 5

  Minimum eigenvalue in the overlap matrix is 8.5468008666E-05.
  Using Symmetric Orthogonalization.

  SCF Guess: Superposition of Atomic Densities via on-the-fly atomic UHF.

  ==> Iterations <==

                           Total Energy        Delta E     RMS |[F,P]|

   @DF-RHF iter SAD:   -75.47891910615702   -7.54789e+01   0.00000e+00 
   @DF-RHF iter   1:   -75.98163972302316   -5.02721e-01   2.73037e-03 DIIS
   @DF-RHF iter   2:   -76.03415554133906   -5.25158e-02   1.85514e-03 DIIS
   @DF-RHF iter   3:   -76.06539885764354   -3.12433e-02   1.26348e-04 DIIS
   @DF-RHF iter   4:   -76.06579084770894   -3.91990e-04   3.08809e-05 DIIS
   @DF-RHF iter   5:   -76.06581574177967   -2.48941e-05   6.92810e-06 DIIS
   @DF-RHF iter   6:   -76.06581778426093   -2.04248e-06   1.58299e-06 DIIS
   @DF-RHF iter   7:   -76.06581790349412   -1.19233e-07   3.08507e-07 DIIS
   @DF-RHF iter   8:   -76.06581790751783   -4.02370e-09   4.93899e-08 DIIS
   @DF-RHF iter   9:   -76.06581790760194   -8.41140e-11   1.19635e-08 DIIS
   @DF-RHF iter  10:   -76.06581790760573   -3.79430e-12   1.66472e-09 DIIS
  Energy and wave function converged.


  ==> Post-Iterations <==

    Orbital Energies [Eh]
    ---------------------

    Doubly Occupied:                                                      

       1A    -20.563117     2A     -1.349941     3A     -0.724752  
       4A     -0.577495     5A     -0.509318  

    Virtual:                                                              

       6A      0.027142     7A      0.042879     8A      0.114689  
       9A      0.132637    10A      0.150359    11A      0.157878  
      12A      0.185953    13A      0.197110    14A      0.208290  
      15A      0.241238    16A      0.258896    17A      0.290441  
      18A      0.358043    19A      0.390563    20A      0.471763  
      21A      0.506748    22A      0.542990    23A      0.545727  
      24A      0.554185    25A      0.613307    26A      0.634206  
      27A      0.649547    28A      0.662665    29A      0.665841  
      30A      0.690173    31A      0.705218    32A      0.714948  
      33A      0.769541    34A      0.787546    35A      0.803479  
      36A      0.809719    37A      0.846658    38A      0.855362  
      39A      0.967496    40A      1.134226    41A      1.140624  
      42A      1.216508    43A      1.329072    44A      1.418430  
      45A      1.480450    46A      1.506174    47A      1.521469  
      48A      1.525141    49A      1.555820    50A      1.595494  
      51A      1.618115    52A      1.636565    53A      1.659661  
      54A      1.672324    55A      1.686072    56A      1.702532  
      57A      1.720064    58A      1.763237    59A      1.781271  
      60A      1.793541    61A      1.828654    62A      1.862962  
      63A      1.881998    64A      1.900750    65A      1.954211  
      66A      2.013859    67A      2.021858    68A      2.029626  
      69A      2.099152    70A      2.218635    71A      2.225631  
      72A      2.307052    73A      2.491398    74A      2.641702  
      75A      2.643000    76A      2.890535    77A      2.961955  
      78A      3.009843    79A      3.023981    80A      3.061258  
      81A      3.088201    82A      3.253337    83A      3.283527  
      84A      3.309954    85A      3.529188    86A      3.591098  
      87A      3.657831    88A      3.682065    89A      3.739195  
      90A      3.742581    91A      3.920933    92A      4.066622  
      93A      4.159480    94A      4.170537    95A      4.174862  
      96A      4.181140    97A      4.250747    98A      4.343881  
      99A      4.419234   100A      4.566082   101A      4.664245  
     102A      4.760552   103A      4.802825   104A      4.806553  
     105A      4.838842   106A      4.875359   107A      4.998502  
     108A      5.275389   109A      5.315707   110A      5.512454  
     111A      5.546941   112A      5.877981   113A      5.881679  
     114A      6.079972   115A      6.230083   116A      6.836121  
     117A      6.858714   118A      6.861768   119A      6.955155  
     120A      7.713309   121A      7.780065   122A      7.828068  
     123A      7.844910   124A      7.876555   125A      7.918297  
     126A      7.946413   127A      8.006758   128A      8.197471  
     129A      8.338036   130A      8.536365   131A      8.591654  
     132A      8.704065   133A      8.757915   134A      8.798396  
     135A      8.875301   136A      8.982044   137A      9.062933  
     138A      9.142983   139A      9.530798   140A      9.842005  
     141A      9.960945   142A      9.964453   143A     10.012486  
     144A     10.437937   145A     10.477779   146A     10.655510  
     147A     10.993367   148A     11.038543   149A     11.079771  
     150A     11.260226   151A     11.367976   152A     11.438270  
     153A     11.696879   154A     11.796316   155A     11.834909  
     156A     12.012055   157A     12.175943   158A     12.224203  
     159A     12.532537   160A     12.735455   161A     12.873410  
     162A     12.896041   163A     13.210895   164A     13.997076  
     165A     14.038186   166A     14.487021   167A     14.844918  
     168A     14.875221   169A     15.299290   170A     16.925088  
     171A     17.265936   172A     45.490518  

    Final Occupation by Irrep:
              A 
    DOCC [     5 ]

  @DF-RHF Final Energy:   -76.06581790760573

   => Energetics <=

    Nuclear Repulsion Energy =              9.1814286285034186
    One-Electron Energy =                -123.0452476044814318
    Two-Electron Energy =                  37.7980010683722796
    Total Energy =                        -76.0658179076057195

Computation Completed


Properties will be evaluated at   3.184870,  -2.162225,   1.268752 [a0]

Properties computed using the SCF density matrix

  Nuclear Dipole Moment: [e a0]
     X:    -0.9316      Y:    -0.0152      Z:     0.0570

  Electronic Dipole Moment: [e a0]
     X:     0.1789      Y:     0.0026      Z:    -0.0107

  Dipole Moment: [e a0]
     X:    -0.7527      Y:    -0.0126      Z:     0.0462     Total:     0.7542

  Dipole Moment: [D]
     X:    -1.9131      Y:    -0.0319      Z:     0.1175     Total:     1.9169


*** tstop() called on node37.bme.utexas.edu at Tue Feb 22 17:44:12 2022
Module time:
	user time   =       7.87 seconds =       0.13 minutes
	system time =       0.56 seconds =       0.01 minutes
	total time  =          4 seconds =       0.07 minutes
Total time:
	user time   =      14.27 seconds =       0.24 minutes
	system time =       1.04 seconds =       0.02 minutes
	total time  =          6 seconds =       0.10 minutes

*** tstart() called on node37.bme.utexas.edu
*** at Tue Feb 22 17:44:12 2022


  //>>>>>>>>>>>>>>>>>>>>>>>>>>>>>>>>>>>//
  //               DFMP2               //
  //<<<<<<<<<<<<<<<<<<<<<<<<<<<<<<<<<<<//

   => Loading Basis Set <=

    Name: (AUG-CC-PVQZ AUX)
    Role: RIFIT
    Keyword: DF_BASIS_MP2
    atoms 1   entry O          line   332 file /home/bdw2292/miniconda3/envs/amoebamdpoltype/share/psi4/basis/aug-cc-pvqz-ri.gbs 
    atoms 2-3 entry H          line    30 file /home/bdw2292/miniconda3/envs/amoebamdpoltype/share/psi4/basis/aug-cc-pvqz-ri.gbs 

	 --------------------------------------------------------
	                          DF-MP2                         
	      2nd-Order Density-Fitted Moller-Plesset Theory     
	              RMP2 Wavefunction,   4 Threads             
	                                                         
	        Rob Parrish, Justin Turney, Andy Simmonett,      
	           Ed Hohenstein, and C. David Sherrill          
	 --------------------------------------------------------

   => Auxiliary Basis Set <=

  Basis Set: (AUG-CC-PVQZ AUX)
    Blend: AUG-CC-PVQZ-RI
    Number of shells: 76
    Number of basis function: 328
    Number of Cartesian functions: 447
    Spherical Harmonics?: true
    Max angular momentum: 5

	 --------------------------------------------------------
	                 NBF =   172, NAUX =   328
	 --------------------------------------------------------
	   CLASS    FOCC     OCC    AOCC    AVIR     VIR    FVIR
	   PAIRS       1       5       4     167     167       0
	 --------------------------------------------------------

	-----------------------------------------------------------
	 ==================> DF-MP2 Energies <==================== 
	-----------------------------------------------------------
	 Reference Energy          =     -76.0658179076057337 [Eh]
	 Singles Energy            =      -0.0000000000000000 [Eh]
	 Same-Spin Energy          =      -0.0671681172122868 [Eh]
	 Opposite-Spin Energy      =      -0.2185301815599434 [Eh]
	 Correlation Energy        =      -0.2856982987722302 [Eh]
	 Total Energy              =     -76.3515162063779655 [Eh]
	-----------------------------------------------------------
	 ================> DF-SCS-MP2 Energies <================== 
	-----------------------------------------------------------
	 SCS Same-Spin Scale       =       0.3333333333333333 [-]
	 SCS Opposite-Spin Scale   =       1.2000000000000000 [-]
	 SCS Same-Spin Energy      =      -0.0223893724040956 [Eh]
	 SCS Opposite-Spin Energy  =      -0.2622362178719320 [Eh]
	 SCS Correlation Energy    =      -0.2846255902760276 [Eh]
	 SCS Total Energy          =     -76.3504434978817557 [Eh]
	-----------------------------------------------------------


*** tstop() called on node37.bme.utexas.edu at Tue Feb 22 17:44:12 2022
Module time:
	user time   =       2.72 seconds =       0.05 minutes
	system time =       0.19 seconds =       0.00 minutes
	total time  =          0 seconds =       0.00 minutes
Total time:
	user time   =      17.00 seconds =       0.28 minutes
	system time =       1.23 seconds =       0.02 minutes
	total time  =          6 seconds =       0.10 minutes

  //>>>>>>>>>>>>>>>>>>>>>>>>>>>>>>>>>>>//
  //  CBS Results: mp2/aug-cc-pV[TQ]Z  //
  //<<<<<<<<<<<<<<<<<<<<<<<<<<<<<<<<<<<//


   ==> HF <==

   HI-zeta (4) Energy:               -76.065817907606


   ==> Helgaker 2-point correlated extrapolation for method: MP2 <==

   LO-zeta (3) Energy:               -76.328521913089
   HI-zeta (4) Energy:               -76.351516206378
   Alpha (exponent) Value:             3.000000000000
   Extrapolated Energy:              -76.368295825805

   @Extrapolated MP2/(T,Q):          -76.368295825805



   ==> Helgaker 2-point correlated extrapolation for method: HF <==

   LO-zeta (3) Energy:               -76.060431499937
   HI-zeta (4) Energy:               -76.065817907606
   Alpha (exponent) Value:             3.000000000000
   Extrapolated Energy:              -76.069748529418

   @Extrapolated HF/(T,Q):           -76.069748529418


   ==> Components <==

  ---------------------------------------------------------------------------------------------------------
                          Method / Basis                      Rqd      Energy [Eh]   Variable
  ---------------------------------------------------------------------------------------------------------
                              hf / aug-cc-pvtz                  *     -76.06043150   HF TOTAL ENERGY
                             mp2 / aug-cc-pvtz                  *     -76.32852191   MP2 TOTAL ENERGY
                              hf / aug-cc-pvqz                  *     -76.06581791   HF TOTAL ENERGY
                             mp2 / aug-cc-pvqz                  *     -76.35151621   MP2 TOTAL ENERGY
  ---------------------------------------------------------------------------------------------------------

   ==> Stages <==

  ---------------------------------------------------------------------------------------------------------
      Stage               Method / Basis                       Wt      Energy [Eh]   Scheme
  ---------------------------------------------------------------------------------------------------------
        scf                   hf / aug-cc-pvqz                  1     -76.06581791   xtpl_highest_1
       corl                  mp2 / aug-cc-pv[tq]z               1     -76.36829583   corl_xtpl_helgaker_2
       corl                   hf / aug-cc-pv[tq]z              -1     -76.06974853   corl_xtpl_helgaker_2
  ---------------------------------------------------------------------------------------------------------

   ==> CBS <==

  ---------------------------------------------------------------------------------------------------------
      Stage               Method / Basis                               Energy [Eh]   Scheme
  ---------------------------------------------------------------------------------------------------------
        scf                   hf / aug-cc-pvqz                        -76.06581791   xtpl_highest_1
       corl                  mp2 / aug-cc-pv[tq]z                      -0.29854730   corl_xtpl_helgaker_2
      total                  CBS                                      -76.36436520   
  ---------------------------------------------------------------------------------------------------------
   => Loading Basis Set <=

    Name: DEF2-SVP
    Role: ORBITAL
    Keyword: BASIS
    atoms 1   entry O          line   130 file /home/bdw2292/miniconda3/envs/amoebamdpoltype/share/psi4/basis/def2-svp.gbs 
    atoms 2-3 entry H          line    15 file /home/bdw2292/miniconda3/envs/amoebamdpoltype/share/psi4/basis/def2-svp.gbs 


       N-Body: Complex Energy (fragments = (2,), basis = (2,):   -76.36436520399273)

       N-Body: Computing complex (2/4) with fragments (2,) in the basis of fragments (1, 2).


  //>>>>>>>>>>>>>>>>>>>>>>>>>>>>>>>>>>>//
  //   CBS Setup: mp2/aug-cc-pV[TQ]Z   //
  //<<<<<<<<<<<<<<<<<<<<<<<<<<<<<<<<<<<//

    Naive listing of computations required.
             hf / aug-cc-pvqz              for  HF TOTAL ENERGY
            mp2 / aug-cc-pvtz              for  MP2 TOTAL ENERGY
            mp2 / aug-cc-pvqz              for  MP2 TOTAL ENERGY
             hf / aug-cc-pvtz              for  HF TOTAL ENERGY
             hf / aug-cc-pvqz              for  HF TOTAL ENERGY

    Enlightened listing of computations required.
            mp2 / aug-cc-pvtz              for  MP2 TOTAL ENERGY
            mp2 / aug-cc-pvqz              for  MP2 TOTAL ENERGY

    Full listing of computations to be obtained (required and bonus).
             hf / aug-cc-pvtz              for  HF TOTAL ENERGY
            mp2 / aug-cc-pvtz              for  MP2 TOTAL ENERGY
             hf / aug-cc-pvqz              for  HF TOTAL ENERGY
            mp2 / aug-cc-pvqz              for  MP2 TOTAL ENERGY

  //>>>>>>>>>>>>>>>>>>>>>>>>>>>>>>>>>>>>//
  // CBS Computation: MP2 / AUG-CC-PVTZ //
  //<<<<<<<<<<<<<<<<<<<<<<<<<<<<<<<<<<<<//

    SCF Algorithm Type (re)set to DF.

*** tstart() called on node37.bme.utexas.edu
*** at Tue Feb 22 17:44:14 2022

   => Loading Basis Set <=

    Name: AUG-CC-PVTZ
    Role: ORBITAL
    Keyword: BASIS
    atoms 1        entry CL         line   984 file /home/bdw2292/miniconda3/envs/amoebamdpoltype/share/psi4/basis/aug-cc-pvtz.gbs 
    atoms 2        entry C          line   235 file /home/bdw2292/miniconda3/envs/amoebamdpoltype/share/psi4/basis/aug-cc-pvtz.gbs 
    atoms 3-5, 7-8 entry H          line    36 file /home/bdw2292/miniconda3/envs/amoebamdpoltype/share/psi4/basis/aug-cc-pvtz.gbs 
    atoms 6        entry O          line   327 file /home/bdw2292/miniconda3/envs/amoebamdpoltype/share/psi4/basis/aug-cc-pvtz.gbs 


         ---------------------------------------------------------
                                   SCF
               by Justin Turney, Rob Parrish, Andy Simmonett
                          and Daniel G. A. Smith
                              RHF Reference
                        4 Threads,  14305 MiB Core
         ---------------------------------------------------------

  ==> Geometry <==

    Molecular point group: c1
    Full point group: C1

    Geometry (in Angstrom), charge = 0, multiplicity = 1:

       Center              X                  Y                   Z               Mass       
    ------------   -----------------  -----------------  -----------------  -----------------
      Gh(CL)         -0.127072823631     0.657722821207    -0.379640929703    34.968852682000
      Gh(C)          -1.663410923631    -0.127417378793     0.060903870297    12.000000000000
      Gh(H)          -1.810248023631    -0.998790978793    -0.577649529703     1.007825032230
      Gh(H)          -1.612764523631    -0.438132178793     1.104673070297     1.007825032230
      Gh(H)          -2.480570323631     0.580515821207    -0.077970029703     1.007825032230
         O            1.747995476369    -1.143180778793     0.667565470297    15.994914619570
         H            1.226350176369    -1.808629678793     1.114729670297     1.007825032230
         H            1.150314476369    -0.495953078793     0.288828670297     1.007825032230

  Running in c1 symmetry.

  Rotational constants: A =      0.51450  B =      0.13718  C =      0.11059 [cm^-1]
  Rotational constants: A =  15424.42999  B =   4112.51750  C =   3315.34338 [MHz]
  Nuclear repulsion =    9.181428628503419

  Charge       = 0
  Multiplicity = 1
  Electrons    = 10
  Nalpha       = 5
  Nbeta        = 5

  ==> Algorithm <==

  SCF Algorithm Type is DF.
  DIIS enabled.
  MOM disabled.
  Fractional occupation disabled.
  Guess Type is SAD.
  Energy threshold   = 1.00e-08
  Density threshold  = 1.00e-08
  Integral threshold = 0.00e+00

  ==> Primary Basis <==

  Basis Set: AUG-CC-PVTZ
    Blend: AUG-CC-PVTZ
    Number of shells: 89
    Number of basis function: 257
    Number of Cartesian functions: 294
    Spherical Harmonics?: true
    Max angular momentum: 3

   => Loading Basis Set <=

    Name: (AUG-CC-PVTZ AUX)
    Role: JKFIT
    Keyword: DF_BASIS_SCF
    atoms 1        entry CL         line   816 file /home/bdw2292/miniconda3/envs/amoebamdpoltype/share/psi4/basis/aug-cc-pvtz-jkfit.gbs 
    atoms 2        entry C          line   162 file /home/bdw2292/miniconda3/envs/amoebamdpoltype/share/psi4/basis/aug-cc-pvtz-jkfit.gbs 
    atoms 3-5, 7-8 entry H          line    70 file /home/bdw2292/miniconda3/envs/amoebamdpoltype/share/psi4/basis/aug-cc-pvtz-jkfit.gbs 
    atoms 6        entry O          line   286 file /home/bdw2292/miniconda3/envs/amoebamdpoltype/share/psi4/basis/aug-cc-pvtz-jkfit.gbs 

  ==> Pre-Iterations <==

   -------------------------------------------------------
    Irrep   Nso     Nmo     Nalpha   Nbeta   Ndocc  Nsocc
   -------------------------------------------------------
     A        257     257       0       0       0       0
   -------------------------------------------------------
    Total     257     257       5       5       5       0
   -------------------------------------------------------

  ==> Integral Setup <==

  DFHelper Memory: AOs need 0.301 GiB; user supplied 10.477 GiB. Using in-core AOs.

  ==> MemDFJK: Density-Fitted J/K Matrices <==

    J tasked:                   Yes
    K tasked:                   Yes
    wK tasked:                   No
    OpenMP threads:               4
    Memory [MiB]:             10728
    Algorithm:                 Core
    Schwarz Cutoff:           1E-12
    Mask sparsity (%):       1.5806
    Fitting Condition:        1E-10

   => Auxiliary Basis Set <=

  Basis Set: (AUG-CC-PVTZ AUX)
    Blend: AUG-CC-PVTZ-JKFIT
    Number of shells: 172
    Number of basis function: 584
    Number of Cartesian functions: 717
    Spherical Harmonics?: true
    Max angular momentum: 4

  Minimum eigenvalue in the overlap matrix is 6.2409737361E-05.
  Using Symmetric Orthogonalization.

  SCF Guess: Superposition of Atomic Densities via on-the-fly atomic UHF.

  ==> Iterations <==

                           Total Energy        Delta E     RMS |[F,P]|

   @DF-RHF iter SAD:   -75.47376338683848   -7.54738e+01   0.00000e+00 
   @DF-RHF iter   1:   -75.97661610056741   -5.02853e-01   1.82367e-03 DIIS
   @DF-RHF iter   2:   -76.02904041259045   -5.24243e-02   1.23632e-03 DIIS
   @DF-RHF iter   3:   -76.06008776918392   -3.10474e-02   8.39667e-05 DIIS
   @DF-RHF iter   4:   -76.06047786438147   -3.90095e-04   2.00674e-05 DIIS
   @DF-RHF iter   5:   -76.06050190856963   -2.40442e-05   4.51906e-06 DIIS
   @DF-RHF iter   6:   -76.06050387270112   -1.96413e-06   1.00654e-06 DIIS
   @DF-RHF iter   7:   -76.06050398118799   -1.08487e-07   1.90402e-07 DIIS
   @DF-RHF iter   8:   -76.06050398463263   -3.44464e-09   3.15855e-08 DIIS
   @DF-RHF iter   9:   -76.06050398470751   -7.48770e-11   7.84677e-09 DIIS
  Energy and wave function converged.


  ==> Post-Iterations <==

    Orbital Energies [Eh]
    ---------------------

    Doubly Occupied:                                                      

       1A    -20.565514     2A     -1.350607     3A     -0.724728  
       4A     -0.577393     5A     -0.509161  

    Virtual:                                                              

       6A      0.017704     7A      0.037722     8A      0.043410  
       9A      0.047768    10A      0.062270    11A      0.082987  
      12A      0.093967    13A      0.107437    14A      0.111635  
      15A      0.119014    16A      0.126095    17A      0.141519  
      18A      0.171597    19A      0.180542    20A      0.187774  
      21A      0.203128    22A      0.214342    23A      0.227432  
      24A      0.252984    25A      0.266537    26A      0.275139  
      27A      0.284955    28A      0.288242    29A      0.296049  
      30A      0.300252    31A      0.306167    32A      0.313737  
      33A      0.327987    34A      0.345882    35A      0.354224  
      36A      0.380961    37A      0.387681    38A      0.391889  
      39A      0.416906    40A      0.431514    41A      0.441906  
      42A      0.457482    43A      0.466374    44A      0.471206  
      45A      0.490972    46A      0.516128    47A      0.523428  
      48A      0.547224    49A      0.567515    50A      0.572339  
      51A      0.586808    52A      0.602077    53A      0.624442  
      54A      0.641693    55A      0.654046    56A      0.660019  
      57A      0.662591    58A      0.676075    59A      0.719484  
      60A      0.734200    61A      0.747977    62A      0.753306  
      63A      0.760862    64A      0.784943    65A      0.872738  
      66A      0.904588    67A      0.919446    68A      0.921591  
      69A      0.945650    70A      0.958008    71A      0.960116  
      72A      0.962884    73A      0.992314    74A      1.007476  
      75A      1.028051    76A      1.033657    77A      1.045048  
      78A      1.054999    79A      1.067752    80A      1.075877  
      81A      1.079557    82A      1.101227    83A      1.106980  
      84A      1.126850    85A      1.148878    86A      1.153927  
      87A      1.174524    88A      1.174811    89A      1.191654  
      90A      1.212467    91A      1.225331    92A      1.246452  
      93A      1.265175    94A      1.279245    95A      1.300542  
      96A      1.315883    97A      1.322925    98A      1.344631  
      99A      1.362865   100A      1.374789   101A      1.383527  
     102A      1.399075   103A      1.412390   104A      1.430481  
     105A      1.443670   106A      1.486948   107A      1.508926  
     108A      1.540049   109A      1.551628   110A      1.573273  
     111A      1.576246   112A      1.629180   113A      1.644574  
     114A      1.661153   115A      1.681629   116A      1.701283  
     117A      1.733446   118A      1.792543   119A      1.825644  
     120A      1.850694   121A      1.879201   122A      1.904444  
     123A      1.926931   124A      1.943798   125A      1.978417  
     126A      2.007315   127A      2.017438   128A      2.046658  
     129A      2.055262   130A      2.074868   131A      2.105879  
     132A      2.114931   133A      2.133155   134A      2.161202  
     135A      2.195070   136A      2.243510   137A      2.296127  
     138A      2.335691   139A      2.375909   140A      2.438183  
     141A      2.477386   142A      2.483944   143A      2.515861  
     144A      2.522889   145A      2.536240   146A      2.566417  
     147A      2.587368   148A      2.636065   149A      2.687127  
     150A      2.735422   151A      2.756641   152A      2.773625  
     153A      2.785057   154A      2.864376   155A      2.925692  
     156A      2.946209   157A      2.985048   158A      3.152036  
     159A      3.727624   160A      3.768317   161A      3.903491  
     162A      3.921795   163A      3.967816   164A      3.975808  
     165A      4.009514   166A      4.018315   167A      4.048587  
     168A      4.057686   169A      4.100165   170A      4.115425  
     171A      4.144723   172A      4.156948   173A      4.177430  
     174A      4.215866   175A      4.226647   176A      4.256290  
     177A      4.295985   178A      4.318162   179A      4.331535  
     180A      4.374479   181A      4.402375   182A      4.412421  
     183A      4.429730   184A      4.431400   185A      4.460012  
     186A      4.472432   187A      4.492053   188A      4.520096  
     189A      4.526764   190A      4.575583   191A      4.586319  
     192A      4.630368   193A      4.654328   194A      4.733120  
     195A      4.759263   196A      4.782603   197A      4.804597  
     198A      4.856979   199A      4.870009   200A      4.884460  
     201A      4.906457   202A      4.933378   203A      4.971493  
     204A      5.077009   205A      5.139325   206A      5.178965  
     207A      5.190910   208A      5.208843   209A      5.256740  
     210A      5.303043   211A      5.320980   212A      5.337435  
     213A      5.403223   214A      5.432990   215A      5.471022  
     216A      5.474887   217A      5.510528   218A      5.575610  
     219A      5.693399   220A      5.700103   221A      5.742029  
     222A      5.969412   223A      6.082609   224A      6.132274  
     225A      6.161569   226A      6.207180   227A      6.216236  
     228A      6.246875   229A      6.577042   230A      6.654904  
     231A      6.679840   232A      6.792912   233A      6.938630  
     234A      7.127545   235A      7.176504   236A      7.288800  
     237A      7.341412   238A      7.366292   239A      7.475621  
     240A      7.492568   241A      7.735143   242A      7.749943  
     243A      7.785662   244A      7.879768   245A      7.989716  
     246A      8.119505   247A      8.128135   248A      8.172452  
     249A      8.881760   250A     10.255278   251A     16.440088  
     252A     17.090284   253A     28.048037   254A     28.634847  
     255A     29.064549   256A     51.272902   257A    161.027735  

    Final Occupation by Irrep:
              A 
    DOCC [     5 ]

  @DF-RHF Final Energy:   -76.06050398470751

   => Energetics <=

    Nuclear Repulsion Energy =              9.1814286285034186
    One-Electron Energy =                -123.0290564353275045
    Two-Electron Energy =                  37.7871238221165697
    Total Energy =                        -76.0605039847075091

Computation Completed


Properties will be evaluated at  -0.000000,   0.000000,   0.000000 [a0]

Properties computed using the SCF density matrix

  Nuclear Dipole Moment: [e a0]
     X:    30.9171      Y:   -21.6374      Z:    12.7445

  Electronic Dipole Moment: [e a0]
     X:   -31.6705      Y:    21.6252      Z:   -12.6983

  Dipole Moment: [e a0]
     X:    -0.7534      Y:    -0.0123      Z:     0.0461     Total:     0.7549

  Dipole Moment: [D]
     X:    -1.9149      Y:    -0.0312      Z:     0.1173     Total:     1.9187


*** tstop() called on node37.bme.utexas.edu at Tue Feb 22 17:44:22 2022
Module time:
	user time   =      21.13 seconds =       0.35 minutes
	system time =       1.30 seconds =       0.02 minutes
	total time  =          8 seconds =       0.13 minutes
Total time:
	user time   =      39.90 seconds =       0.67 minutes
	system time =       2.58 seconds =       0.04 minutes
	total time  =         16 seconds =       0.27 minutes

*** tstart() called on node37.bme.utexas.edu
*** at Tue Feb 22 17:44:22 2022


  //>>>>>>>>>>>>>>>>>>>>>>>>>>>>>>>>>>>//
  //               DFMP2               //
  //<<<<<<<<<<<<<<<<<<<<<<<<<<<<<<<<<<<//

   => Loading Basis Set <=

    Name: (AUG-CC-PVTZ AUX)
    Role: RIFIT
    Keyword: DF_BASIS_MP2
    atoms 1        entry CL         line   742 file /home/bdw2292/miniconda3/envs/amoebamdpoltype/share/psi4/basis/aug-cc-pvtz-ri.gbs 
    atoms 2        entry C          line   148 file /home/bdw2292/miniconda3/envs/amoebamdpoltype/share/psi4/basis/aug-cc-pvtz-ri.gbs 
    atoms 3-5, 7-8 entry H          line    30 file /home/bdw2292/miniconda3/envs/amoebamdpoltype/share/psi4/basis/aug-cc-pvtz-ri.gbs 
    atoms 6        entry O          line   264 file /home/bdw2292/miniconda3/envs/amoebamdpoltype/share/psi4/basis/aug-cc-pvtz-ri.gbs 

	 --------------------------------------------------------
	                          DF-MP2                         
	      2nd-Order Density-Fitted Moller-Plesset Theory     
	              RMP2 Wavefunction,   4 Threads             
	                                                         
	        Rob Parrish, Justin Turney, Andy Simmonett,      
	           Ed Hohenstein, and C. David Sherrill          
	 --------------------------------------------------------

   => Auxiliary Basis Set <=

  Basis Set: (AUG-CC-PVTZ AUX)
    Blend: AUG-CC-PVTZ-RI
    Number of shells: 163
    Number of basis function: 589
    Number of Cartesian functions: 738
    Spherical Harmonics?: true
    Max angular momentum: 4

	 --------------------------------------------------------
	                 NBF =   257, NAUX =   589
	 --------------------------------------------------------
	   CLASS    FOCC     OCC    AOCC    AVIR     VIR    FVIR
	   PAIRS       1       5       4     252     252       0
	 --------------------------------------------------------

	-----------------------------------------------------------
	 ==================> DF-MP2 Energies <==================== 
	-----------------------------------------------------------
	 Reference Energy          =     -76.0605039847075091 [Eh]
	 Singles Energy            =      -0.0000000000000000 [Eh]
	 Same-Spin Energy          =      -0.0651278839947774 [Eh]
	 Opposite-Spin Energy      =      -0.2033174106367589 [Eh]
	 Correlation Energy        =      -0.2684452946315363 [Eh]
	 Total Energy              =     -76.3289492793390423 [Eh]
	-----------------------------------------------------------
	 ================> DF-SCS-MP2 Energies <================== 
	-----------------------------------------------------------
	 SCS Same-Spin Scale       =       0.3333333333333333 [-]
	 SCS Opposite-Spin Scale   =       1.2000000000000000 [-]
	 SCS Same-Spin Energy      =      -0.0217092946649258 [Eh]
	 SCS Opposite-Spin Energy  =      -0.2439808927641107 [Eh]
	 SCS Correlation Energy    =      -0.2656901874290365 [Eh]
	 SCS Total Energy          =     -76.3261941721365389 [Eh]
	-----------------------------------------------------------


*** tstop() called on node37.bme.utexas.edu at Tue Feb 22 17:44:24 2022
Module time:
	user time   =       7.51 seconds =       0.13 minutes
	system time =       0.42 seconds =       0.01 minutes
	total time  =          2 seconds =       0.03 minutes
Total time:
	user time   =      47.41 seconds =       0.79 minutes
	system time =       3.00 seconds =       0.05 minutes
	total time  =         18 seconds =       0.30 minutes

  //>>>>>>>>>>>>>>>>>>>>>>>>>>>>>>>>>>>>//
  // CBS Computation: MP2 / AUG-CC-PVQZ //
  //<<<<<<<<<<<<<<<<<<<<<<<<<<<<<<<<<<<<//

    SCF Algorithm Type (re)set to DF.

*** tstart() called on node37.bme.utexas.edu
*** at Tue Feb 22 17:44:25 2022

   => Loading Basis Set <=

    Name: AUG-CC-PVQZ
    Role: ORBITAL
    Keyword: BASIS
    atoms 1        entry CL         line  1218 file /home/bdw2292/miniconda3/envs/amoebamdpoltype/share/psi4/basis/aug-cc-pvqz.gbs 
    atoms 2        entry C          line   299 file /home/bdw2292/miniconda3/envs/amoebamdpoltype/share/psi4/basis/aug-cc-pvqz.gbs 
    atoms 3-5, 7-8 entry H          line    36 file /home/bdw2292/miniconda3/envs/amoebamdpoltype/share/psi4/basis/aug-cc-pvqz.gbs 
    atoms 6        entry O          line   419 file /home/bdw2292/miniconda3/envs/amoebamdpoltype/share/psi4/basis/aug-cc-pvqz.gbs 


         ---------------------------------------------------------
                                   SCF
               by Justin Turney, Rob Parrish, Andy Simmonett
                          and Daniel G. A. Smith
                              RHF Reference
                        4 Threads,  14305 MiB Core
         ---------------------------------------------------------

  ==> Geometry <==

    Molecular point group: c1
    Full point group: C1

    Geometry (in Angstrom), charge = 0, multiplicity = 1:

       Center              X                  Y                   Z               Mass       
    ------------   -----------------  -----------------  -----------------  -----------------
      Gh(CL)         -0.127072823631     0.657722821207    -0.379640929703    34.968852682000
      Gh(C)          -1.663410923631    -0.127417378793     0.060903870297    12.000000000000
      Gh(H)          -1.810248023631    -0.998790978793    -0.577649529703     1.007825032230
      Gh(H)          -1.612764523631    -0.438132178793     1.104673070297     1.007825032230
      Gh(H)          -2.480570323631     0.580515821207    -0.077970029703     1.007825032230
         O            1.747995476369    -1.143180778793     0.667565470297    15.994914619570
         H            1.226350176369    -1.808629678793     1.114729670297     1.007825032230
         H            1.150314476369    -0.495953078793     0.288828670297     1.007825032230

  Running in c1 symmetry.

  Rotational constants: A =      0.51450  B =      0.13718  C =      0.11059 [cm^-1]
  Rotational constants: A =  15424.42999  B =   4112.51750  C =   3315.34338 [MHz]
  Nuclear repulsion =    9.181428628503419

  Charge       = 0
  Multiplicity = 1
  Electrons    = 10
  Nalpha       = 5
  Nbeta        = 5

  ==> Algorithm <==

  SCF Algorithm Type is DF.
  DIIS enabled.
  MOM disabled.
  Fractional occupation disabled.
  Guess Type is SAD.
  Energy threshold   = 1.00e-08
  Density threshold  = 1.00e-08
  Integral threshold = 0.00e+00

  ==> Primary Basis <==

  Basis Set: AUG-CC-PVQZ
    Blend: AUG-CC-PVQZ
    Number of shells: 132
    Number of basis function: 474
    Number of Cartesian functions: 594
    Spherical Harmonics?: true
    Max angular momentum: 4

   => Loading Basis Set <=

    Name: (AUG-CC-PVQZ AUX)
    Role: JKFIT
    Keyword: DF_BASIS_SCF
    atoms 1        entry CL         line   904 file /home/bdw2292/miniconda3/envs/amoebamdpoltype/share/psi4/basis/aug-cc-pvqz-jkfit.gbs 
    atoms 2        entry C          line   178 file /home/bdw2292/miniconda3/envs/amoebamdpoltype/share/psi4/basis/aug-cc-pvqz-jkfit.gbs 
    atoms 3-5, 7-8 entry H          line    70 file /home/bdw2292/miniconda3/envs/amoebamdpoltype/share/psi4/basis/aug-cc-pvqz-jkfit.gbs 
    atoms 6        entry O          line   318 file /home/bdw2292/miniconda3/envs/amoebamdpoltype/share/psi4/basis/aug-cc-pvqz-jkfit.gbs 

  ==> Pre-Iterations <==

   -------------------------------------------------------
    Irrep   Nso     Nmo     Nalpha   Nbeta   Ndocc  Nsocc
   -------------------------------------------------------
     A        474     474       0       0       0       0
   -------------------------------------------------------
    Total     474     474       5       5       5       0
   -------------------------------------------------------

  ==> Integral Setup <==

  DFHelper Memory: AOs need 1.431 GiB; user supplied 10.477 GiB. Using in-core AOs.

  ==> MemDFJK: Density-Fitted J/K Matrices <==

    J tasked:                   Yes
    K tasked:                   Yes
    wK tasked:                   No
    OpenMP threads:               4
    Memory [MiB]:             10728
    Algorithm:                 Core
    Schwarz Cutoff:           1E-12
    Mask sparsity (%):       3.9354
    Fitting Condition:        1E-10

   => Auxiliary Basis Set <=

  Basis Set: (AUG-CC-PVQZ AUX)
    Blend: AUG-CC-PVQZ-JKFIT
    Number of shells: 204
    Number of basis function: 848
    Number of Cartesian functions: 1148
    Spherical Harmonics?: true
    Max angular momentum: 5

  Minimum eigenvalue in the overlap matrix is 1.3239967297E-05.
  Using Symmetric Orthogonalization.

  SCF Guess: Superposition of Atomic Densities via on-the-fly atomic UHF.

  ==> Iterations <==

                           Total Energy        Delta E     RMS |[F,P]|

   @DF-RHF iter SAD:   -75.47891909608191   -7.54789e+01   0.00000e+00 
   @DF-RHF iter   1:   -75.98166121898079   -5.02742e-01   9.90799e-04 DIIS
   @DF-RHF iter   2:   -76.03418056151483   -5.25193e-02   6.73224e-04 DIIS
   @DF-RHF iter   3:   -76.06542339957454   -3.12428e-02   4.58526e-05 DIIS
   @DF-RHF iter   4:   -76.06581543598479   -3.92036e-04   1.12059e-05 DIIS
   @DF-RHF iter   5:   -76.06584033004491   -2.48941e-05   2.51487e-06 DIIS
   @DF-RHF iter   6:   -76.06584237392683   -2.04388e-06   5.74613e-07 DIIS
   @DF-RHF iter   7:   -76.06584249329612   -1.19369e-07   1.12105e-07 DIIS
   @DF-RHF iter   8:   -76.06584249733619   -4.04007e-09   1.79664e-08 DIIS
   @DF-RHF iter   9:   -76.06584249742036   -8.41709e-11   4.34883e-09 DIIS
  Energy and wave function converged.


  ==> Post-Iterations <==

    Orbital Energies [Eh]
    ---------------------

    Doubly Occupied:                                                      

       1A    -20.563091     2A     -1.349916     3A     -0.724730  
       4A     -0.577475     5A     -0.509305  

    Virtual:                                                              

       6A      0.015939     7A      0.034244     8A      0.039291  
       9A      0.042902    10A      0.056913    11A      0.073636  
      12A      0.082734    13A      0.092630    14A      0.094610  
      15A      0.102709    16A      0.110038    17A      0.122641  
      18A      0.144219    19A      0.152887    20A      0.163664  
      21A      0.172347    22A      0.178849    23A      0.190291  
      24A      0.216481    25A      0.223970    26A      0.228885  
      27A      0.233603    28A      0.243123    29A      0.246886  
      30A      0.253196    31A      0.257974    32A      0.265923  
      33A      0.272980    34A      0.279102    35A      0.285833  
      36A      0.303490    37A      0.307439    38A      0.315922  
      39A      0.332072    40A      0.347691    41A      0.357022  
      42A      0.370852    43A      0.378440    44A      0.384816  
      45A      0.392380    46A      0.399443    47A      0.416544  
      48A      0.428971    49A      0.447433    50A      0.447926  
      51A      0.466440    52A      0.467575    53A      0.480060  
      54A      0.492332    55A      0.506407    56A      0.520642  
      57A      0.538658    58A      0.542957    59A      0.553307  
      60A      0.573089    61A      0.575376    62A      0.588251  
      63A      0.607465    64A      0.625304    65A      0.635447  
      66A      0.658554    67A      0.673700    68A      0.682543  
      69A      0.691086    70A      0.703758    71A      0.712698  
      72A      0.717493    73A      0.725347    74A      0.732349  
      75A      0.746682    76A      0.772595    77A      0.780578  
      78A      0.798057    79A      0.800964    80A      0.804688  
      81A      0.812207    82A      0.821596    83A      0.834122  
      84A      0.859212    85A      0.866468    86A      0.877100  
      87A      0.890028    88A      0.894198    89A      0.907503  
      90A      0.915153    91A      0.920104    92A      0.928289  
      93A      0.946434    94A      0.959498    95A      0.976838  
      96A      0.981164    97A      1.007675    98A      1.009922  
      99A      1.018817   100A      1.033233   101A      1.039907  
     102A      1.045929   103A      1.057272   104A      1.060533  
     105A      1.084783   106A      1.091055   107A      1.114846  
     108A      1.125579   109A      1.129646   110A      1.159115  
     111A      1.167738   112A      1.182890   113A      1.199139  
     114A      1.207209   115A      1.227530   116A      1.248943  
     117A      1.278321   118A      1.306817   119A      1.311620  
     120A      1.318870   121A      1.348778   122A      1.392383  
     123A      1.409377   124A      1.432165   125A      1.459278  
     126A      1.462489   127A      1.490970   128A      1.503628  
     129A      1.512810   130A      1.530387   131A      1.540850  
     132A      1.583441   133A      1.585492   134A      1.594975  
     135A      1.609369   136A      1.610117   137A      1.621348  
     138A      1.643025   139A      1.657648   140A      1.672671  
     141A      1.677849   142A      1.699891   143A      1.715227  
     144A      1.729539   145A      1.754510   146A      1.763927  
     147A      1.792162   148A      1.793337   149A      1.807961  
     150A      1.827817   151A      1.833480   152A      1.852149  
     153A      1.859202   154A      1.887372   155A      1.897410  
     156A      1.903845   157A      1.916765   158A      1.925563  
     159A      1.933801   160A      1.951267   161A      1.960100  
     162A      1.972096   163A      1.975908   164A      1.990400  
     165A      2.000753   166A      2.023417   167A      2.034130  
     168A      2.043864   169A      2.059850   170A      2.081484  
     171A      2.092038   172A      2.104639   173A      2.109723  
     174A      2.130273   175A      2.137911   176A      2.166734  
     177A      2.176622   178A      2.191767   179A      2.201379  
     180A      2.209225   181A      2.214468   182A      2.253271  
     183A      2.259614   184A      2.267759   185A      2.280689  
     186A      2.293262   187A      2.319521   188A      2.338546  
     189A      2.367588   190A      2.383672   191A      2.404469  
     192A      2.410489   193A      2.426143   194A      2.440311  
     195A      2.485224   196A      2.500852   197A      2.520871  
     198A      2.535316   199A      2.541420   200A      2.571260  
     201A      2.595206   202A      2.605748   203A      2.628813  
     204A      2.666976   205A      2.684081   206A      2.694014  
     207A      2.716559   208A      2.752745   209A      2.762678  
     210A      2.796783   211A      2.812938   212A      2.826915  
     213A      2.846815   214A      2.863793   215A      2.873686  
     216A      2.884911   217A      2.934231   218A      2.943659  
     219A      2.974254   220A      2.991438   221A      2.998260  
     222A      3.010996   223A      3.029266   224A      3.045202  
     225A      3.060950   226A      3.082222   227A      3.129407  
     228A      3.177222   229A      3.190219   230A      3.214084  
     231A      3.234912   232A      3.244976   233A      3.266855  
     234A      3.288542   235A      3.304291   236A      3.315371  
     237A      3.338766   238A      3.377461   239A      3.386358  
     240A      3.410366   241A      3.419208   242A      3.437268  
     243A      3.460216   244A      3.468581   245A      3.488195  
     246A      3.496588   247A      3.553661   248A      3.567201  
     249A      3.619169   250A      3.662607   251A      3.676005  
     252A      3.710940   253A      3.733498   254A      3.751786  
     255A      3.768261   256A      3.790156   257A      3.807951  
     258A      3.822166   259A      3.851091   260A      3.867316  
     261A      3.904161   262A      3.939389   263A      3.994909  
     264A      4.057033   265A      4.065775   266A      4.093067  
     267A      4.126186   268A      4.135461   269A      4.143915  
     270A      4.206177   271A      4.213320   272A      4.221847  
     273A      4.252310   274A      4.285031   275A      4.310523  
     276A      4.358034   277A      4.361173   278A      4.381231  
     279A      4.391370   280A      4.450953   281A      4.472251  
     282A      4.499093   283A      4.552877   284A      4.619697  
     285A      4.719289   286A      4.760620   287A      4.785013  
     288A      4.854614   289A      4.882635   290A      4.916716  
     291A      4.931934   292A      4.940610   293A      4.971797  
     294A      5.001385   295A      5.041765   296A      5.091510  
     297A      5.153547   298A      5.192246   299A      5.226612  
     300A      5.279168   301A      5.359827   302A      5.389247  
     303A      5.437254   304A      5.447381   305A      5.471188  
     306A      5.508224   307A      5.533075   308A      5.550520  
     309A      5.632809   310A      5.678549   311A      5.733778  
     312A      5.748334   313A      5.790388   314A      5.830536  
     315A      5.863437   316A      5.891810   317A      6.062254  
     318A      6.078210   319A      6.151214   320A      6.182175  
     321A      6.337543   322A      6.381428   323A      6.435593  
     324A      6.439501   325A      6.533391   326A      6.550718  
     327A      6.703549   328A      6.741600   329A      6.778548  
     330A      6.802784   331A      6.821185   332A      6.883384  
     333A      6.914925   334A      6.920526   335A      6.953559  
     336A      6.969731   337A      7.017232   338A      7.027578  
     339A      7.047165   340A      7.071721   341A      7.131965  
     342A      7.207743   343A      7.229220   344A      7.304560  
     345A      7.343823   346A      7.349639   347A      7.368961  
     348A      7.433778   349A      7.639206   350A      7.657913  
     351A      7.672401   352A      7.700658   353A      7.760905  
     354A      7.813304   355A      7.835192   356A      7.847571  
     357A      7.876556   358A      7.888598   359A      7.893747  
     360A      7.908450   361A      7.927212   362A      7.969704  
     363A      7.989728   364A      8.012046   365A      8.035590  
     366A      8.052205   367A      8.083206   368A      8.172343  
     369A      8.219821   370A      8.232138   371A      8.251846  
     372A      8.308727   373A      8.326335   374A      8.435584  
     375A      8.496139   376A      8.521849   377A      8.544480  
     378A      8.570759   379A      8.676972   380A      8.697585  
     381A      8.814025   382A      8.827940   383A      8.843098  
     384A      8.847975   385A      8.874691   386A      8.895572  
     387A      8.920965   388A      8.948643   389A      8.994926  
     390A      9.059414   391A      9.162077   392A      9.220788  
     393A      9.310218   394A      9.320923   395A      9.383788  
     396A      9.481316   397A      9.529445   398A      9.552126  
     399A      9.568125   400A      9.618991   401A      9.691882  
     402A      9.704670   403A      9.712736   404A      9.774747  
     405A      9.779583   406A      9.830082   407A      9.842326  
     408A      9.902006   409A      9.924771   410A     10.034736  
     411A     10.055784   412A     10.069940   413A     10.142922  
     414A     10.179581   415A     10.291031   416A     10.317858  
     417A     10.496152   418A     10.534700   419A     10.607721  
     420A     10.650702   421A     10.671711   422A     10.748682  
     423A     10.752073   424A     10.764139   425A     10.799259  
     426A     10.915279   427A     10.924694   428A     11.066057  
     429A     11.151612   430A     11.180615   431A     11.210608  
     432A     11.322613   433A     11.356241   434A     11.404756  
     435A     11.450151   436A     11.492495   437A     11.599005  
     438A     11.765647   439A     11.889482   440A     11.970459  
     441A     12.019443   442A     12.098705   443A     12.129197  
     444A     12.184834   445A     12.295725   446A     12.320501  
     447A     12.385579   448A     12.683470   449A     12.899634  
     450A     12.918191   451A     12.961912   452A     13.108068  
     453A     13.199587   454A     13.329321   455A     13.606293  
     456A     14.051697   457A     14.334860   458A     14.553666  
     459A     14.819678   460A     14.889647   461A     14.984428  
     462A     15.357988   463A     16.485068   464A     17.094081  
     465A     17.284137   466A     17.313521   467A     17.380743  
     468A     31.101615   469A     31.205103   470A     31.354062  
     471A     44.872400   472A     45.951755   473A     71.693166  
     474A    160.597248  

    Final Occupation by Irrep:
              A 
    DOCC [     5 ]

  @DF-RHF Final Energy:   -76.06584249742036

   => Energetics <=

    Nuclear Repulsion Energy =              9.1814286285034186
    One-Electron Energy =                -123.0455045272571795
    Two-Electron Energy =                  37.7982334013333912
    Total Energy =                        -76.0658424974203626

Computation Completed


Properties will be evaluated at  -0.000000,   0.000000,   0.000000 [a0]

Properties computed using the SCF density matrix

  Nuclear Dipole Moment: [e a0]
     X:    30.9171      Y:   -21.6374      Z:    12.7445

  Electronic Dipole Moment: [e a0]
     X:   -31.6697      Y:    21.6249      Z:   -12.6983

  Dipole Moment: [e a0]
     X:    -0.7526      Y:    -0.0125      Z:     0.0462     Total:     0.7541

  Dipole Moment: [D]
     X:    -1.9129      Y:    -0.0318      Z:     0.1174     Total:     1.9168


*** tstop() called on node37.bme.utexas.edu at Tue Feb 22 17:44:48 2022
Module time:
	user time   =      67.19 seconds =       1.12 minutes
	system time =       3.03 seconds =       0.05 minutes
	total time  =         23 seconds =       0.38 minutes
Total time:
	user time   =     114.66 seconds =       1.91 minutes
	system time =       6.04 seconds =       0.10 minutes
	total time  =         42 seconds =       0.70 minutes

*** tstart() called on node37.bme.utexas.edu
*** at Tue Feb 22 17:44:48 2022


  //>>>>>>>>>>>>>>>>>>>>>>>>>>>>>>>>>>>//
  //               DFMP2               //
  //<<<<<<<<<<<<<<<<<<<<<<<<<<<<<<<<<<<//

   => Loading Basis Set <=

    Name: (AUG-CC-PVQZ AUX)
    Role: RIFIT
    Keyword: DF_BASIS_MP2
    atoms 1        entry CL         line   914 file /home/bdw2292/miniconda3/envs/amoebamdpoltype/share/psi4/basis/aug-cc-pvqz-ri.gbs 
    atoms 2        entry C          line   184 file /home/bdw2292/miniconda3/envs/amoebamdpoltype/share/psi4/basis/aug-cc-pvqz-ri.gbs 
    atoms 3-5, 7-8 entry H          line    30 file /home/bdw2292/miniconda3/envs/amoebamdpoltype/share/psi4/basis/aug-cc-pvqz-ri.gbs 
    atoms 6        entry O          line   332 file /home/bdw2292/miniconda3/envs/amoebamdpoltype/share/psi4/basis/aug-cc-pvqz-ri.gbs 

	 --------------------------------------------------------
	                          DF-MP2                         
	      2nd-Order Density-Fitted Moller-Plesset Theory     
	              RMP2 Wavefunction,   4 Threads             
	                                                         
	        Rob Parrish, Justin Turney, Andy Simmonett,      
	           Ed Hohenstein, and C. David Sherrill          
	 --------------------------------------------------------

   => Auxiliary Basis Set <=

  Basis Set: (AUG-CC-PVQZ AUX)
    Blend: AUG-CC-PVQZ-RI
    Number of shells: 216
    Number of basis function: 930
    Number of Cartesian functions: 1267
    Spherical Harmonics?: true
    Max angular momentum: 5

	 --------------------------------------------------------
	                 NBF =   474, NAUX =   930
	 --------------------------------------------------------
	   CLASS    FOCC     OCC    AOCC    AVIR     VIR    FVIR
	   PAIRS       1       5       4     469     469       0
	 --------------------------------------------------------

	-----------------------------------------------------------
	 ==================> DF-MP2 Energies <==================== 
	-----------------------------------------------------------
	 Reference Energy          =     -76.0658424974203626 [Eh]
	 Singles Energy            =      -0.0000000000000000 [Eh]
	 Same-Spin Energy          =      -0.0671797004727275 [Eh]
	 Opposite-Spin Energy      =      -0.2187024950698891 [Eh]
	 Correlation Energy        =      -0.2858821955426166 [Eh]
	 Total Energy              =     -76.3517246929629749 [Eh]
	-----------------------------------------------------------
	 ================> DF-SCS-MP2 Energies <================== 
	-----------------------------------------------------------
	 SCS Same-Spin Scale       =       0.3333333333333333 [-]
	 SCS Opposite-Spin Scale   =       1.2000000000000000 [-]
	 SCS Same-Spin Energy      =      -0.0223932334909092 [Eh]
	 SCS Opposite-Spin Energy  =      -0.2624429940838669 [Eh]
	 SCS Correlation Energy    =      -0.2848362275747761 [Eh]
	 SCS Total Energy          =     -76.3506787249951344 [Eh]
	-----------------------------------------------------------


*** tstop() called on node37.bme.utexas.edu at Tue Feb 22 17:44:57 2022
Module time:
	user time   =      26.94 seconds =       0.45 minutes
	system time =       1.96 seconds =       0.03 minutes
	total time  =          9 seconds =       0.15 minutes
Total time:
	user time   =     141.60 seconds =       2.36 minutes
	system time =       8.00 seconds =       0.13 minutes
	total time  =         51 seconds =       0.85 minutes

  //>>>>>>>>>>>>>>>>>>>>>>>>>>>>>>>>>>>//
  //  CBS Results: mp2/aug-cc-pV[TQ]Z  //
  //<<<<<<<<<<<<<<<<<<<<<<<<<<<<<<<<<<<//


   ==> HF <==

   HI-zeta (4) Energy:               -76.065842497420


   ==> Helgaker 2-point correlated extrapolation for method: MP2 <==

   LO-zeta (3) Energy:               -76.328949279339
   HI-zeta (4) Energy:               -76.351724692963
   Alpha (exponent) Value:             3.000000000000
   Extrapolated Energy:              -76.368344589391

   @Extrapolated MP2/(T,Q):          -76.368344589391



   ==> Helgaker 2-point correlated extrapolation for method: HF <==

   LO-zeta (3) Energy:               -76.060503984708
   HI-zeta (4) Energy:               -76.065842497420
   Alpha (exponent) Value:             3.000000000000
   Extrapolated Energy:              -76.069738168859

   @Extrapolated HF/(T,Q):           -76.069738168859


   ==> Components <==

  ---------------------------------------------------------------------------------------------------------
                          Method / Basis                      Rqd      Energy [Eh]   Variable
  ---------------------------------------------------------------------------------------------------------
                              hf / aug-cc-pvtz                  *     -76.06050398   HF TOTAL ENERGY
                             mp2 / aug-cc-pvtz                  *     -76.32894928   MP2 TOTAL ENERGY
                              hf / aug-cc-pvqz                  *     -76.06584250   HF TOTAL ENERGY
                             mp2 / aug-cc-pvqz                  *     -76.35172469   MP2 TOTAL ENERGY
  ---------------------------------------------------------------------------------------------------------

   ==> Stages <==

  ---------------------------------------------------------------------------------------------------------
      Stage               Method / Basis                       Wt      Energy [Eh]   Scheme
  ---------------------------------------------------------------------------------------------------------
        scf                   hf / aug-cc-pvqz                  1     -76.06584250   xtpl_highest_1
       corl                  mp2 / aug-cc-pv[tq]z               1     -76.36834459   corl_xtpl_helgaker_2
       corl                   hf / aug-cc-pv[tq]z              -1     -76.06973817   corl_xtpl_helgaker_2
  ---------------------------------------------------------------------------------------------------------

   ==> CBS <==

  ---------------------------------------------------------------------------------------------------------
      Stage               Method / Basis                               Energy [Eh]   Scheme
  ---------------------------------------------------------------------------------------------------------
        scf                   hf / aug-cc-pvqz                        -76.06584250   xtpl_highest_1
       corl                  mp2 / aug-cc-pv[tq]z                      -0.29860642   corl_xtpl_helgaker_2
      total                  CBS                                      -76.36444892   
  ---------------------------------------------------------------------------------------------------------
   => Loading Basis Set <=

    Name: DEF2-SVP
    Role: ORBITAL
    Keyword: BASIS
    atoms 1        entry CL         line   356 file /home/bdw2292/miniconda3/envs/amoebamdpoltype/share/psi4/basis/def2-svp.gbs 
    atoms 2        entry C          line    90 file /home/bdw2292/miniconda3/envs/amoebamdpoltype/share/psi4/basis/def2-svp.gbs 
    atoms 3-5, 7-8 entry H          line    15 file /home/bdw2292/miniconda3/envs/amoebamdpoltype/share/psi4/basis/def2-svp.gbs 
    atoms 6        entry O          line   130 file /home/bdw2292/miniconda3/envs/amoebamdpoltype/share/psi4/basis/def2-svp.gbs 


       N-Body: Complex Energy (fragments = (2,), basis = (1, 2):   -76.36444891795215)

       N-Body: Computing complex (3/4) with fragments (1,) in the basis of fragments (1, 2).


  //>>>>>>>>>>>>>>>>>>>>>>>>>>>>>>>>>>>//
  //   CBS Setup: mp2/aug-cc-pV[TQ]Z   //
  //<<<<<<<<<<<<<<<<<<<<<<<<<<<<<<<<<<<//

    Naive listing of computations required.
             hf / aug-cc-pvqz              for  HF TOTAL ENERGY
            mp2 / aug-cc-pvtz              for  MP2 TOTAL ENERGY
            mp2 / aug-cc-pvqz              for  MP2 TOTAL ENERGY
             hf / aug-cc-pvtz              for  HF TOTAL ENERGY
             hf / aug-cc-pvqz              for  HF TOTAL ENERGY

    Enlightened listing of computations required.
            mp2 / aug-cc-pvtz              for  MP2 TOTAL ENERGY
            mp2 / aug-cc-pvqz              for  MP2 TOTAL ENERGY

    Full listing of computations to be obtained (required and bonus).
             hf / aug-cc-pvtz              for  HF TOTAL ENERGY
            mp2 / aug-cc-pvtz              for  MP2 TOTAL ENERGY
             hf / aug-cc-pvqz              for  HF TOTAL ENERGY
            mp2 / aug-cc-pvqz              for  MP2 TOTAL ENERGY

  //>>>>>>>>>>>>>>>>>>>>>>>>>>>>>>>>>>>>//
  // CBS Computation: MP2 / AUG-CC-PVTZ //
  //<<<<<<<<<<<<<<<<<<<<<<<<<<<<<<<<<<<<//

    SCF Algorithm Type (re)set to DF.

*** tstart() called on node37.bme.utexas.edu
*** at Tue Feb 22 17:44:59 2022

   => Loading Basis Set <=

    Name: AUG-CC-PVTZ
    Role: ORBITAL
    Keyword: BASIS
    atoms 1        entry CL         line   984 file /home/bdw2292/miniconda3/envs/amoebamdpoltype/share/psi4/basis/aug-cc-pvtz.gbs 
    atoms 2        entry C          line   235 file /home/bdw2292/miniconda3/envs/amoebamdpoltype/share/psi4/basis/aug-cc-pvtz.gbs 
    atoms 3-5, 7-8 entry H          line    36 file /home/bdw2292/miniconda3/envs/amoebamdpoltype/share/psi4/basis/aug-cc-pvtz.gbs 
    atoms 6        entry O          line   327 file /home/bdw2292/miniconda3/envs/amoebamdpoltype/share/psi4/basis/aug-cc-pvtz.gbs 


         ---------------------------------------------------------
                                   SCF
               by Justin Turney, Rob Parrish, Andy Simmonett
                          and Daniel G. A. Smith
                              RHF Reference
                        4 Threads,  14305 MiB Core
         ---------------------------------------------------------

  ==> Geometry <==

    Molecular point group: c1
    Full point group: C1

    Geometry (in Angstrom), charge = 0, multiplicity = 1:

       Center              X                  Y                   Z               Mass       
    ------------   -----------------  -----------------  -----------------  -----------------
         CL          -0.127072823631     0.657722821207    -0.379640929703    34.968852682000
         C           -1.663410923631    -0.127417378793     0.060903870297    12.000000000000
         H           -1.810248023631    -0.998790978793    -0.577649529703     1.007825032230
         H           -1.612764523631    -0.438132178793     1.104673070297     1.007825032230
         H           -2.480570323631     0.580515821207    -0.077970029703     1.007825032230
      Gh(O)           1.747995476369    -1.143180778793     0.667565470297    15.994914619570
      Gh(H)           1.226350176369    -1.808629678793     1.114729670297     1.007825032230
[...]
      28A      0.108622    29A      0.116876    30A      0.133541  
      31A      0.150478    32A      0.159196    33A      0.169808  
      34A      0.172474    35A      0.176318    36A      0.193732  
      37A      0.211985    38A      0.217697    39A      0.224160  
      40A      0.235828    41A      0.237440    42A      0.241802  
      43A      0.253062    44A      0.256936    45A      0.265492  
      46A      0.286385    47A      0.287529    48A      0.295287  
      49A      0.313057    50A      0.320170    51A      0.322302  
      52A      0.332220    53A      0.348930    54A      0.352082  
      55A      0.356623    56A      0.363185    57A      0.366483  
      58A      0.373206    59A      0.390980    60A      0.396706  
      61A      0.405238    62A      0.419823    63A      0.433786  
      64A      0.444570    65A      0.460042    66A      0.491968  
      67A      0.509178    68A      0.523926    69A      0.542028  
      70A      0.545768    71A      0.554040    72A      0.562627  
      73A      0.571879    74A      0.574479    75A      0.583907  
      76A      0.611997    77A      0.616209    78A      0.629233  
      79A      0.636800    80A      0.652215    81A      0.670677  
      82A      0.675521    83A      0.675949    84A      0.688037  
      85A      0.702903    86A      0.706099    87A      0.708762  
      88A      0.715623    89A      0.724498    90A      0.730966  
      91A      0.738445    92A      0.752464    93A      0.760120  
      94A      0.767513    95A      0.788740    96A      0.790998  
      97A      0.806065    98A      0.821569    99A      0.843101  
     100A      0.846781   101A      0.863293   102A      0.865404  
     103A      0.875900   104A      0.885796   105A      0.893103  
     106A      0.907557   107A      0.932354   108A      0.936952  
     109A      0.949104   110A      0.963450   111A      0.974106  
     112A      0.988517   113A      0.999904   114A      1.013411  
     115A      1.030772   116A      1.053085   117A      1.075137  
     118A      1.090685   119A      1.125470   120A      1.137206  
     121A      1.144146   122A      1.151221   123A      1.158077  
     124A      1.182570   125A      1.187550   126A      1.199372  
     127A      1.204963   128A      1.219290   129A      1.233156  
     130A      1.242478   131A      1.258983   132A      1.263039  
     133A      1.276480   134A      1.290470   135A      1.307905  
     136A      1.317052   137A      1.322405   138A      1.350172  
     139A      1.396318   140A      1.420624   141A      1.450771  
     142A      1.461260   143A      1.470624   144A      1.484773  
     145A      1.506112   146A      1.523088   147A      1.551288  
     148A      1.574970   149A      1.588684   150A      1.615164  
     151A      1.642984   152A      1.657090   153A      1.666228  
     154A      1.687402   155A      1.701323   156A      1.710573  
     157A      1.716754   158A      1.725944   159A      1.762345  
     160A      1.765068   161A      1.779899   162A      1.790247  
     163A      1.794352   164A      1.802890   165A      1.816971  
     166A      1.823406   167A      1.831938   168A      1.863316  
     169A      1.866470   170A      1.881252   171A      1.889291  
     172A      1.901608   173A      1.912607   174A      1.924503  
     175A      1.950939   176A      1.962815   177A      1.970844  
     178A      1.976751   179A      1.980230   180A      1.994497  
     181A      2.015549   182A      2.019957   183A      2.027867  
     184A      2.033563   185A      2.049209   186A      2.064402  
     187A      2.072750   188A      2.078543   189A      2.096960  
     190A      2.107449   191A      2.123525   192A      2.143655  
     193A      2.154349   194A      2.162316   195A      2.177108  
     196A      2.190615   197A      2.201338   198A      2.209003  
     199A      2.225795   200A      2.244387   201A      2.252795  
     202A      2.262588   203A      2.283345   204A      2.294478  
     205A      2.297528   206A      2.312250   207A      2.337268  
     208A      2.356231   209A      2.368291   210A      2.389405  
     211A      2.396888   212A      2.411254   213A      2.423536  
     214A      2.438687   215A      2.469320   216A      2.490082  
     217A      2.494826   218A      2.521113   219A      2.521734  
     220A      2.566484   221A      2.619604   222A      2.640807  
     223A      2.654700   224A      2.667008   225A      2.687173  
     226A      2.721294   227A      2.734634   228A      2.758001  
     229A      2.793108   230A      2.810711   231A      2.813806  
     232A      2.832673   233A      2.845390   234A      2.859533  
     235A      2.897543   236A      2.905493   237A      2.948186  
     238A      2.958322   239A      2.981471   240A      2.996551  
     241A      3.016937   242A      3.020503   243A      3.078456  
     244A      3.083188   245A      3.109002   246A      3.128757  
     247A      3.151343   248A      3.154756   249A      3.177702  
     250A      3.226810   251A      3.259898   252A      3.275444  
     253A      3.327544   254A      3.351203   255A      3.358980  
     256A      3.389503   257A      3.420450   258A      3.433865  
     259A      3.460496   260A      3.521675   261A      3.578162  
     262A      3.593049   263A      3.623493   264A      3.634392  
     265A      3.678884   266A      3.707166   267A      3.742132  
     268A      3.753254   269A      3.796334   270A      3.826550  
     271A      3.836409   272A      3.852771   273A      3.868405  
     274A      3.892368   275A      3.918312   276A      3.936259  
     277A      3.965425   278A      4.036338   279A      4.067297  
     280A      4.090652   281A      4.111207   282A      4.128111  
     283A      4.136344   284A      4.149137   285A      4.191026  
     286A      4.213448   287A      4.227884   288A      4.266767  
     289A      4.274765   290A      4.300580   291A      4.329527  
     292A      4.358791   293A      4.398945   294A      4.406657  
     295A      4.494458   296A      4.530049   297A      4.539306  
     298A      4.599420   299A      4.603428   300A      4.666555  
     301A      4.669642   302A      4.704849   303A      4.721877  
     304A      4.734295   305A      4.800110   306A      4.808345  
     307A      4.818058   308A      4.853307   309A      4.883240  
     310A      4.892775   311A      4.908680   312A      4.943231  
     313A      4.962242   314A      4.988353   315A      5.018870  
     316A      5.061857   317A      5.073044   318A      5.081743  
     319A      5.104847   320A      5.148237   321A      5.183821  
     322A      5.207450   323A      5.235024   324A      5.248739  
     325A      5.273960   326A      5.362226   327A      5.404803  
     328A      5.448365   329A      5.483527   330A      5.507726  
     331A      5.551469   332A      5.601682   333A      5.678744  
     334A      5.749270   335A      5.754620   336A      5.962598  
     337A      6.013064   338A      6.114241   339A      6.156081  
     340A      6.170614   341A      6.209888   342A      6.281685  
     343A      6.336228   344A      6.376889   345A      6.457805  
     346A      6.481585   347A      6.520218   348A      6.627904  
     349A      6.691219   350A      6.704039   351A      6.713753  
     352A      6.748179   353A      6.793891   354A      6.869485  
     355A      6.911443   356A      6.926936   357A      6.940726  
     358A      6.949901   359A      6.958832   360A      6.975508  
     361A      6.990159   362A      7.036545   363A      7.079343  
     364A      7.100187   365A      7.124936   366A      7.165276  
     367A      7.292241   368A      7.319687   369A      7.326776  
     370A      7.426268   371A      7.534733   372A      7.581459  
     373A      7.613559   374A      7.664065   375A      7.685469  
     376A      7.703772   377A      7.805538   378A      7.839428  
     379A      7.850505   380A      7.873015   381A      7.903533  
     382A      7.913906   383A      7.929677   384A      7.941159  
     385A      8.007380   386A      8.072568   387A      8.169230  
     388A      8.240800   389A      8.271508   390A      8.289629  
     391A      8.333033   392A      8.405942   393A      8.421209  
     394A      8.458246   395A      8.523343   396A      8.575342  
     397A      8.605494   398A      8.623922   399A      8.698271  
     400A      8.767609   401A      8.850658   402A      8.854177  
     403A      8.888070   404A      8.915215   405A      8.939801  
     406A      8.971604   407A      9.032689   408A      9.078384  
     409A      9.156904   410A      9.179233   411A      9.198393  
     412A      9.215432   413A      9.237389   414A      9.250474  
     415A      9.416362   416A      9.445928   417A      9.484921  
     418A      9.575162   419A      9.584428   420A      9.627213  
     421A      9.683044   422A      9.710131   423A      9.740922  
     424A      9.939811   425A      9.971737   426A     10.003084  
     427A     10.060434   428A     10.134603   429A     10.145925  
     430A     10.163686   431A     10.187314   432A     10.333297  
     433A     10.347499   434A     10.381016   435A     10.576440  
     436A     10.687375   437A     10.787642   438A     10.818566  
     439A     10.852046   440A     10.932179   441A     10.958967  
     442A     11.009146   443A     11.096718   444A     11.208879  
     445A     11.353938   446A     11.433149   447A     11.476959  
     448A     11.515861   449A     11.615481   450A     11.793786  
     451A     11.920874   452A     11.998284   453A     12.165838  
     454A     12.324616   455A     12.411123   456A     12.711637  
     457A     12.928676   458A     12.947651   459A     12.995081  
     460A     13.127344   461A     13.163853   462A     13.347429  
     463A     13.374572   464A     14.079526   465A     14.356554  
     466A     14.583380   467A     14.919907   468A     15.015149  
     469A     15.387110   470A     17.121529   471A     17.402507  
     472A     27.642238   473A     28.901443   474A     45.941835  

    Final Occupation by Irrep:
              A 
    DOCC [    18 ]

  @DF-RHF Final Energy:  -575.20448249260619

   => Energetics <=

    Nuclear Repulsion Energy =            107.1155223723198162
    One-Electron Energy =               -1006.0520299010368035
    Two-Electron Energy =                 323.7320250361108265
    Total Energy =                       -575.2044824926061892

Computation Completed


Properties will be evaluated at  -0.000000,   0.000000,   0.000000 [a0]

Properties computed using the SCF density matrix

  Nuclear Dipole Moment: [e a0]
     X:    -3.1817      Y:    -3.5709      Z:     2.0875

  Electronic Dipole Moment: [e a0]
     X:     1.4675      Y:     3.3973      Z:    -1.9607

  Dipole Moment: [e a0]
     X:    -1.7142      Y:    -0.1736      Z:     0.1268     Total:     1.7276

  Dipole Moment: [D]
     X:    -4.3570      Y:    -0.4413      Z:     0.3224     Total:     4.3911


*** tstop() called on node37.bme.utexas.edu at Tue Feb 22 17:46:51 2022
Module time:
	user time   =      77.77 seconds =       1.30 minutes
	system time =       4.06 seconds =       0.07 minutes
	total time  =         29 seconds =       0.48 minutes
Total time:
	user time   =     428.26 seconds =       7.14 minutes
	system time =      23.91 seconds =       0.40 minutes
	total time  =        165 seconds =       2.75 minutes

*** tstart() called on node37.bme.utexas.edu
*** at Tue Feb 22 17:46:51 2022


  //>>>>>>>>>>>>>>>>>>>>>>>>>>>>>>>>>>>//
  //               DFMP2               //
  //<<<<<<<<<<<<<<<<<<<<<<<<<<<<<<<<<<<//

   => Loading Basis Set <=

    Name: (AUG-CC-PVQZ AUX)
    Role: RIFIT
    Keyword: DF_BASIS_MP2
    atoms 1        entry CL         line   914 file /home/bdw2292/miniconda3/envs/amoebamdpoltype/share/psi4/basis/aug-cc-pvqz-ri.gbs 
    atoms 2        entry C          line   184 file /home/bdw2292/miniconda3/envs/amoebamdpoltype/share/psi4/basis/aug-cc-pvqz-ri.gbs 
    atoms 3-5, 7-8 entry H          line    30 file /home/bdw2292/miniconda3/envs/amoebamdpoltype/share/psi4/basis/aug-cc-pvqz-ri.gbs 
    atoms 6        entry O          line   332 file /home/bdw2292/miniconda3/envs/amoebamdpoltype/share/psi4/basis/aug-cc-pvqz-ri.gbs 

	 --------------------------------------------------------
	                          DF-MP2                         
	      2nd-Order Density-Fitted Moller-Plesset Theory     
	              RMP2 Wavefunction,   4 Threads             
	                                                         
	        Rob Parrish, Justin Turney, Andy Simmonett,      
	           Ed Hohenstein, and C. David Sherrill          
	 --------------------------------------------------------

   => Auxiliary Basis Set <=

  Basis Set: (AUG-CC-PVQZ AUX)
    Blend: AUG-CC-PVQZ-RI
    Number of shells: 216
    Number of basis function: 930
    Number of Cartesian functions: 1267
    Spherical Harmonics?: true
    Max angular momentum: 5

	 --------------------------------------------------------
	                 NBF =   474, NAUX =   930
	 --------------------------------------------------------
	   CLASS    FOCC     OCC    AOCC    AVIR     VIR    FVIR
	   PAIRS       7      18      11     456     456       0
	 --------------------------------------------------------

	-----------------------------------------------------------
	 ==================> DF-MP2 Energies <==================== 
	-----------------------------------------------------------
	 Reference Energy          =    -575.2044824926061892 [Eh]
	 Singles Energy            =      -0.0000000000000000 [Eh]
	 Same-Spin Energy          =      -0.1596512397460950 [Eh]
	 Opposite-Spin Energy      =      -0.5421691658115686 [Eh]
	 Correlation Energy        =      -0.7018204055576636 [Eh]
	 Total Energy              =    -575.9063028981638581 [Eh]
	-----------------------------------------------------------
	 ================> DF-SCS-MP2 Energies <================== 
	-----------------------------------------------------------
	 SCS Same-Spin Scale       =       0.3333333333333333 [-]
	 SCS Opposite-Spin Scale   =       1.2000000000000000 [-]
	 SCS Same-Spin Energy      =      -0.0532170799153650 [Eh]
	 SCS Opposite-Spin Energy  =      -0.6506029989738823 [Eh]
	 SCS Correlation Energy    =      -0.7038200788892472 [Eh]
	 SCS Total Energy          =    -575.9083025714954829 [Eh]
	-----------------------------------------------------------


*** tstop() called on node37.bme.utexas.edu at Tue Feb 22 17:47:08 2022
Module time:
	user time   =      30.04 seconds =       0.50 minutes
	system time =       2.04 seconds =       0.03 minutes
	total time  =         17 seconds =       0.28 minutes
Total time:
	user time   =     458.30 seconds =       7.64 minutes
	system time =      25.95 seconds =       0.43 minutes
	total time  =        182 seconds =       3.03 minutes

  //>>>>>>>>>>>>>>>>>>>>>>>>>>>>>>>>>>>//
  //  CBS Results: mp2/aug-cc-pV[TQ]Z  //
  //<<<<<<<<<<<<<<<<<<<<<<<<<<<<<<<<<<<//


   ==> HF <==

   HI-zeta (4) Energy:               -575.204482492606


   ==> Helgaker 2-point correlated extrapolation for method: MP2 <==

   LO-zeta (3) Energy:               -575.850593672413
   HI-zeta (4) Energy:               -575.906302898164
   Alpha (exponent) Value:             3.000000000000
   Extrapolated Energy:              -575.946955576414

   @Extrapolated MP2/(T,Q):          -575.946955576414



   ==> Helgaker 2-point correlated extrapolation for method: HF <==

   LO-zeta (3) Energy:               -575.193082580663
   HI-zeta (4) Energy:               -575.204482492606
   Alpha (exponent) Value:             3.000000000000
   Extrapolated Energy:              -575.212801347267

   @Extrapolated HF/(T,Q):           -575.212801347267


   ==> Components <==

  ---------------------------------------------------------------------------------------------------------
                          Method / Basis                      Rqd      Energy [Eh]   Variable
  ---------------------------------------------------------------------------------------------------------
                              hf / aug-cc-pvtz                  *    -575.19308258   HF TOTAL ENERGY
                             mp2 / aug-cc-pvtz                  *    -575.85059367   MP2 TOTAL ENERGY
                              hf / aug-cc-pvqz                  *    -575.20448249   HF TOTAL ENERGY
                             mp2 / aug-cc-pvqz                  *    -575.90630290   MP2 TOTAL ENERGY
  ---------------------------------------------------------------------------------------------------------

   ==> Stages <==

  ---------------------------------------------------------------------------------------------------------
      Stage               Method / Basis                       Wt      Energy [Eh]   Scheme
  ---------------------------------------------------------------------------------------------------------
        scf                   hf / aug-cc-pvqz                  1    -575.20448249   xtpl_highest_1
       corl                  mp2 / aug-cc-pv[tq]z               1    -575.94695558   corl_xtpl_helgaker_2
       corl                   hf / aug-cc-pv[tq]z              -1    -575.21280135   corl_xtpl_helgaker_2
  ---------------------------------------------------------------------------------------------------------

   ==> CBS <==

  ---------------------------------------------------------------------------------------------------------
      Stage               Method / Basis                               Energy [Eh]   Scheme
  ---------------------------------------------------------------------------------------------------------
        scf                   hf / aug-cc-pvqz                       -575.20448249   xtpl_highest_1
       corl                  mp2 / aug-cc-pv[tq]z                      -0.73415423   corl_xtpl_helgaker_2
      total                  CBS                                     -575.93863672   
  ---------------------------------------------------------------------------------------------------------
   => Loading Basis Set <=

    Name: DEF2-SVP
    Role: ORBITAL
    Keyword: BASIS
    atoms 1        entry CL         line   356 file /home/bdw2292/miniconda3/envs/amoebamdpoltype/share/psi4/basis/def2-svp.gbs 
    atoms 2        entry C          line    90 file /home/bdw2292/miniconda3/envs/amoebamdpoltype/share/psi4/basis/def2-svp.gbs 
    atoms 3-5, 7-8 entry H          line    15 file /home/bdw2292/miniconda3/envs/amoebamdpoltype/share/psi4/basis/def2-svp.gbs 
    atoms 6        entry O          line   130 file /home/bdw2292/miniconda3/envs/amoebamdpoltype/share/psi4/basis/def2-svp.gbs 


       N-Body: Complex Energy (fragments = (1, 2), basis = (1, 2):  -575.93863672175326)

   ==> N-Body: Counterpoise Corrected (CP) energies <==

   n-Body     Total Energy [Eh]       I.E. [kcal/mol]      Delta [kcal/mol]
        1     -575.945672469764        0.000000000000        0.000000000000
        2     -575.938133735741        4.730627020079        4.730627020079

   => Loading Basis Set <=

    Name: DEF2-SVP
    Role: ORBITAL
    Keyword: BASIS
    atoms 1        entry CL         line   356 file /home/bdw2292/miniconda3/envs/amoebamdpoltype/share/psi4/basis/def2-svp.gbs 
    atoms 2        entry C          line    90 file /home/bdw2292/miniconda3/envs/amoebamdpoltype/share/psi4/basis/def2-svp.gbs 
    atoms 3-5, 7-8 entry H          line    15 file /home/bdw2292/miniconda3/envs/amoebamdpoltype/share/psi4/basis/def2-svp.gbs 
    atoms 6        entry O          line   130 file /home/bdw2292/miniconda3/envs/amoebamdpoltype/share/psi4/basis/def2-svp.gbs 

CP Energy =   0.007539
    Psi4 stopped on: Tuesday, 22 February 2022 05:47PM
    Psi4 wall time for execution: 0:03:04.67

*** Psi4 exiting successfully. Buy a developer a beer!
