Generated by Psi4
        SP                        DF-MP2                      6-311G**
Number of atoms                            I               11
Charge                                     I                0
Multiplicity                               I                1
Number of electrons                        I               58
Number of alpha electrons                  I               29
Number of beta electrons                   I               29
Number of basis functions                  I              146
Number of independent functions            I              146
Atomic numbers                             I   N=          11
          15           8           8           8           8           6
           1           1           1           1           1
Nuclear charges                            R   N=          11
  1.50000000e+01  8.00000000e+00  8.00000000e+00  8.00000000e+00  8.00000000e+00
  6.00000000e+00  1.00000000e+00  1.00000000e+00  1.00000000e+00  1.00000000e+00
  1.00000000e+00
Current cartesian coordinates              R   N=          33
  7.92820752e-01  6.75817987e-02 -7.20137090e-03 -1.73511355e+00  1.70181326e+00
 -2.06072689e-01  4.60449382e-01 -2.11958297e+00 -2.09350397e+00  4.55763031e-01
 -1.56356231e+00  2.53684115e+00  3.09754294e+00  1.60125984e+00 -1.89021075e-01
 -4.15044513e+00  5.04771445e-01 -6.54889780e-02 -5.55192384e+00  2.00457988e+00
 -2.46660050e-01 -4.37955743e+00 -4.53138777e-01  1.75238074e+00 -4.37561602e+00
 -8.55310804e-01 -1.60628031e+00  1.60356461e+00 -1.81547300e+00 -3.48374318e+00
  1.59249617e+00 -9.35872910e-01  3.81973256e+00
Integer atomic weights                     I   N=          11
          30          15          15          15          15          12
           1           1           1           1           1
Real atomic weights                        R   N=          11
  3.09737620e+01  1.59949146e+01  1.59949146e+01  1.59949146e+01  1.59949146e+01
  1.20000000e+01  1.00782503e+00  1.00782503e+00  1.00782503e+00  1.00782503e+00
  1.00782503e+00
Number of primitive shells                 I              138
Number of contracted shells                I               72
Pure/Cartesian d shells                    I                0
Pure/Cartesian f shells                    I                0
Highest angular momentum                   I                2
Largest degree of contraction              I                6
Shell types                                I   N=          72
           0           0           0           0           0           0
           1           1           1           1           1          -2
           0           0           1           0           1           0
           1          -2           0           0           1           0
           1           0           1          -2           0           0
           1           0           1           0           1          -2
           0           0           1           0           1           0
           1          -2           0           0           1           0
           1           0           1          -2           0           0
           0           1           0           0           0           1
           0           0           0           1           0           0
           0           1           0           0           0           1
Number of primitives per shell             I   N=          72
           6           3           1           1           1           1
           4           2           1           1           1           1
           6           3           3           1           1           1
           1           1           6           3           3           1
           1           1           1           1           6           3
           3           1           1           1           1           1
           6           3           3           1           1           1
           1           1           6           3           3           1
           1           1           1           1           3           1
           1           1           3           1           1           1
           3           1           1           1           3           1
           1           1           3           1           1           1
Shell to atom map                          I   N=          72
           1           1           1           1           1           1
           1           1           1           1           1           1
           2           2           2           2           2           2
           2           2           3           3           3           3
           3           3           3           3           4           4
           4           4           4           4           4           4
           5           5           5           5           5           5
           5           5           6           6           6           6
           6           6           6           6           7           7
           7           7           8           8           8           8
           9           9           9           9          10          10
          10          10          11          11          11          11
Primitive exponents                        R   N=         138
  7.74924000e+04  1.16058000e+04  2.64596000e+03  7.54976000e+02  2.48755000e+02
  9.11565000e+01  9.11565000e+01  3.62257000e+01  1.52113000e+01  4.79417000e+00
  1.80793000e+00  3.56816000e-01  1.14783000e-01  3.84843000e+02  9.05521000e+01
  2.91339000e+01  1.08862000e+01  4.35259000e+00  1.77706000e+00  6.97005000e-01
  2.53532000e-01  6.84930000e-02  5.50000000e-01  8.58850000e+03  1.29723000e+03
  2.99296000e+02  8.73771000e+01  2.56789000e+01  3.74004000e+00  4.21175000e+01
  9.62837000e+00  2.85332000e+00  4.21175000e+01  9.62837000e+00  2.85332000e+00
  9.05661000e-01  9.05661000e-01  2.55611000e-01  2.55611000e-01  1.29200000e+00
  8.58850000e+03  1.29723000e+03  2.99296000e+02  8.73771000e+01  2.56789000e+01
  3.74004000e+00  4.21175000e+01  9.62837000e+00  2.85332000e+00  4.21175000e+01
  9.62837000e+00  2.85332000e+00  9.05661000e-01  9.05661000e-01  2.55611000e-01
  2.55611000e-01  1.29200000e+00  8.58850000e+03  1.29723000e+03  2.99296000e+02
  8.73771000e+01  2.56789000e+01  3.74004000e+00  4.21175000e+01  9.62837000e+00
  2.85332000e+00  4.21175000e+01  9.62837000e+00  2.85332000e+00  9.05661000e-01
  9.05661000e-01  2.55611000e-01  2.55611000e-01  1.29200000e+00  8.58850000e+03
  1.29723000e+03  2.99296000e+02  8.73771000e+01  2.56789000e+01  3.74004000e+00
  4.21175000e+01  9.62837000e+00  2.85332000e+00  4.21175000e+01  9.62837000e+00
  2.85332000e+00  9.05661000e-01  9.05661000e-01  2.55611000e-01  2.55611000e-01
  1.29200000e+00  4.56324000e+03  6.82024000e+02  1.54973000e+02  4.44553000e+01
  1.30290000e+01  1.82773000e+00  2.09642000e+01  4.80331000e+00  1.45933000e+00
  2.09642000e+01  4.80331000e+00  1.45933000e+00  4.83456000e-01  4.83456000e-01
  1.45585000e-01  1.45585000e-01  6.26000000e-01  3.38650000e+01  5.09479000e+00
  1.15879000e+00  3.25840000e-01  1.02741000e-01  7.50000000e-01  3.38650000e+01
  5.09479000e+00  1.15879000e+00  3.25840000e-01  1.02741000e-01  7.50000000e-01
  3.38650000e+01  5.09479000e+00  1.15879000e+00  3.25840000e-01  1.02741000e-01
  7.50000000e-01  3.38650000e+01  5.09479000e+00  1.15879000e+00  3.25840000e-01
  1.02741000e-01  7.50000000e-01  3.38650000e+01  5.09479000e+00  1.15879000e+00
  3.25840000e-01  1.02741000e-01  7.50000000e-01
Contraction coefficients                   R   N=         138
  7.81000147e-04  6.06800114e-03  3.11600059e-02  1.23431023e-01  3.78209071e-01
  5.63262106e-01  1.60255011e-01  6.27647045e-01  2.63849019e-01  1.00000000e+00
  1.00000000e+00  1.00000000e+00  1.00000000e+00  9.20599888e-03  6.98739915e-02
  2.92469964e-01  7.28102911e-01  6.28348873e-01  4.28043913e-01  1.00000000e+00
  1.00000000e+00  1.00000000e+00  1.00000000e+00  1.89515008e-03  1.43859006e-02
  7.07320031e-02  2.40001011e-01  5.94797026e-01  2.80802012e-01  1.13889012e-01
  9.20811101e-01 -3.27447036e-03  3.65113974e-02  2.37152983e-01  8.19701941e-01
  1.00000000e+00  1.00000000e+00  1.00000000e+00  1.00000000e+00  1.00000000e+00
  1.89515008e-03  1.43859006e-02  7.07320031e-02  2.40001011e-01  5.94797026e-01
  2.80802012e-01  1.13889012e-01  9.20811101e-01 -3.27447036e-03  3.65113974e-02
  2.37152983e-01  8.19701941e-01  1.00000000e+00  1.00000000e+00  1.00000000e+00
  1.00000000e+00  1.00000000e+00  1.89515008e-03  1.43859006e-02  7.07320031e-02
  2.40001011e-01  5.94797026e-01  2.80802012e-01  1.13889012e-01  9.20811101e-01
 -3.27447036e-03  3.65113974e-02  2.37152983e-01  8.19701941e-01  1.00000000e+00
  1.00000000e+00  1.00000000e+00  1.00000000e+00  1.00000000e+00  1.89515008e-03
  1.43859006e-02  7.07320031e-02  2.40001011e-01  5.94797026e-01  2.80802012e-01
  1.13889012e-01  9.20811101e-01 -3.27447036e-03  3.65113974e-02  2.37152983e-01
  8.19701941e-01  1.00000000e+00  1.00000000e+00  1.00000000e+00  1.00000000e+00
  1.00000000e+00  1.96665025e-03  1.52306019e-02  7.61269097e-02  2.60801033e-01
  6.16462078e-01  2.21006028e-01  1.14660081e-01  9.19999648e-01 -3.03068213e-03
  4.02486927e-02  2.37593957e-01  8.15853851e-01  1.00000000e+00  1.00000000e+00
  1.00000000e+00  1.00000000e+00  1.00000000e+00  2.54938145e-02  1.90373109e-01
  8.52161486e-01  1.00000000e+00  1.00000000e+00  1.00000000e+00  2.54938145e-02
  1.90373109e-01  8.52161486e-01  1.00000000e+00  1.00000000e+00  1.00000000e+00
  2.54938145e-02  1.90373109e-01  8.52161486e-01  1.00000000e+00  1.00000000e+00
  1.00000000e+00  2.54938145e-02  1.90373109e-01  8.52161486e-01  1.00000000e+00
  1.00000000e+00  1.00000000e+00  2.54938145e-02  1.90373109e-01  8.52161486e-01
  1.00000000e+00  1.00000000e+00  1.00000000e+00
Coordinates of each shell                  R   N=         216
  7.92820752e-01  6.75817987e-02 -7.20137090e-03  7.92820752e-01  6.75817987e-02
 -7.20137090e-03  7.92820752e-01  6.75817987e-02 -7.20137090e-03  7.92820752e-01
  6.75817987e-02 -7.20137090e-03  7.92820752e-01  6.75817987e-02 -7.20137090e-03
  7.92820752e-01  6.75817987e-02 -7.20137090e-03  7.92820752e-01  6.75817987e-02
 -7.20137090e-03  7.92820752e-01  6.75817987e-02 -7.20137090e-03  7.92820752e-01
  6.75817987e-02 -7.20137090e-03  7.92820752e-01  6.75817987e-02 -7.20137090e-03
  7.92820752e-01  6.75817987e-02 -7.20137090e-03  7.92820752e-01  6.75817987e-02
 -7.20137090e-03 -1.73511355e+00  1.70181326e+00 -2.06072689e-01 -1.73511355e+00
  1.70181326e+00 -2.06072689e-01 -1.73511355e+00  1.70181326e+00 -2.06072689e-01
 -1.73511355e+00  1.70181326e+00 -2.06072689e-01 -1.73511355e+00  1.70181326e+00
 -2.06072689e-01 -1.73511355e+00  1.70181326e+00 -2.06072689e-01 -1.73511355e+00
  1.70181326e+00 -2.06072689e-01 -1.73511355e+00  1.70181326e+00 -2.06072689e-01
  4.60449382e-01 -2.11958297e+00 -2.09350397e+00  4.60449382e-01 -2.11958297e+00
 -2.09350397e+00  4.60449382e-01 -2.11958297e+00 -2.09350397e+00  4.60449382e-01
 -2.11958297e+00 -2.09350397e+00  4.60449382e-01 -2.11958297e+00 -2.09350397e+00
  4.60449382e-01 -2.11958297e+00 -2.09350397e+00  4.60449382e-01 -2.11958297e+00
 -2.09350397e+00  4.60449382e-01 -2.11958297e+00 -2.09350397e+00  4.55763031e-01
 -1.56356231e+00  2.53684115e+00  4.55763031e-01 -1.56356231e+00  2.53684115e+00
  4.55763031e-01 -1.56356231e+00  2.53684115e+00  4.55763031e-01 -1.56356231e+00
  2.53684115e+00  4.55763031e-01 -1.56356231e+00  2.53684115e+00  4.55763031e-01
 -1.56356231e+00  2.53684115e+00  4.55763031e-01 -1.56356231e+00  2.53684115e+00
  4.55763031e-01 -1.56356231e+00  2.53684115e+00  3.09754294e+00  1.60125984e+00
 -1.89021075e-01  3.09754294e+00  1.60125984e+00 -1.89021075e-01  3.09754294e+00
  1.60125984e+00 -1.89021075e-01  3.09754294e+00  1.60125984e+00 -1.89021075e-01
  3.09754294e+00  1.60125984e+00 -1.89021075e-01  3.09754294e+00  1.60125984e+00
 -1.89021075e-01  3.09754294e+00  1.60125984e+00 -1.89021075e-01  3.09754294e+00
  1.60125984e+00 -1.89021075e-01 -4.15044513e+00  5.04771445e-01 -6.54889780e-02
 -4.15044513e+00  5.04771445e-01 -6.54889780e-02 -4.15044513e+00  5.04771445e-01
 -6.54889780e-02 -4.15044513e+00  5.04771445e-01 -6.54889780e-02 -4.15044513e+00
  5.04771445e-01 -6.54889780e-02 -4.15044513e+00  5.04771445e-01 -6.54889780e-02
 -4.15044513e+00  5.04771445e-01 -6.54889780e-02 -4.15044513e+00  5.04771445e-01
 -6.54889780e-02 -5.55192384e+00  2.00457988e+00 -2.46660050e-01 -5.55192384e+00
  2.00457988e+00 -2.46660050e-01 -5.55192384e+00  2.00457988e+00 -2.46660050e-01
 -5.55192384e+00  2.00457988e+00 -2.46660050e-01 -4.37955743e+00 -4.53138777e-01
  1.75238074e+00 -4.37955743e+00 -4.53138777e-01  1.75238074e+00 -4.37955743e+00
 -4.53138777e-01  1.75238074e+00 -4.37955743e+00 -4.53138777e-01  1.75238074e+00
 -4.37561602e+00 -8.55310804e-01 -1.60628031e+00 -4.37561602e+00 -8.55310804e-01
 -1.60628031e+00 -4.37561602e+00 -8.55310804e-01 -1.60628031e+00 -4.37561602e+00
 -8.55310804e-01 -1.60628031e+00  1.60356461e+00 -1.81547300e+00 -3.48374318e+00
  1.60356461e+00 -1.81547300e+00 -3.48374318e+00  1.60356461e+00 -1.81547300e+00
 -3.48374318e+00  1.60356461e+00 -1.81547300e+00 -3.48374318e+00  1.59249617e+00
 -9.35872910e-01  3.81973256e+00  1.59249617e+00 -9.35872910e-01  3.81973256e+00
  1.59249617e+00 -9.35872910e-01  3.81973256e+00  1.59249617e+00 -9.35872910e-01
  3.81973256e+00
Total Energy                               R     -6.822262753066839e+02
Alpha Orbital Energies                     R   N=         146
 -8.01201852e+01 -2.06097968e+01 -2.06097826e+01 -2.05972288e+01 -2.05182643e+01
 -1.13009556e+01 -7.64329655e+00 -5.54143280e+00 -5.54139973e+00 -5.54103931e+00
 -1.46799906e+00 -1.39594514e+00 -1.39456906e+00 -1.31132249e+00 -9.71556435e-01
 -8.61078129e-01 -7.39210141e-01 -7.32421429e-01 -6.87314313e-01 -6.62399253e-01
 -6.45689274e-01 -6.43583609e-01 -5.91852145e-01 -5.63499101e-01 -5.52450226e-01
 -5.18559232e-01 -4.95416184e-01 -4.78383548e-01 -4.74149690e-01  1.28683156e-01
  1.66346772e-01  1.69017232e-01  2.14118603e-01  2.31459168e-01  2.34577528e-01
  2.60696523e-01  2.80013487e-01  2.84386804e-01  3.69123597e-01  3.85384759e-01
  3.88035528e-01  4.19373475e-01  4.59320449e-01  4.62248378e-01  5.68892309e-01
  5.94323761e-01  5.96239872e-01  6.68313863e-01  7.60701956e-01  7.66241610e-01
  7.71858871e-01  8.50503041e-01  8.54208101e-01  9.03018695e-01  9.41372002e-01
  9.89531750e-01  1.01000832e+00  1.02572901e+00  1.02931959e+00  1.10200248e+00
  1.14377924e+00  1.16524586e+00  1.17277666e+00  1.18363022e+00  1.19083558e+00
  1.27856421e+00  1.28663384e+00  1.29644942e+00  1.39030973e+00  1.44450507e+00
  1.46974443e+00  1.49537423e+00  1.53623328e+00  1.60148387e+00  1.62367518e+00
  1.66319093e+00  1.68161855e+00  1.70559633e+00  1.71016255e+00  1.74796507e+00
  1.75989110e+00  1.84694481e+00  1.89044205e+00  1.90646644e+00  1.92127523e+00
  1.95059102e+00  1.96813624e+00  2.18688435e+00  2.24517056e+00  2.25135735e+00
  2.27423122e+00  2.37138724e+00  2.39512875e+00  2.62024441e+00  2.65854147e+00
  2.70628078e+00  2.72494562e+00  2.79592345e+00  2.80401890e+00  2.82107893e+00
  3.08553866e+00  3.11079378e+00  3.21784049e+00  3.22293850e+00  3.22584623e+00
  3.26552640e+00  3.29966513e+00  3.31701640e+00  3.36765972e+00  3.43348053e+00
  3.44364616e+00  3.46365471e+00  3.49154997e+00  3.50990454e+00  3.53127085e+00
  3.60836920e+00  3.72716990e+00  3.78815102e+00  3.93428537e+00  4.13238802e+00
  4.14126038e+00  4.15544903e+00  4.18741837e+00  4.37528723e+00  5.31530666e+00
  5.31805870e+00  5.37114587e+00  5.39144586e+00  5.42025525e+00  5.44845571e+00
  5.52512812e+00  5.56957991e+00  5.75562661e+00  5.96163428e+00  5.96410867e+00
  6.01129886e+00  7.60868711e+00  1.47907342e+01  1.47971484e+01  1.50521035e+01
  2.49868574e+01  5.14627232e+01  5.14972793e+01  5.15073479e+01  5.15972055e+01
  1.66125796e+02
Alpha MO coefficients                      R   N=       21316
  4.19271860e-01  6.46642502e-01  1.07510827e-02 -1.06171959e-03  4.37077481e-04
 -6.24565831e-05 -6.00561689e-05 -4.50914731e-05  5.35341794e-06  2.07815206e-05
  1.55867591e-05 -1.85008386e-06 -1.70826974e-05 -1.36327523e-05  1.61719921e-06
  2.45862889e-05  2.46284376e-05 -2.92662694e-06  2.07873143e-05  1.20314366e-05
 -1.43548648e-06 -6.95075037e-06 -9.48356811e-07 -7.73754792e-07  5.64061217e-06
  8.04614078e-06  5.50171508e-07 -4.12273296e-07  3.72728287e-06 -2.14995311e-06
  2.63150439e-07  1.82768776e-05 -1.14166669e-05  6.22677607e-06 -7.63339944e-07
 -7.30224695e-05 -2.80624967e-05  3.75497651e-05 -4.52544396e-06  1.12604120e-05
 -1.62849352e-06  1.65348519e-06 -6.03617751e-06  1.33326192e-05  3.81317096e-07
  2.69611108e-07  8.45075728e-07  3.10511900e-06  3.18704185e-06  1.26495086e-05
 -3.19008894e-06 -9.27982160e-06 -8.79230225e-06 -5.26449848e-05 -1.72514609e-05
 -3.62707708e-05 -1.11574915e-05 -3.35202760e-06  7.47206481e-07 -1.45997237e-05
  7.07887143e-06 -5.45608224e-06  3.81003901e-07  2.71663134e-07  8.50786182e-07
  2.26284440e-06 -3.83223696e-06  1.26415680e-05 -3.20472158e-06 -6.93974121e-06
  1.07391669e-05 -5.26575967e-05 -1.72645795e-05 -3.26419024e-05  1.93489243e-05
 -9.23574413e-06  6.00808499e-07  1.32338490e-05  3.70613556e-06 -5.50427964e-06
  2.11203480e-07  1.04254163e-06 -4.10362634e-06 -2.64727866e-06  3.14520332e-07
  1.39717418e-05  2.24225580e-05  1.46630934e-05 -1.74057104e-06 -9.02036952e-05
  4.75095303e-05  3.15192899e-05 -3.73169218e-06  1.09329318e-05  2.08270392e-06
  1.38170127e-06 -7.44328156e-06 -1.75696333e-05 -1.81874215e-07  4.21770668e-07
 -1.80670052e-06  1.26388994e-06 -1.53039562e-07 -8.23873579e-06  5.06517075e-06
 -4.42128067e-06  5.33919038e-07  4.15822038e-05  3.81529525e-05 -2.19779082e-05
  2.67656129e-06  3.30320270e-07  1.67845389e-08  9.48176399e-07  7.23328036e-06
 -8.07702253e-08  2.69339297e-07  9.19668888e-06  6.15549938e-06 -6.82868278e-07
 -1.97374887e-06  2.34847047e-07  1.32462140e-06 -1.59763157e-05  4.85351217e-06
 -2.40364618e-06  1.84690394e-06  1.85225485e-06  1.32359344e-06 -1.59721206e-05
  4.83876933e-06 -2.40045117e-06  1.35663250e-06 -2.24213298e-06 -8.95062583e-08
  2.42238468e-05  4.60371107e-06 -2.15284518e-06  7.00344199e-06  9.94588582e-06
 -9.49114090e-08  2.42568622e-05  4.61449992e-06 -2.12774009e-06  4.44101215e-06
 -1.13369762e-05  3.94739202e-08  8.77648336e-08 -3.19363516e-08 -9.84546988e-07
  8.32310677e-07  6.95029493e-06  5.94580209e-09  1.38251595e-06  1.08104986e-05
 -1.53025758e-08  6.22373654e-06  4.88626222e-05  1.10871047e-07 -8.71742401e-06
 -6.90527937e-05 -2.01598626e-07 -3.08967264e-05 -2.39646918e-04 -2.12335920e-06
 -6.50552384e-06 -3.86156047e-05 -2.65308334e-05  2.01401303e-05  1.29455137e-04
 -1.63708422e-05  2.25290892e-06 -4.55079999e-06 -3.91557024e-06 -5.35208841e-08
  2.82289515e-07  2.05567591e-06  2.50007338e-07  3.76940471e-08  1.22868122e-06
  9.51229354e-06 -1.52611319e-06 -4.60505584e-07  3.60385766e-06  2.58031213e-05
  7.81928415e-07  5.42642304e-06 -3.72273670e-06  4.76092405e-07  6.60928957e-07
  3.93549269e-01  3.36607652e-01  6.97329309e-04  8.76223794e-04 -1.07927971e-04
  4.00396486e-03 -2.40735144e-04 -2.73729375e-04  8.65895050e-05 -3.42477500e-04
  6.32807947e-05  9.21139168e-06 -8.72324273e-05 -3.20127671e-05  4.41964976e-05
 -3.32008359e-05  7.12469025e-06 -1.82180934e-05 -3.86278498e-01 -3.30388968e-01
 -6.82386703e-04 -8.62498450e-04  9.83193611e-05 -3.92902912e-03  2.35056249e-04
  2.81790798e-04  1.98794479e-05  3.30548802e-04 -6.15340651e-05 -2.95556778e-05
 -8.02804780e-05  4.22195591e-05  3.75439344e-05 -1.79458339e-05 -1.22119805e-06
  2.76724446e-05 -6.96549309e-07 -6.19816530e-07  1.10080552e-07  1.21609146e-06
  8.91727579e-06  2.02187243e-07 -3.43214362e-07 -1.71464555e-06 -1.14666361e-05
 -4.11983745e-07  6.74789590e-07  9.07139376e-06  6.69977695e-05  1.38992326e-06
 -4.91444261e-06 -6.75942777e-06  8.82500526e-07 -5.91393624e-07  3.18167117e-09
 -2.21124347e-09  6.48053826e-09 -2.83021023e-07 -1.96317853e-06  1.84959867e-07
  6.99500307e-08  2.60516893e-06  2.02301255e-05 -1.14893192e-06 -5.24380716e-07
  1.49127132e-06  1.11393384e-05  2.14547296e-06 -1.91294972e-06 -1.02684893e-05
  1.29180474e-06 -9.16975172e-08  2.56791153e-09  9.61040704e-08 -7.67490704e-08
  2.78347916e-08  1.87368466e-07  1.88950351e-06  8.92044187e-07 -2.10552817e-06
 -5.39211697e-05 -8.34330639e-06 -3.67044232e-06  1.27772786e-05 -9.02426799e-07
  2.41863360e-06  5.35521971e-05  8.27389048e-06  6.69139666e-06  1.16823630e-05
  1.32503637e-04  1.88625654e-05  5.44014985e-05 -1.32069544e-05  1.55146189e-05
  4.02986662e-05 -1.30081117e-04 -1.72678109e-05 -5.38611405e-05  1.24969156e-05
 -5.52560430e-06  4.16724281e-05  4.23373902e-06  9.55343045e-06 -4.38555332e-06
 -1.03691342e-04  8.37837770e-05  7.64807390e-04  2.02560721e-06  9.04241082e-06
 -1.18739139e-06  3.24017465e-06  3.65546317e-05 -4.84803174e-06  7.03060303e-06
 -4.28883539e-05  5.80819681e-06 -5.53965133e-05 -2.28708752e-04  2.96855243e-05
 -2.13034423e-04 -2.13443088e-04  2.56395021e-05  7.84797413e-05 -1.10195085e-07
  8.19576170e-06 -5.81921969e-05 -2.38603229e-06 -5.00435425e-04 -4.30461749e-04
 -5.29115189e-06  4.21486302e-06 -5.32274512e-07  2.68693155e-05  3.92879292e-06
  7.99348893e-06 -1.04371066e-06 -1.66054173e-04 -4.28862536e-05  6.04101107e-05
 -7.55402834e-06 -9.72771815e-07 -1.78716738e-07  2.35375822e-07  3.27300460e-06
  1.09819921e-06  3.86279703e-01  3.30384931e-01  6.87740703e-04  8.59589146e-04
 -1.11343728e-04  3.98531883e-03 -2.56694968e-04 -2.70230339e-04  8.42398427e-05
 -6.36310664e-04  7.25059969e-05 -1.89881060e-05 -1.43582198e-04 -3.93004784e-05
  5.03928347e-05 -2.94368318e-05 -4.91208691e-07 -1.79244704e-05  3.93550423e-01
  3.36603682e-01  6.98579193e-04  8.79596974e-04 -9.47105968e-05  4.05930918e-03
 -2.60290491e-04 -2.88481787e-04 -1.91570799e-05 -6.42573574e-04  7.32001898e-05
  1.62717916e-05  1.45752477e-04 -4.87672526e-05 -4.51758304e-05  1.04439444e-05
 -4.99893817e-06 -2.99285095e-05 -7.47844004e-05 -6.66118372e-05  1.22467829e-05
  1.52961140e-05 -1.90241152e-06  2.26897537e-05 -3.59497171e-05 -3.58686542e-05
  4.35620284e-06 -4.86729886e-05  7.45718585e-05  1.11584404e-04 -1.39061161e-05
 -2.91578034e-06  2.07362422e-07  2.22626772e-07  6.35786150e-06 -1.25640974e-06
  4.03100144e-07 -5.01157582e-07  2.34581149e-07 -4.82533469e-06  5.95553979e-07
  2.10479559e-05  1.14481966e-05  1.91230279e-05 -2.44713494e-06 -1.13923728e-04
 -5.56394542e-05  2.60098839e-05 -3.24171842e-06 -1.96568540e-06 -1.49169388e-06
  3.07643130e-07  5.08171873e-06  1.26680630e-05  1.46949746e-06  3.08163397e-06
 -9.16457767e-06  2.23360780e-06 -3.57478751e-06  4.08852542e-07 -7.10549798e-07
  1.88687707e-05 -1.87791962e-05 -2.00070425e-06  3.54656597e-06 -7.82780856e-06
 -7.09360507e-07  1.89067784e-05 -1.97145272e-05 -2.15162096e-06  5.18716232e-06
  6.57043837e-06  1.29481798e-04  7.70274742e-05  2.04458809e-05 -2.90802430e-05
  1.43558383e-05  5.95376921e-05  1.31926090e-04  7.73499113e-05  2.15883323e-05
 -2.90780117e-05 -1.18542445e-07 -6.21607443e-05  3.11887012e-06  7.05144428e-06
 -3.50481631e-06 -7.53022624e-05  7.03911353e-05  4.37835005e-04  9.85496481e-06
 -4.25574008e-06  5.22022552e-07  3.50619882e-05 -2.42247055e-05  2.94372501e-06
 -3.72804610e-05  5.67962364e-05 -6.84585628e-06 -2.21707877e-04  7.27254819e-06
 -1.14082119e-06 -1.01331839e-04  7.89389340e-05 -9.44114539e-06 -3.76772368e-05
  8.31689765e-06 -1.22233792e-06  5.58648569e-05 -6.81231643e-05  5.51446950e-01
  4.71648596e-01 -9.84959080e-05 -1.50851739e-03  1.80757676e-04  5.70133601e-03
  9.56092180e-05  5.14391698e-04 -6.15541579e-05 -8.39171659e-04  2.60931100e-05
 -3.39105056e-05  4.07883975e-06  9.41865285e-05  4.49142710e-06  1.09639135e-05
 -7.25076656e-05 -3.98199205e-05  3.55717745e-04  3.01810681e-04  4.95515310e-06
 -4.31934986e-06 -2.27218194e-06  3.01283656e-05 -7.43649525e-06  1.24977608e-06
  1.75274937e-06 -1.16220802e-04  6.03731720e-05 -6.96948064e-05 -5.39199810e-05
  2.67225608e-06  3.91707422e-06 -3.64582158e-06  4.58360573e-06  6.84282223e-06
  3.55880686e-04  3.01950551e-04  4.95126850e-06 -3.65570013e-06  3.24933924e-06
  3.01250228e-05 -7.42840068e-06  7.98169086e-07 -2.03306472e-06 -1.16178141e-04
  6.02497026e-05 -5.48930149e-05  6.90624929e-05  7.54204912e-07 -5.42426108e-06
  5.37150902e-06  3.48772912e-06  5.72226346e-06 -5.02319943e-05 -4.60146405e-05
  7.71577840e-06 -2.25768404e-06  2.76242885e-07  2.68172707e-05 -1.30586018e-05
  2.47525190e-06 -3.00062933e-07 -6.54470437e-05  4.34661755e-05 -2.55609454e-05
  3.09100000e-06 -8.36574525e-07 -2.59351248e-07 -1.35294090e-07  3.24280497e-07
  2.17341874e-06 -2.46913764e-06 -2.54030470e-05  2.36795867e-05  2.78967020e-05
 -3.31792381e-06  7.90611371e-05  1.93573894e-04  3.27256118e-05 -3.67449069e-06
  3.33461530e-04  8.47495264e-05  1.37083644e-04 -1.63375095e-05 -3.27711829e-05
 -6.90376164e-06  3.00144150e-06  8.08826957e-05  5.90085866e-05  2.01219414e-05
 -7.05211715e-05 -3.95164303e-05  1.20817047e-05 -1.32640405e-05  1.60345534e-06
  7.43403636e-06 -6.12369425e-05 -3.62698861e-07 -1.91011491e-05 -1.80149290e-05
 -4.41946327e-06  7.42875353e-06 -6.12250082e-05 -3.40306250e-07 -1.91009480e-05
 -1.64610894e-05  8.51257008e-06  5.29908402e-06 -2.44880298e-05 -1.22361409e-05
  8.70210902e-07  3.98106663e-06 -2.99678920e-06  5.30404748e-06 -2.44755190e-05
 -1.24569471e-05  8.48127891e-07  4.56430403e-06  2.00470355e-06  5.32353218e-06
  1.02733279e-05  5.69782845e-06 -1.50530196e-04  2.17226479e-04  2.62486113e-04
 -9.43084678e-06 -6.77315152e-06  8.03349046e-07 -6.23305276e-05 -4.01099395e-05
  4.75424553e-06  8.62618565e-05  4.97154380e-05 -5.88948554e-06  2.16639814e-04
  1.74310663e-04 -2.06842677e-05  2.46313636e-04  1.27831053e-04 -1.51074173e-05
 -7.47976345e-05 -1.38693322e-05 -9.37289985e-06  5.16228273e-05  1.17041906e-04
  5.19688493e-05  4.39726611e-05 -8.03478571e-06 -6.82973560e-07  7.64131593e-08
  4.93007618e-06  1.43225276e-05  4.14266712e-06 -4.91083978e-07 -3.26041505e-05
 -8.44033646e-05 -2.99681587e-05  3.52799620e-06 -1.72310401e-06  8.52485669e-08
 -5.78069503e-07 -1.75689251e-06 -6.90065828e-07  5.45338339e-05  4.71833231e-05
 -7.17035871e-06 -9.00161793e-06 -4.33012996e-06 -6.53478531e-07  1.37109930e-05
  1.57287080e-05  6.02003458e-06  2.83622205e-06 -7.70985774e-05 -4.89899658e-05
  1.90033302e-05  1.77766976e-06  1.55484806e-06  7.96682103e-07 -2.21718103e-06
 -4.88576070e-06  5.45350859e-05  4.71834390e-05 -7.18866245e-06 -7.71913723e-06
  6.32234524e-06 -6.39408645e-07  1.37435486e-05  1.38516872e-05 -9.54401067e-06
  2.73511367e-06 -7.71283540e-05 -5.21588390e-05 -7.07565947e-06  2.04213324e-06
 -3.63735784e-07 -5.32283302e-07 -2.04969347e-06 -5.12593034e-06  5.51488696e-01
  4.71687331e-01 -1.37604590e-03 -9.64888217e-04  1.14446087e-04  5.40724332e-03
  4.33962475e-04  3.02543859e-04 -3.58809039e-05 -5.46159657e-04 -5.96033883e-05
 -4.15974638e-05  4.92500876e-06 -4.77489063e-06  2.47207818e-08 -1.35961267e-06
 -2.75508375e-06 -5.60346507e-08 -4.73223350e-07  1.42542225e-06  5.49155021e-06
  3.91480627e-06 -4.61351377e-07 -1.71771725e-05 -2.64831753e-05 -2.04672773e-05
  2.41533261e-06 -8.50406517e-06  7.52721378e-05 -3.87535957e-05  4.71724647e-06
  5.14942080e-06 -2.23927305e-08  1.04766260e-06 -2.85531003e-07  7.31100875e-08
 -3.87300504e-06  3.32251831e-05  1.95874837e-05  9.30122405e-07 -3.54676700e-06
  4.25052458e-07  3.49067070e-06 -2.90777636e-05  5.39114825e-05 -2.72109806e-06
  3.76361004e-07  6.45711874e-06  3.48865296e-06 -2.90700855e-05  5.38403047e-05
 -2.71369309e-06 -1.16148722e-06 -6.37196504e-06  2.89344232e-06  3.13485056e-05
 -3.68045927e-05 -7.37680564e-06 -9.02108030e-06 -1.33322710e-06  2.88364721e-06
  3.14533374e-05 -3.67717126e-05 -7.36677315e-06 -8.47464403e-06  3.37333619e-06
 -4.42497722e-07 -6.19285396e-07 -2.77353624e-06  2.11576883e-05 -5.59388404e-05
 -3.81838890e-05 -6.37803611e-07  1.81100845e-06 -2.17875178e-07 -8.39334614e-06
  8.06692887e-07 -1.05832907e-07  2.69366532e-05 -1.06515534e-06  1.53890360e-07
  1.96263488e-05 -3.06439421e-05  3.73036075e-06  3.25152230e-05 -6.74508367e-06
  8.91262530e-07  7.48632009e-06 -5.20848462e-07 -5.64900335e-07 -1.76019300e-05
  4.01355163e-06 -6.64140169e-05 -1.21379282e-04 -6.97633840e-05 -4.15196126e-05
  4.89339125e-06  2.55607739e-04 -5.01546444e-04 -2.48379967e-04  2.91727081e-05
  5.63487689e-04 -1.75210764e-04 -1.59644796e-04  1.89255481e-05 -1.24461163e-04
 -2.08345962e-05 -1.22365498e-05  1.13191043e-04  1.77080873e-04  3.47226859e-07
  3.93208269e-07  1.22440078e-06  1.98697758e-08  3.74963141e-07  3.11479168e-06
  9.90581991e-07  9.90872563e-08  1.03922627e-06 -3.65051318e-05 -1.07700485e-05
 -5.35213452e-06  1.86024838e-05 -2.37392412e-06  3.16608447e-06  1.24959836e-06
 -2.54650183e-06 -1.09856969e-06  3.46541458e-07  3.90240198e-07  1.22838596e-06
 -6.86497496e-08 -3.63194575e-07  3.13519354e-06  9.88855330e-07 -1.48748881e-07
 -1.04379537e-06 -3.65274524e-05 -1.06517895e-05 -9.66425868e-06 -1.67917049e-05
 -1.57153790e-06 -2.80518410e-06 -2.65329515e-06 -2.04822986e-06 -1.81360568e-06
 -3.44833565e-07  3.46479813e-08 -3.19735008e-06  1.52521965e-06 -1.86893352e-07
 -6.30423746e-06  5.95513902e-07 -2.07602914e-06  2.53225908e-07  2.54488343e-05
 -3.01575466e-05 -1.84178308e-07 -2.01348952e-08 -1.81537849e-06 -2.28960204e-07
 -1.28573060e-07  2.07007111e-06  1.95375265e-06  5.63468490e-01  4.66568454e-01
  1.22402413e-03  5.31265933e-04 -6.20796921e-05  4.03934208e-03 -9.13417056e-04
 -4.14125721e-04  4.84128356e-05 -1.35166332e-03  1.39148553e-04  4.81436258e-05
 -5.57876035e-06  1.79884688e-04  3.12333983e-05  1.11941860e-05 -2.17322331e-04
 -2.65938156e-04  3.30320593e-04  7.63603054e-05  2.77048219e-04  2.36356945e-05
  4.77036953e-05 -5.68718237e-06  3.34986840e-04  6.57580425e-05  2.87022607e-04
  4.02108960e-05  7.63615489e-06  2.74544201e-05  3.34991566e-04  6.56420300e-05
  2.87083184e-04  4.02561075e-05  9.13544297e-07 -2.84302579e-05 -6.08755649e-06