24
 energy: -35.288193237128 gnorm: 0.000484942944 xtb: 6.5.0 (97a52f5)
C           -0.67355456661552       -0.34034078229008        0.25415565103949
N            0.32062153860444       -0.36579174223510        1.25636747363604
C            1.58882921996860        0.13379373253225        1.17012863309317
C            2.19221209890058        0.45095425239793       -0.19487501636989
C           -0.12221698246650       -0.69561099434280        2.60370723167513
O            2.26475414078630        0.26958022687020        2.17401293022851
C           -1.92176919044928        0.20474963862500        0.55865635864239
C           -2.69218104598251       -0.21335430894562       -1.67537963363428
C           -2.91926268441975        0.26293383039096       -0.39574095856023
C           -1.46000141297233       -0.76125388939431       -1.98402906150295
C           -0.45717755859868       -0.82423868481132       -1.03287448080728
H            0.69833226277056       -1.19725537336355        3.11617449538528
H           -0.98326341030593       -1.35731831847640        2.54687955164485
H           -0.37585828605025        0.19870706004953        3.17810808059476
N            3.57426318255589        0.88677541986046       -0.10710440480581
H            1.60602443000776        1.21412919180421       -0.71742628289066
H            2.18870513083924       -0.43930683524038       -0.82660447207021
H           -2.11013486656656        0.59737927516052        1.54560076461671
H           -3.87679918825116        0.69059243553553       -0.13787952957597
H           -1.27352216390749       -1.15025896152659       -2.97390843324061
H            0.47284742459546       -1.30344671637246       -1.28724308869956
H            3.62921340464627        1.65786457614538        0.55705224246246
H           -3.46980196006639       -0.16385571484571       -2.42200713705304
H            4.10972647297751        0.15156970247204        0.35142608619151
