      -----------------------------------------------------------      
     |                   =====================                   |     
     |                           x T B                           |     
     |                   =====================                   |     
     |                         S. Grimme                         |     
     |          Mulliken Center for Theoretical Chemistry        |     
     |                    University of Bonn                     |     
      -----------------------------------------------------------      

   * xtb version 6.5.0 (97a52f5) compiled by 'conda@d2599ee0d4f4' on 2022-05-15

   xtb is free software: you can redistribute it and/or modify it under
   the terms of the GNU Lesser General Public License as published by
   the Free Software Foundation, either version 3 of the License, or
   (at your option) any later version.
   
   xtb is distributed in the hope that it will be useful,
   but WITHOUT ANY WARRANTY; without even the implied warranty of
   MERCHANTABILITY or FITNESS FOR A PARTICULAR PURPOSE.  See the
   GNU Lesser General Public License for more details.
   
   Cite this work as:
   * C. Bannwarth, E. Caldeweyher, S. Ehlert, A. Hansen, P. Pracht,
     J. Seibert, S. Spicher, S. Grimme, WIREs Comput. Mol. Sci., 2020, 11,
     e01493. DOI: 10.1002/wcms.1493
   
   for GFN2-xTB:
   * C. Bannwarth, S. Ehlert and S. Grimme., J. Chem. Theory Comput., 2019,
     15, 1652-1671. DOI: 10.1021/acs.jctc.8b01176
   for GFN1-xTB:
   * S. Grimme, C. Bannwarth, P. Shushkov, J. Chem. Theory Comput., 2017,
     13, 1989-2009. DOI: 10.1021/acs.jctc.7b00118
   for GFN0-xTB:
   * P. Pracht, E. Caldeweyher, S. Ehlert, S. Grimme, ChemRxiv, 2019, preprint.
     DOI: 10.26434/chemrxiv.8326202.v1
   for GFN-FF:
   * S. Spicher and S. Grimme, Angew. Chem. Int. Ed., 2020, 59, 15665-15673.
     DOI: 10.1002/anie.202004239
   
   for ALPB and GBSA implicit solvation:
   * S. Ehlert, M. Stahn, S. Spicher, S. Grimme, J. Chem. Theory Comput.,
     2021, 17, 4250-4261. DOI: 10.1021/acs.jctc.1c00471
   
   for DFT-D4:
   * E. Caldeweyher, C. Bannwarth and S. Grimme, J. Chem. Phys., 2017,
     147, 034112. DOI: 10.1063/1.4993215
   * E. Caldeweyher, S. Ehlert, A. Hansen, H. Neugebauer, S. Spicher,
     C. Bannwarth and S. Grimme, J. Chem. Phys., 2019, 150, 154122.
     DOI: 10.1063/1.5090222
   * E. Caldeweyher, J.-M. Mewes, S. Ehlert and S. Grimme, Phys. Chem. Chem. Phys.
     2020, 22, 8499-8512. DOI: 10.1039/D0CP00502A
   
   for sTDA-xTB:
   * S. Grimme and C. Bannwarth, J. Chem. Phys., 2016, 145, 054103.
     DOI: 10.1063/1.4959605
   
   in the mass-spec context:
   * V. Asgeirsson, C. Bauer and S. Grimme, Chem. Sci., 2017, 8, 4879.
     DOI: 10.1039/c7sc00601b
   * J. Koopman and S. Grimme, ACS Omega 2019, 4, 12, 15120-15133.
     DOI: 10.1021/acsomega.9b02011
   
   for metadynamics refer to:
   * S. Grimme, J. Chem. Theory Comput., 2019, 155, 2847-2862
     DOI: 10.1021/acs.jctc.9b00143
   
   for SPH calculations refer to:
   * S. Spicher and S. Grimme, J. Chem. Theory Comput., 2021, 17, 1701-1714
     DOI: 10.1021/acs.jctc.0c01306
   
   with help from (in alphabetical order)
   P. Atkinson, C. Bannwarth, F. Bohle, G. Brandenburg, E. Caldeweyher
   M. Checinski, S. Dohm, S. Ehlert, S. Ehrlich, I. Gerasimov, C. Hölzer
   A. Katbashev, J. Koopman, C. Lavigne, S. Lehtola, F. März, M. Müller,
   F. Musil, H. Neugebauer, J. Pisarek, C. Plett, P. Pracht, F. Pultar,
   J. Seibert, P. Shushkov, S. Spicher, M. Stahn, M. Steiner, T. Strunk,
   J. Stückrath, T. Rose, and J. Unsleber
   
 * started run on 2023/11/18 at 08:25:11.338     

           -------------------------------------------------
          |                Calculation Setup                |
           -------------------------------------------------

          program call               : /home/liuchw/anaconda3/envs/xtbenv/bin/xtb --gfn 2 --chrg 0 --uhf 0 3_25_Index_0_GrowFragment_3-opt-2-3-175_preQMOPTprefit_xyzformat.xyz --opt --input xtb-opt-2-3-175_constr.txt
          hostname                   : node165.bme.utexas.edu
          coordinate file            : 3_25_Index_0_GrowFragment_3-opt-2-3-175_preQMOPTprefit_xyzformat.xyz
          omp threads                :                    64

   ID    Z sym.   atoms
    1    6 C      1, 3-5, 7-11
    2    7 N      2, 15
    3    8 O      6
    4    1 H      12-14, 16-24
constraining angle 1 2 3 4 to  174.8700777°, actual value:  174.8700777°
constraining angle 11 1 2 3 to   53.0631948°, actual value:   53.0631948°
constraining angle 2 3 4 15 to  184.0552362°, actual value: -175.9447638°
constraining angle 1 2 5 13 to   29.9710835°, actual value:   29.9710835°
constraining angle 16 4 15 22 to   71.0223386°, actual value:   71.0223386°
constraining angle 17 4 15 22 to  186.0302671°, actual value: -173.9697329°
constraining angle 16 4 15 24 to  181.9775447°, actual value: -178.0224553°
constraining angle 17 4 15 24 to  296.9854732°, actual value:  -63.0145268°

           -------------------------------------------------
          |                 G F N 2 - x T B                 |
           -------------------------------------------------

        Reference                      10.1021/acs.jctc.8b01176
      * Hamiltonian:
        H0-scaling (s, p, d)           1.850000    2.230000    2.230000
        zeta-weighting                 0.500000
      * Dispersion:
        s8                             2.700000
        a1                             0.520000
        a2                             5.000000
        s9                             5.000000
      * Repulsion:
        kExp                           1.500000    1.000000
        rExp                           1.000000
      * Coulomb:
        alpha                          2.000000
        third order                    shell-resolved
        anisotropic                    true
        a3                             3.000000
        a5                             4.000000
        cn-shift                       1.200000
        cn-exp                         4.000000
        max-rad                        5.000000


          ...................................................
          :                      SETUP                      :
          :.................................................:
          :  # basis functions                  60          :
          :  # atomic orbitals                  60          :
          :  # shells                           36          :
          :  # electrons                        64          :
          :  max. iterations                   250          :
          :  Hamiltonian                  GFN2-xTB          :
          :  restarted?                      false          :
          :  GBSA solvation                  false          :
          :  PC potential                    false          :
          :  electronic temp.          300.0000000     K    :
          :  accuracy                    1.0000000          :
          :  -> integral cutoff          0.2500000E+02      :
          :  -> integral neglect         0.1000000E-07      :
          :  -> SCF convergence          0.1000000E-05 Eh   :
          :  -> wf. convergence          0.1000000E-03 e    :
          :  Broyden damping             0.4000000          :
          ...................................................

 iter      E             dE          RMSdq      gap      omega  full diag
   1    -35.6477518 -0.356478E+02  0.440E+00    2.85       0.0  T
   2    -35.6945948 -0.468430E-01  0.250E+00    2.83       1.0  T
   3    -35.6914426  0.315217E-02  0.128E+00    3.04       1.0  T
   4    -35.7012705 -0.982786E-02  0.284E-01    2.78       1.0  T
   5    -35.7023823 -0.111181E-02  0.102E-01    2.84       1.0  T
   6    -35.7024889 -0.106575E-03  0.465E-02    2.84       1.0  T
   7    -35.7024986 -0.973803E-05  0.218E-02    2.83       1.0  T
   8    -35.7025013 -0.268320E-05  0.633E-03    2.83       3.2  T
   9    -35.7025013 -0.518370E-07  0.274E-03    2.83       7.5  T
  10    -35.7025015 -0.127928E-06  0.123E-03    2.83      16.7  T
  11    -35.7025015 -0.735677E-08  0.456E-04    2.83      44.8  T
  12    -35.7025015 -0.807823E-09  0.109E-04    2.83     186.5  T

   *** convergence criteria satisfied after 12 iterations ***

         #    Occupation            Energy/Eh            Energy/eV
      -------------------------------------------------------------
         1        2.0000           -0.7002472             -19.0547
       ...           ...                  ...                  ...
        26        2.0000           -0.4397669             -11.9667
        27        2.0000           -0.4319887             -11.7550
        28        2.0000           -0.4148360             -11.2883
        29        2.0000           -0.4061429             -11.0517
        30        2.0000           -0.4049984             -11.0206
        31        2.0000           -0.3792815             -10.3208
        32        2.0000           -0.3716743             -10.1138 (HOMO)
        33                         -0.2676789              -7.2839 (LUMO)
        34                         -0.2336879              -6.3590
        35                         -0.2313234              -6.2946
        36                         -0.1112786              -3.0280
        37                         -0.0481145              -1.3093
       ...                                ...                  ...
        60                          0.6007281              16.3466
      -------------------------------------------------------------
                  HL-Gap            0.1039954 Eh            2.8299 eV
             Fermi-level           -0.3196766 Eh           -8.6988 eV

 SCC (total)                   0 d,  0 h,  0 min,  1.576 sec
 SCC setup                      ...        0 min,  0.006 sec (  0.394%)
 Dispersion                     ...        0 min,  0.029 sec (  1.835%)
 classical contributions        ...        0 min,  0.024 sec (  1.504%)
 integral evaluation            ...        0 min,  0.036 sec (  2.255%)
 iterations                     ...        0 min,  1.331 sec ( 84.464%)
 molecular gradient             ...        0 min,  0.150 sec (  9.521%)
 printout                       ...        0 min,  0.000 sec (  0.010%)

         :::::::::::::::::::::::::::::::::::::::::::::::::::::
         ::                     SUMMARY                     ::
         :::::::::::::::::::::::::::::::::::::::::::::::::::::
         :: total energy             -35.239047145047 Eh    ::
         :: gradient norm              0.122299098785 Eh/a0 ::
         :: HOMO-LUMO gap              2.829859721793 eV    ::
         ::.................................................::
         :: SCC energy               -35.702501472016 Eh    ::
         :: -> isotropic ES            0.045067233025 Eh    ::
         :: -> anisotropic ES          0.003961412127 Eh    ::
         :: -> anisotropic XC          0.021432306260 Eh    ::
         :: -> dispersion             -0.020262505965 Eh    ::
         :: repulsion energy           0.463400640019 Eh    ::
         :: add. restraining           0.000000000000 Eh    ::
         :: total charge              -0.000000000000 e     ::
         :::::::::::::::::::::::::::::::::::::::::::::::::::::

      ----------------------------------------------------------- 
     |                   =====================                   |
     |                        A N C O P T                        |
     |                   =====================                   |
     |               Approximate Normal Coordinate               |
     |                Rational Function Optimizer                |
      ----------------------------------------------------------- 

          ...................................................
          :                      SETUP                      :
          :.................................................:
          :   optimization level            normal          :
          :   max. optcycles                   200          :
          :   ANC micro-cycles                  20          :
          :   degrees of freedom                66          :
          :.................................................:
          :   RF solver                   davidson          :
          :   write xtbopt.log                true          :
          :   linear?                        false          :
          :   energy convergence         0.5000000E-05 Eh   :
          :   grad. convergence          0.1000000E-02 Eh/α :
          :   maximium RF displ.         1.0000000          :
          :   Hlow (freq-cutoff)         0.1000000E-01      :
          :   Hmax (freq-cutoff)         5.0000000          :
          :   S6 in model hess.         20.0000000          :
          ...................................................

generating ANC from model Hessian ...
Using Lindh-Hessian (1995)
 Shifting diagonal of input Hessian by    8.3479127045556975E-003
 Lowest  eigenvalues of input Hessian
    0.000000    0.000000    0.000000    0.000000    0.000000    0.000000
    0.010000    0.011434    0.012779    0.016155    0.016256    0.019141
    0.022223    0.025657    0.027290    0.029883    0.036089    0.036706
 Highest eigenvalues
    2.936951    5.940383    7.029974    9.275795   11.344567   13.051543


........................................................................
.............................. CYCLE    1 ..............................
........................................................................
   1    -35.7025015 -0.357025E+02  0.580E-05    2.83       0.0  T
   2    -35.7025015 -0.121361E-10  0.358E-05    2.83     570.2  T
   3    -35.7025015 -0.649436E-11  0.226E-05    2.83     903.6  T
     SCC iter.                  ...        0 min,  0.323 sec
     gradient                   ...        0 min,  0.125 sec
 * total energy  :   -35.2390471 Eh     change       -0.1132463E-09 Eh
   gradient norm :     0.1222993 Eh/α   predicted     0.0000000E+00 (-100.00%)
   displ. norm   :     0.5440688 α      lambda       -0.3759590E-01
   maximum displ.:     0.3080988 α      in ANC's #14, #13, #18, ...

........................................................................
.............................. CYCLE    2 ..............................
........................................................................
   1    -35.7502819 -0.357503E+02  0.508E-01    3.29       0.0  T
   2    -35.7518351 -0.155316E-02  0.318E-01    3.36       1.0  T
   3    -35.7520337 -0.198688E-03  0.172E-01    3.37       1.0  T
   4    -35.7520232  0.105192E-04  0.601E-02    3.36       1.0  T
   5    -35.7521085 -0.852937E-04  0.907E-03    3.37       2.3  T
   6    -35.7521089 -0.363632E-06  0.388E-03    3.37       5.3  T
   7    -35.7521090 -0.735578E-07  0.186E-03    3.36      11.0  T
   8    -35.7521090 -0.213101E-07  0.608E-04    3.36      33.5  T
   9    -35.7521090 -0.149392E-08  0.250E-04    3.36      81.6  T
     SCC iter.                  ...        0 min,  1.000 sec
     gradient                   ...        0 min,  0.134 sec
 * total energy  :   -35.2629485 Eh     change       -0.2390140E-01 Eh
   gradient norm :     0.0924414 Eh/α   predicted    -0.2436237E-01 (   1.93%)
   displ. norm   :     0.4171588 α      lambda       -0.1333055E-01
   maximum displ.:     0.2343353 α      in ANC's #9, #13, #14, ...

........................................................................
.............................. CYCLE    3 ..............................
........................................................................
   1    -35.7833191 -0.357833E+02  0.272E-01    3.58       0.0  T
   2    -35.7837145 -0.395462E-03  0.173E-01    3.53       1.0  T
   3    -35.7837757 -0.611452E-04  0.905E-02    3.54       1.0  T
   4    -35.7837886 -0.129140E-04  0.283E-02    3.53       1.0  T
   5    -35.7838050 -0.163938E-04  0.406E-03    3.53       5.0  T
   6    -35.7838051 -0.108245E-06  0.226E-03    3.53       9.0  T
   7    -35.7838051 -0.259984E-07  0.810E-04    3.53      25.2  T
   8    -35.7838051 -0.213590E-08  0.298E-04    3.53      68.5  T
     SCC iter.                  ...        0 min,  0.891 sec
     gradient                   ...        0 min,  0.146 sec
 * total energy  :   -35.2722701 Eh     change       -0.9321564E-02 Eh
   gradient norm :     0.1034642 Eh/α   predicted    -0.7825185E-02 ( -16.05%)
   displ. norm   :     0.4013772 α      lambda       -0.1108872E-01
   maximum displ.:     0.2322813 α      in ANC's #9, #13, #14, ...

........................................................................
.............................. CYCLE    4 ..............................
........................................................................
   1    -35.8122702 -0.358123E+02  0.230E-01    3.69       0.0  T
   2    -35.8124561 -0.185910E-03  0.148E-01    3.65       1.0  T
   3    -35.8124659 -0.978268E-05  0.735E-02    3.65       1.0  T
   4    -35.8125024 -0.365414E-04  0.139E-02    3.65       1.5  T
   5    -35.8125045 -0.212277E-05  0.602E-03    3.65       3.4  T
   6    -35.8125051 -0.558854E-06  0.242E-03    3.65       8.4  T
   7    -35.8125051 -0.207101E-07  0.107E-03    3.65      19.1  T
   8    -35.8125051 -0.216471E-08  0.340E-04    3.65      60.0  T
   9    -35.8125051 -0.331163E-09  0.115E-04    3.65     177.0  T
     SCC iter.                  ...        0 min,  0.927 sec
     gradient                   ...        0 min,  0.139 sec
 * total energy  :   -35.2782876 Eh     change       -0.6017495E-02 Eh
   gradient norm :     0.1491238 Eh/α   predicted    -0.6437605E-02 (   6.98%)
   displ. norm   :     0.4161487 α      lambda       -0.8420046E-02
   maximum displ.:     0.2102773 α      in ANC's #13, #5, #12, ...

........................................................................
.............................. CYCLE    5 ..............................
........................................................................
   1    -35.8103397 -0.358103E+02  0.295E-01    3.65       0.0  T
   2    -35.8105389 -0.199221E-03  0.169E-01    3.61       1.0  T
   3    -35.8105270  0.119491E-04  0.703E-02    3.62       1.0  T
   4    -35.8105540 -0.270757E-04  0.194E-02    3.61       1.1  T
   5    -35.8105638 -0.981218E-05  0.433E-03    3.61       4.7  T
   6    -35.8105639 -0.560754E-07  0.177E-03    3.61      11.5  T
   7    -35.8105639 -0.126733E-07  0.821E-04    3.61      24.9  T
   8    -35.8105639 -0.306118E-08  0.345E-04    3.61      59.1  T
     SCC iter.                  ...        0 min,  0.808 sec
     gradient                   ...        0 min,  0.140 sec
 * total energy  :   -35.2831178 Eh     change       -0.4830221E-02 Eh
   gradient norm :     0.1078174 Eh/α   predicted    -0.4939135E-02 (   2.25%)
   displ. norm   :     0.2873271 α      lambda       -0.4176029E-02
   maximum displ.:     0.1251713 α      in ANC's #5, #2, #3, ...

........................................................................
.............................. CYCLE    6 ..............................
........................................................................
   1    -35.8065433 -0.358065E+02  0.181E-01    3.61       0.0  T
   2    -35.8066169 -0.736236E-04  0.110E-01    3.63       1.0  T
   3    -35.8066138  0.310650E-05  0.396E-02    3.62       1.0  T
   4    -35.8066221 -0.827127E-05  0.104E-02    3.63       2.0  T
   5    -35.8066247 -0.261170E-05  0.292E-03    3.63       7.0  T
   6    -35.8066247 -0.399379E-07  0.120E-03    3.62      17.0  T
   7    -35.8066248 -0.683729E-08  0.549E-04    3.62      37.1  T
   8    -35.8066248 -0.148747E-08  0.214E-04    3.62      95.3  T
     SCC iter.                  ...        0 min,  0.776 sec
     gradient                   ...        0 min,  0.138 sec
 * total energy  :   -35.2858141 Eh     change       -0.2696291E-02 Eh
   gradient norm :     0.0814031 Eh/α   predicted    -0.2260396E-02 ( -16.17%)
   displ. norm   :     0.3569203 α      lambda       -0.2903759E-02
   maximum displ.:     0.1614910 α      in ANC's #2, #3, #12, ...

........................................................................
.............................. CYCLE    7 ..............................
........................................................................
   1    -35.8032466 -0.358032E+02  0.212E-01    3.62       0.0  T
   2    -35.8032628 -0.161853E-04  0.126E-01    3.63       1.0  T
   3    -35.8032533  0.943406E-05  0.245E-02    3.63       1.0  T
   4    -35.8032663 -0.129972E-04  0.615E-03    3.63       3.3  T
   5    -35.8032669 -0.518304E-06  0.292E-03    3.63       7.0  T
   6    -35.8032669 -0.273085E-07  0.108E-03    3.63      19.0  T
   7    -35.8032669 -0.111693E-07  0.455E-04    3.63      44.9  T
   8    -35.8032669 -0.444501E-09  0.137E-04    3.63     148.7  T
     SCC iter.                  ...        0 min,  0.839 sec
     gradient                   ...        0 min,  0.138 sec
 * total energy  :   -35.2875556 Eh     change       -0.1741484E-02 Eh
   gradient norm :     0.0304446 Eh/α   predicted    -0.1636841E-02 (  -6.01%)
   displ. norm   :     0.2880820 α      lambda       -0.1891300E-02
   maximum displ.:     0.1721935 α      in ANC's #2, #3, #4, ...

........................................................................
.............................. CYCLE    8 ..............................
........................................................................
   1    -35.8147095 -0.358147E+02  0.175E-01    3.65       0.0  T
   2    -35.8151498 -0.440286E-03  0.108E-01    3.69       1.0  T
   3    -35.8151794 -0.296154E-04  0.617E-02    3.69       1.0  T
   4    -35.8151760  0.342285E-05  0.183E-02    3.70       1.1  T
   5    -35.8151813 -0.529764E-05  0.577E-03    3.70       3.5  T
   6    -35.8151819 -0.550901E-06  0.206E-03    3.70       9.9  T
   7    -35.8151819 -0.283491E-07  0.952E-04    3.70      21.4  T
   8    -35.8151819 -0.257236E-08  0.401E-04    3.70      50.9  T
     SCC iter.                  ...        0 min,  0.807 sec
     gradient                   ...        0 min,  0.137 sec
 * total energy  :   -35.2871519 Eh     change        0.4036808E-03 Eh
   gradient norm :     0.0850372 Eh/α   predicted    -0.1024137E-02 (-353.70%)
   displ. norm   :     0.2114546 α      lambda       -0.3290595E-02
   maximum displ.:     0.1063271 α      in ANC's #2, #4, #13, ...

........................................................................
.............................. CYCLE    9 ..............................
........................................................................
   1    -35.8095437 -0.358095E+02  0.190E-01    3.69       0.0  T
   2    -35.8100390 -0.495241E-03  0.106E-01    3.67       1.0  T
   3    -35.8100814 -0.424612E-04  0.593E-02    3.67       1.0  T
   4    -35.8100758  0.559192E-05  0.214E-02    3.67       1.0  T
   5    -35.8100841 -0.822104E-05  0.524E-03    3.67       3.9  T
   6    -35.8100845 -0.434456E-06  0.175E-03    3.67      11.7  T
   7    -35.8100845 -0.238322E-07  0.805E-04    3.67      25.4  T
   8    -35.8100845 -0.219745E-08  0.374E-04    3.67      54.6  T
     SCC iter.                  ...        0 min,  0.873 sec
     gradient                   ...        0 min,  0.138 sec
 * total energy  :   -35.2886008 Eh     change       -0.1448922E-02 Eh
   gradient norm :     0.0481370 Eh/α   predicted    -0.1718874E-02 (  18.63%)
   displ. norm   :     0.0863226 α      lambda       -0.7308077E-03
   maximum displ.:     0.0520108 α      in ANC's #2, #8, #11, ...

........................................................................
.............................. CYCLE   10 ..............................
........................................................................
   1    -35.8115294 -0.358115E+02  0.421E-02    3.66       0.0  T
   2    -35.8115322 -0.277368E-05  0.245E-02    3.66       1.0  T
   3    -35.8115316  0.580561E-06  0.870E-03    3.66       2.3  T
   4    -35.8115325 -0.936259E-06  0.204E-03    3.66      10.0  T
   5    -35.8115326 -0.356399E-07  0.737E-04    3.66      27.7  T
   6    -35.8115326 -0.739389E-08  0.303E-04    3.66      67.3  T
     SCC iter.                  ...        0 min,  0.641 sec
     gradient                   ...        0 min,  0.136 sec
 * total energy  :   -35.2888688 Eh     change       -0.2679615E-03 Eh
   gradient norm :     0.0452997 Eh/α   predicted    -0.3681303E-03 (  37.38%)
   displ. norm   :     0.1627526 α      lambda       -0.4340687E-03
   maximum displ.:     0.1165124 α      in ANC's #2, #3, #4, ...

........................................................................
.............................. CYCLE   11 ..............................
........................................................................
   1    -35.8116054 -0.358116E+02  0.609E-02    3.65       0.0  T
   2    -35.8116109 -0.545678E-05  0.356E-02    3.66       1.0  T
   3    -35.8116100  0.945573E-06  0.116E-02    3.66       1.8  T
   4    -35.8116115 -0.151137E-05  0.296E-03    3.66       6.9  T
   5    -35.8116116 -0.148964E-06  0.949E-04    3.66      21.5  T
   6    -35.8116116 -0.839650E-08  0.383E-04    3.66      53.3  T
     SCC iter.                  ...        0 min,  0.607 sec
     gradient                   ...        0 min,  0.136 sec
 * total energy  :   -35.2892005 Eh     change       -0.3317200E-03 Eh
   gradient norm :     0.0183913 Eh/α   predicted    -0.2227862E-03 ( -32.84%)
   displ. norm   :     0.3125478 α      lambda       -0.5823513E-03
   maximum displ.:     0.2325448 α      in ANC's #2, #3, #4, ...

........................................................................
.............................. CYCLE   12 ..............................
........................................................................
   1    -35.8127087 -0.358127E+02  0.104E-01    3.65       0.0  T
   2    -35.8127142 -0.547304E-05  0.607E-02    3.66       1.0  T
   3    -35.8127088  0.532805E-05  0.179E-02    3.67       1.1  T
   4    -35.8127156 -0.679986E-05  0.318E-03    3.67       6.4  T
   5    -35.8127157 -0.757030E-07  0.125E-03    3.67      16.3  T
   6    -35.8127157 -0.960097E-08  0.594E-04    3.67      34.4  T
   7    -35.8127157 -0.123213E-08  0.181E-04    3.67     112.5  T
     SCC iter.                  ...        0 min,  0.765 sec
     gradient                   ...        0 min,  0.147 sec
 * total energy  :   -35.2895822 Eh     change       -0.3817098E-03 Eh
   gradient norm :     0.0252934 Eh/α   predicted    -0.3196245E-03 ( -16.27%)
   displ. norm   :     0.3726091 α      lambda       -0.4365566E-03
   maximum displ.:     0.2550845 α      in ANC's #2, #3, #4, ...

........................................................................
.............................. CYCLE   13 ..............................
........................................................................
   1    -35.8098468 -0.358098E+02  0.130E-01    3.65       0.0  T
   2    -35.8098521 -0.526175E-05  0.759E-02    3.66       1.0  T
   3    -35.8098461  0.603239E-05  0.189E-02    3.67       1.1  T
   4    -35.8098538 -0.775269E-05  0.347E-03    3.67       5.9  T
   5    -35.8098539 -0.873096E-07  0.152E-03    3.67      13.4  T
   6    -35.8098539 -0.393710E-08  0.527E-04    3.67      38.7  T
   7    -35.8098539 -0.159665E-08  0.202E-04    3.67     100.8  T
     SCC iter.                  ...        0 min,  0.750 sec
     gradient                   ...        0 min,  0.147 sec
 * total energy  :   -35.2896964 Eh     change       -0.1141629E-03 Eh
   gradient norm :     0.0429263 Eh/α   predicted    -0.2485869E-03 ( 117.75%)
   displ. norm   :     0.1080007 α      lambda       -0.5446420E-03
   maximum displ.:     0.0599252 α      in ANC's #2, #3, #11, ...

........................................................................
.............................. CYCLE   14 ..............................
........................................................................
   1    -35.8123176 -0.358123E+02  0.556E-02    3.67       0.0  T
   2    -35.8123193 -0.170499E-05  0.328E-02    3.67       1.0  T
   3    -35.8123190  0.370535E-06  0.627E-03    3.67       3.3  T
   4    -35.8123195 -0.546560E-06  0.191E-03    3.67      10.7  T
   5    -35.8123196 -0.638110E-07  0.819E-04    3.67      24.9  T
   6    -35.8123196 -0.112595E-08  0.266E-04    3.67      76.6  T
     SCC iter.                  ...        0 min,  0.654 sec
     gradient                   ...        0 min,  0.143 sec
 * total energy  :   -35.2900272 Eh     change       -0.3308436E-03 Eh
   gradient norm :     0.0157189 Eh/α   predicted    -0.2754997E-03 ( -16.73%)
   displ. norm   :     0.1557970 α      lambda       -0.2058220E-03
   maximum displ.:     0.0972937 α      in ANC's #2, #3, #5, ...

........................................................................
.............................. CYCLE   15 ..............................
........................................................................
   1    -35.8138038 -0.358138E+02  0.605E-02    3.67       0.0  T
   2    -35.8138053 -0.152209E-05  0.351E-02    3.67       1.0  T
   3    -35.8138040  0.128088E-05  0.885E-03    3.67       2.3  T
   4    -35.8138058 -0.170513E-05  0.181E-03    3.67      11.3  T
   5    -35.8138058 -0.371196E-07  0.841E-04    3.67      24.3  T
   6    -35.8138058 -0.128221E-08  0.296E-04    3.67      69.0  T
     SCC iter.                  ...        0 min,  0.610 sec
     gradient                   ...        0 min,  0.149 sec
 * total energy  :   -35.2901573 Eh     change       -0.1301053E-03 Eh
   gradient norm :     0.0090049 Eh/α   predicted    -0.1054109E-03 ( -18.98%)
   displ. norm   :     0.2485247 α      lambda       -0.1639186E-03
   maximum displ.:     0.1679754 α      in ANC's #3, #2, #5, ...

........................................................................
.............................. CYCLE   16 ..............................
........................................................................
   1    -35.8118690 -0.358119E+02  0.877E-02    3.66       0.0  T
   2    -35.8118714 -0.237698E-05  0.506E-02    3.67       1.0  T
   3    -35.8118698  0.160006E-05  0.106E-02    3.67       1.9  T
   4    -35.8118720 -0.223172E-05  0.247E-03    3.67       8.3  T
   5    -35.8118721 -0.505294E-07  0.113E-03    3.67      18.1  T
   6    -35.8118721 -0.178241E-08  0.332E-04    3.67      61.5  T
   7    -35.8118721 -0.920892E-09  0.917E-05    3.67     222.7  T
     SCC iter.                  ...        0 min,  0.733 sec
     gradient                   ...        0 min,  0.138 sec
 * total energy  :   -35.2901998 Eh     change       -0.4247036E-04 Eh
   gradient norm :     0.0104902 Eh/α   predicted    -0.8702663E-04 ( 104.91%)
   displ. norm   :     0.0807636 α      lambda       -0.8281863E-04
   maximum displ.:     0.0611375 α      in ANC's #2, #4, #3, ...

........................................................................
.............................. CYCLE   17 ..............................
........................................................................
   1    -35.8139725 -0.358140E+02  0.303E-02    3.68       0.0  T
   2    -35.8139728 -0.363779E-06  0.176E-02    3.67       1.2  T
   3    -35.8139728  0.753360E-07  0.299E-03    3.67       6.8  T
   4    -35.8139729 -0.133417E-06  0.970E-04    3.67      21.0  T
   5    -35.8139729 -0.969644E-08  0.485E-04    3.67      42.1  T
     SCC iter.                  ...        0 min,  0.492 sec
     gradient                   ...        0 min,  0.156 sec
 * total energy  :   -35.2902420 Eh     change       -0.4215622E-04 Eh
   gradient norm :     0.0048294 Eh/α   predicted    -0.4168081E-04 (  -1.13%)
   displ. norm   :     0.0240769 α      lambda       -0.1502537E-04
   maximum displ.:     0.0131391 α      in ANC's #2, #1, #5, ...

........................................................................
.............................. CYCLE   18 ..............................
........................................................................
   1    -35.8136171 -0.358136E+02  0.101E-02    3.67       0.0  T
   2    -35.8136172 -0.145370E-06  0.596E-03    3.67       3.4  T
   3    -35.8136172  0.274945E-08  0.159E-03    3.67      12.8  T
   4    -35.8136172 -0.153301E-07  0.337E-04    3.67      60.5  T
   5    -35.8136172 -0.108301E-08  0.157E-04    3.67     130.0  T
     SCC iter.                  ...        0 min,  0.518 sec
     gradient                   ...        0 min,  0.134 sec
 * total energy  :   -35.2902519 Eh     change       -0.9895641E-05 Eh
   gradient norm :     0.0026547 Eh/α   predicted    -0.7519261E-05 ( -24.01%)
   displ. norm   :     0.0370451 α      lambda       -0.9835016E-05
   maximum displ.:     0.0229616 α      in ANC's #1, #3, #5, ...

........................................................................
.............................. CYCLE   19 ..............................
........................................................................
   1    -35.8133424 -0.358133E+02  0.108E-02    3.67       0.0  T
   2    -35.8133425 -0.127354E-06  0.627E-03    3.67       3.3  T
   3    -35.8133425  0.135176E-07  0.171E-03    3.67      11.9  T
   4    -35.8133425 -0.280811E-07  0.538E-04    3.67      37.9  T
   5    -35.8133425 -0.275879E-08  0.203E-04    3.67     100.6  T
     SCC iter.                  ...        0 min,  0.541 sec
     gradient                   ...        0 min,  0.138 sec
 * total energy  :   -35.2902574 Eh     change       -0.5509102E-05 Eh
   gradient norm :     0.0007583 Eh/α   predicted    -0.4929238E-05 ( -10.53%)
   displ. norm   :     0.0157137 α      lambda       -0.1223251E-05
   maximum displ.:     0.0123754 α      in ANC's #1, #3, #2, ...

........................................................................
.............................. CYCLE   20 ..............................
........................................................................
   1    -35.8133606 -0.358134E+02  0.555E-03    3.67       0.0  T
   2    -35.8133606 -0.149641E-07  0.322E-03    3.67       6.3  T
   3    -35.8133606  0.471712E-08  0.696E-04    3.67      29.3  T
   4    -35.8133607 -0.740075E-08  0.181E-04    3.67     112.9  T
     SCC iter.                  ...        0 min,  0.407 sec
     gradient                   ...        0 min,  0.154 sec
 * total energy  :   -35.2902583 Eh     change       -0.9318857E-06 Eh
   gradient norm :     0.0008723 Eh/α   predicted    -0.6154679E-06 ( -33.95%)
   displ. norm   :     0.0077345 α      lambda       -0.5826869E-06
   maximum displ.:     0.0065805 α      in ANC's #1, #4, #15, ...

   *** GEOMETRY OPTIMIZATION CONVERGED AFTER 20 ITERATIONS ***

------------------------------------------------------------------------
 total energy gain   :        -0.0512112 Eh      -32.1355 kcal/mol
 total RMSD          :         0.6542082 a0        0.3462 Å
 total power (kW/mol):        -6.7227447 (step)   -7.2484 (real)
------------------------------------------------------------------------

 ANCopt (total)                0 d,  0 h,  0 min, 18.550 sec
 optimizer setup                ...        0 min,  0.000 sec (  0.001%)
 model hessian                  ...        0 min,  0.006 sec (  0.031%)
 ANC generation                 ...        0 min,  0.013 sec (  0.069%)
 coordinate transformation      ...        0 min,  0.001 sec (  0.003%)
 single point calculation       ...        0 min, 18.255 sec ( 98.412%)
 optimization log               ...        0 min,  0.002 sec (  0.012%)
 hessian update                 ...        0 min,  0.225 sec (  1.212%)
 rational function              ...        0 min,  0.046 sec (  0.246%)

================
 final structure:
================
24
 xtb: 6.5.0 (97a52f5)
C           -0.81602768464355       -0.22876180427659       -0.03951452851894
N            0.38635858908233       -0.46180855160050        0.67863400048648
C            1.51738760084626        0.20831489968495        0.31739667172170
C            2.74895297506730        0.00814895167020        1.20146432034236
C            0.28265889820633       -1.21725018711734        1.90795144576139
O            1.57568076623481        0.93302721743755       -0.65631714450915
C           -1.98626559010515        0.09666484865674        0.63745785764024
C           -3.17257519875802        0.19737152688068       -1.44687069937079
C           -3.15766125740426        0.30684686233463       -0.06716817298690
C           -2.00808813205162       -0.12915672817571       -2.12092289041354
C           -0.83450630714264       -0.35019157783197       -1.42392879435857
H            1.18614507785181       -1.80427246216994        2.06581261720542
H           -0.55430332004943       -1.90925797037754        1.81881132859170
H            0.12854717368660       -0.57377196598257        2.77950306014239
N            3.87443952616034        0.82966347463848        0.79659719521760
H            3.07186533479200       -1.03911704569971        1.17046842662657
H            2.51939278826181        0.23765474735528        2.24692811910934
H           -1.98227402767940        0.19878304797066        1.71218958193076
H           -4.06102515909194        0.56343372197096        0.46651310758317
H           -2.01347673641461       -0.22024502254326       -3.19674131905839
H            0.07194637137117       -0.60459859256642       -1.94861307969186
H            4.02427841273351        0.69105099954379       -0.20200009138989
H           -4.08786927540614        0.36658412604886       -1.99380720167105
H            3.59641015445309        1.80788848414919        0.85335120960981

 Bond Distances (Angstroems)
 ---------------------------
C1-N2=1.4198         C1-C7=1.3906         C1-C11=1.3899        N2-C1=1.4198         N2-C3=1.3634         N2-C5=1.4466         
C3-N2=1.3634         C3-C4=1.5292         C3-O6=1.2152         C4-C3=1.5292         C4-N15=1.4510        C4-H16=1.0964        
C4-H17=1.0947        C5-N2=1.4466         C5-H12=1.0889        C5-H13=1.0896        C5-H14=1.0943        O6-C3=1.2152         
C7-C1=1.3906         C7-C9=1.3831         C7-H18=1.0796        C8-C9=1.3841         C8-C10=1.3846        C8-H23=1.0796        
C9-C7=1.3831         C9-C8=1.3841         C9-H19=1.0801        C10-C8=1.3846        C10-C11=1.3827       C10-H20=1.0797       
C11-C1=1.3899        C11-C10=1.3827       C11-H21=1.0778       H12-C5=1.0889        H13-C5=1.0896        H14-C5=1.0943        
N15-C4=1.4510        N15-H22=1.0192       N15-H24=1.0186       H16-C4=1.0964        H17-C4=1.0947        H18-C7=1.0796        
H19-C9=1.0801        H20-C10=1.0797       H21-C11=1.0778       H22-N15=1.0192       H23-C8=1.0796        H24-N15=1.0186       
 C  H  Rav=1.0861 sigma=0.0070  Rmin=1.0778  Rmax=1.0964    10
 C  C  Rav=1.4063 sigma=0.0503  Rmin=1.3827  Rmax=1.5292     7
 N  H  Rav=1.0189 sigma=0.0003  Rmin=1.0186  Rmax=1.0192     2
 N  C  Rav=1.4202 sigma=0.0349  Rmin=1.3634  Rmax=1.4510     4
 O  C  Rav=1.2152 sigma=0.0000  Rmin=1.2152  Rmax=1.2152     1

 selected bond angles (degree)
 --------------------
C7-C1-N2=120.32                C11-C1-N2=120.05               C11-C1-C7=119.62               C3-N2-C1=119.20                
C5-N2-C1=117.06                C5-N2-C3=122.77                C4-C3-N2=116.78                O6-C3-N2=123.04                
O6-C3-C4=120.18                N15-C4-C3=112.91               H16-C4-C3=110.24               H16-C4-N15=107.73              
H17-C4-C3=110.84               H17-C4-N15=108.08              H17-C4-H16=106.80              H12-C5-N2=110.20               
H13-C5-N2=108.49               H13-C5-H12=107.87              H14-C5-N2=112.32               H14-C5-H12=108.57              
H14-C5-H13=109.30              C9-C7-C1=120.02                H18-C7-C1=120.24               H18-C7-C9=119.73               
C10-C8-C9=119.66               H23-C8-C9=120.11               H23-C8-C10=120.22              C8-C9-C7=120.33                
H19-C9-C7=119.52               H19-C9-C8=120.15               C11-C10-C8=120.41              H20-C10-C8=120.05              
H20-C10-C11=119.54             

 selected dihedral angles (degree)
 ---------------------------------
C3-N2-C1-C7=231.82            C3-N2-C1-C11= 53.05           C5-N2-C1-C7= 40.85            C5-N2-C1-C11=222.08           
C4-C3-N2-C1=174.86            C4-C3-N2-C5=  6.48            O6-C3-N2-C1=354.63            O6-C3-N2-C5=186.26            
N15-C4-C3-N2=184.05           N15-C4-C3-O6=  4.26           H16-C4-C3-N2= 63.52           H16-C4-C3-O6=243.73           
H17-C4-C3-N2=305.48           H17-C4-C3-O6=125.70           H12-C5-N2-C1=147.82           H12-C5-N2-C3=316.43           
H13-C5-N2-C1= 29.94           H13-C5-N2-C3=198.55           H14-C5-N2-C1=269.01           H14-C5-N2-C3= 77.62           
C9-C7-C1-N2=180.77            C9-C7-C1-C11=359.54           H18-C7-C1-N2=  1.55           H18-C7-C1-C11=180.33          
C8-C9-C7-C1=359.89            C8-C9-C7-H18=179.10           H19-C9-C7-C1=180.26           H19-C9-C7-H18=359.48          
C7-C9-C8-C10=  0.24           C7-C9-C8-H23=180.28           H19-C9-C8-C10=179.86          H19-C9-C8-H23=359.90          
C11-C10-C8-C9=  0.22          C11-C10-C8-H23=180.17         H20-C10-C8-C9=179.75          H20-C10-C8-H23=359.70         
           -------------------------------------------------
          |                Final Singlepoint                |
           -------------------------------------------------

          ...................................................
          :                      SETUP                      :
          :.................................................:
          :  # basis functions                  60          :
          :  # atomic orbitals                  60          :
          :  # shells                           36          :
          :  # electrons                        64          :
          :  max. iterations                   250          :
          :  Hamiltonian                  GFN2-xTB          :
          :  restarted?                      false          :
          :  GBSA solvation                  false          :
          :  PC potential                    false          :
          :  electronic temp.          300.0000000     K    :
          :  accuracy                    1.0000000          :
          :  -> integral cutoff          0.2500000E+02      :
          :  -> integral neglect         0.1000000E-07      :
          :  -> SCF convergence          0.1000000E-05 Eh   :
          :  -> wf. convergence          0.1000000E-03 e    :
          :  Broyden damping             0.4000000          :
          ...................................................

 iter      E             dE          RMSdq      gap      omega  full diag
   1    -35.8133607 -0.358134E+02  0.822E-05    3.67       0.0  T
   2    -35.8133607 -0.161720E-10  0.493E-05    3.67     413.7  T
   3    -35.8133607 -0.368061E-11  0.301E-05    3.67     677.9  T

   *** convergence criteria satisfied after 3 iterations ***

         #    Occupation            Energy/Eh            Energy/eV
      -------------------------------------------------------------
         1        2.0000           -0.7007690             -19.0689
       ...           ...                  ...                  ...
        26        2.0000           -0.4393277             -11.9547
        27        2.0000           -0.4365930             -11.8803
        28        2.0000           -0.4201229             -11.4321
        29        2.0000           -0.4105750             -11.1723
        30        2.0000           -0.4044871             -11.0067
        31        2.0000           -0.3851434             -10.4803
        32        2.0000           -0.3695418             -10.0557 (HOMO)
        33                         -0.2346463              -6.3850 (LUMO)
        34                         -0.2273594              -6.1868
        35                         -0.2022248              -5.5028
        36                         -0.0961572              -2.6166
        37                         -0.0112086              -0.3050
       ...                                ...                  ...
        60                          0.6661200              18.1260
      -------------------------------------------------------------
                  HL-Gap            0.1348956 Eh            3.6707 eV
             Fermi-level           -0.3020940 Eh           -8.2204 eV

 SCC (total)                   0 d,  0 h,  0 min,  0.520 sec
 SCC setup                      ...        0 min,  0.005 sec (  1.050%)
 Dispersion                     ...        0 min,  0.021 sec (  3.995%)
 classical contributions        ...        0 min,  0.010 sec (  1.937%)
 integral evaluation            ...        0 min,  0.031 sec (  5.972%)
 iterations                     ...        0 min,  0.323 sec ( 62.192%)
 molecular gradient             ...        0 min,  0.129 sec ( 24.768%)
 printout                       ...        0 min,  0.000 sec (  0.032%)

         :::::::::::::::::::::::::::::::::::::::::::::::::::::
         ::                     SUMMARY                     ::
         :::::::::::::::::::::::::::::::::::::::::::::::::::::
         :: total energy             -35.290258309994 Eh    ::
         :: gradient norm              0.000872372094 Eh/a0 ::
         :: HOMO-LUMO gap              3.670695859061 eV    ::
         ::.................................................::
         :: SCC energy               -35.813360652980 Eh    ::
         :: -> isotropic ES            0.047792184673 Eh    ::
         :: -> anisotropic ES          0.003540089198 Eh    ::
         :: -> anisotropic XC          0.020183155163 Eh    ::
         :: -> dispersion             -0.020774777870 Eh    ::
         :: repulsion energy           0.523042720612 Eh    ::
         :: add. restraining           0.000007518687 Eh    ::
         :: total charge              -0.000000000000 e     ::
         :::::::::::::::::::::::::::::::::::::::::::::::::::::

           -------------------------------------------------
          |                Property Printout                |
           -------------------------------------------------

    * Orbital Energies and Occupations

         #    Occupation            Energy/Eh            Energy/eV
      -------------------------------------------------------------
         1        2.0000           -0.7007690             -19.0689
       ...           ...                  ...                  ...
        20        2.0000           -0.4967414             -13.5170
        21        2.0000           -0.4867120             -13.2441
        22        2.0000           -0.4847990             -13.1921
        23        2.0000           -0.4814128             -13.0999
        24        2.0000           -0.4788695             -13.0307
        25        2.0000           -0.4501015             -12.2479
        26        2.0000           -0.4393277             -11.9547
        27        2.0000           -0.4365930             -11.8803
        28        2.0000           -0.4201229             -11.4321
        29        2.0000           -0.4105750             -11.1723
        30        2.0000           -0.4044871             -11.0067
        31        2.0000           -0.3851434             -10.4803
        32        2.0000           -0.3695418             -10.0557 (HOMO)
        33                         -0.2346463              -6.3850 (LUMO)
        34                         -0.2273594              -6.1868
        35                         -0.2022248              -5.5028
        36                         -0.0961572              -2.6166
        37                         -0.0112086              -0.3050
        38                          0.0669810               1.8226
        39                          0.0763512               2.0776
        40                          0.1039954               2.8299
        41                          0.1168947               3.1809
        42                          0.1321791               3.5968
        43                          0.1427792               3.8852
       ...                                ...                  ...
        60                          0.6661200              18.1260
      -------------------------------------------------------------
                  HL-Gap            0.1348956 Eh            3.6707 eV
             Fermi-level           -0.3020940 Eh           -8.2204 eV

     #   Z          covCN         q      C6AA      α(0)
     1   6 C        2.927     0.072    26.393     8.425
     2   7 N        2.737    -0.099    23.180     7.151
     3   6 C        2.765     0.255    22.706     7.804
     4   6 C        3.733    -0.007    20.795     6.509
     5   6 C        3.696    -0.047    21.597     6.648
     6   8 O        0.858    -0.435    22.400     6.345
     7   6 C        2.922    -0.047    29.161     8.856
     8   6 C        2.919    -0.033    28.818     8.803
     9   6 C        2.920    -0.029    28.731     8.790
    10   6 C        2.921    -0.026    28.660     8.779
    11   6 C        2.922    -0.032    28.799     8.801
    12   1 H        0.925     0.057     2.234     2.337
    13   1 H        0.925     0.063     2.159     2.298
    14   1 H        0.924     0.048     2.339     2.392
    15   7 N        2.628    -0.336    28.648     7.949
    16   1 H        0.924     0.048     2.348     2.396
    17   1 H        0.924     0.046     2.368     2.406
    18   1 H        0.926     0.035     2.522     2.484
    19   1 H        0.926     0.035     2.519     2.482
    20   1 H        0.926     0.039     2.457     2.451
    21   1 H        0.926     0.054     2.268     2.355
    22   1 H        0.860     0.155     1.368     1.832
    23   1 H        0.926     0.035     2.511     2.478
    24   1 H        0.860     0.149     1.411     1.861

 Mol. C6AA /au·bohr⁶  :       6157.893543
 Mol. C8AA /au·bohr⁸  :     142324.510792
 Mol. α(0) /au        :        122.631132


Wiberg/Mayer (AO) data.
largest (>0.10) Wiberg bond orders for each atom

 ---------------------------------------------------------------------------
     #   Z sym  total        # sym  WBO       # sym  WBO       # sym  WBO
 ---------------------------------------------------------------------------
     1   6 C    3.963 --    11 C    1.391     7 C    1.391     2 N    1.014
                             8 C    0.103
     2   7 N    3.503 --     3 C    1.206     1 C    1.014     5 C    0.999
                             6 O    0.178
     3   6 C    3.946 --     6 O    1.691     2 N    1.206     4 C    0.951
     4   6 C    3.991 --    15 N    1.039    17 H    0.960    16 H    0.953
                             3 C    0.951
     5   6 C    3.972 --     2 N    0.999    13 H    0.981    12 H    0.975
                            14 H    0.974
     6   8 O    2.010 --     3 C    1.691     2 N    0.178
     7   6 C    3.990 --     9 C    1.446     1 C    1.391    18 H    0.968
                            10 C    0.109
     8   6 C    3.991 --     9 C    1.437    10 C    1.436    23 H    0.971
                             1 C    0.103
     9   6 C    3.992 --     7 C    1.446     8 C    1.437    19 H    0.971
                            11 C    0.110
    10   6 C    3.992 --    11 C    1.447     8 C    1.436    20 H    0.970
                             7 C    0.109
    11   6 C    3.990 --    10 C    1.447     1 C    1.391    21 H    0.968
                             9 C    0.110
    12   1 H    0.996 --     5 C    0.975
    13   1 H    0.996 --     5 C    0.981
    14   1 H    0.997 --     5 C    0.974
    15   7 N    3.004 --     4 C    1.039    24 H    0.962    22 H    0.958
    16   1 H    0.997 --     4 C    0.953
    17   1 H    0.998 --     4 C    0.960
    18   1 H    0.999 --     7 C    0.968
    19   1 H    0.998 --     9 C    0.971
    20   1 H    0.998 --    10 C    0.970
    21   1 H    0.997 --    11 C    0.968
    22   1 H    0.976 --    15 N    0.958
    23   1 H    0.999 --     8 C    0.971
    24   1 H    0.978 --    15 N    0.962
 ---------------------------------------------------------------------------

Topologies differ in total number of bonds
Writing topology from bond orders to xtbtopo.mol

molecular dipole:
                 x           y           z       tot (Debye)
 q only:       -0.625      -0.883       0.847
   full:       -0.882      -0.869       0.870       3.847
molecular quadrupole (traceless):
                xx          xy          yy          xz          yz          zz
 q only:       -2.019      -2.507      -1.225       2.267      -0.336       3.244
  q+dip:       -5.268      -4.677      -1.526      -0.385       1.180       6.794
   full:       -6.535      -3.681       1.054      -0.672       0.847       5.481

           -------------------------------------------------
          |                Geometry Summary                 |
           -------------------------------------------------

      molecular mass/u    :      164.2047234
   center of mass at/Å    :       -0.0145478       0.0272114       0.0216801
  moments of inertia/u·Å² :        0.2261894E+03   0.9269395E+03   0.1069948E+04
rotational constants/cm⁻¹ :        0.7452885E-01   0.1818634E-01   0.1575557E-01

 * 23 selected distances

     #   Z          #   Z                                           value/Å
     1   6 C        2   7 N                                       1.4197821
     2   7 N        3   6 C                                       1.3633726
     2   7 N        5   6 C                                       1.4466055
     3   6 C        6   8 O                                       1.2152057
     1   6 C        7   6 C                                       1.3905579
     7   6 C        9   6 C                                       1.3830555
     8   6 C        9   6 C                                       1.3841195
     8   6 C       10   6 C                                       1.3845568
     1   6 C       11   6 C                                       1.3898525
    10   6 C       11   6 C                                       1.3827335
     5   6 C       12   1 H                                       1.0889457
     5   6 C       13   1 H                                       1.0896452
     5   6 C       14   1 H                                       1.0942655
     4   6 C       15   7 N                                       1.4510423 (max)
     4   6 C       16   1 H                                       1.0963573
     4   6 C       17   1 H                                       1.0946988
     7   6 C       18   1 H                                       1.0795798
     9   6 C       19   1 H                                       1.0801477
    10   6 C       20   1 H                                       1.0796813
    11   6 C       21   1 H                                       1.0778094
    15   7 N       22   1 H                                       1.0192457
     8   6 C       23   1 H                                       1.0795999
    15   7 N       24   1 H                                       1.0185508 (min)

 * 5 distinct bonds (by element types)

   Z      Z             #   av. dist./Å        max./Å        min./Å
   1 H    6 C          10     1.0860731     1.0963573     1.0778094
   6 C    6 C           6     1.3858126     1.3905579     1.3827335
   1 H    7 N           2     1.0188983     1.0192457     1.0185508
   6 C    7 N           4     1.4202006     1.4510423     1.3633726
   6 C    8 O           1     1.2152057     1.2152057     1.2152057


optimized geometry written to: xtbopt.xyz


           -------------------------------------------------
          | TOTAL ENERGY              -35.290258309994 Eh   |
          | GRADIENT NORM               0.000872372094 Eh/α |
          | HOMO-LUMO GAP               3.670695859061 eV   |
           -------------------------------------------------

------------------------------------------------------------------------
 * finished run on 2023/11/18 at 08:25:32.115     
------------------------------------------------------------------------
 total:
 * wall-time:     0 d,  0 h,  0 min, 20.777 sec
 *  cpu-time:     0 d,  0 h, 15 min,  9.181 sec
 * ratio c/w:    43.759 speedup
 SCF:
 * wall-time:     0 d,  0 h,  0 min,  1.576 sec
 *  cpu-time:     0 d,  0 h,  1 min,  7.861 sec
 * ratio c/w:    43.059 speedup
 ANC optimizer:
 * wall-time:     0 d,  0 h,  0 min, 19.073 sec
 *  cpu-time:     0 d,  0 h, 13 min, 55.894 sec
 * ratio c/w:    43.826 speedup

