      -----------------------------------------------------------      
     |                   =====================                   |     
     |                           x T B                           |     
     |                   =====================                   |     
     |                         S. Grimme                         |     
     |          Mulliken Center for Theoretical Chemistry        |     
     |                    University of Bonn                     |     
      -----------------------------------------------------------      

   * xtb version 6.5.0 (97a52f5) compiled by 'conda@d2599ee0d4f4' on 2022-05-15

   xtb is free software: you can redistribute it and/or modify it under
   the terms of the GNU Lesser General Public License as published by
   the Free Software Foundation, either version 3 of the License, or
   (at your option) any later version.
   
   xtb is distributed in the hope that it will be useful,
   but WITHOUT ANY WARRANTY; without even the implied warranty of
   MERCHANTABILITY or FITNESS FOR A PARTICULAR PURPOSE.  See the
   GNU Lesser General Public License for more details.
   
   Cite this work as:
   * C. Bannwarth, E. Caldeweyher, S. Ehlert, A. Hansen, P. Pracht,
     J. Seibert, S. Spicher, S. Grimme, WIREs Comput. Mol. Sci., 2020, 11,
     e01493. DOI: 10.1002/wcms.1493
   
   for GFN2-xTB:
   * C. Bannwarth, S. Ehlert and S. Grimme., J. Chem. Theory Comput., 2019,
     15, 1652-1671. DOI: 10.1021/acs.jctc.8b01176
   for GFN1-xTB:
   * S. Grimme, C. Bannwarth, P. Shushkov, J. Chem. Theory Comput., 2017,
     13, 1989-2009. DOI: 10.1021/acs.jctc.7b00118
   for GFN0-xTB:
   * P. Pracht, E. Caldeweyher, S. Ehlert, S. Grimme, ChemRxiv, 2019, preprint.
     DOI: 10.26434/chemrxiv.8326202.v1
   for GFN-FF:
   * S. Spicher and S. Grimme, Angew. Chem. Int. Ed., 2020, 59, 15665-15673.
     DOI: 10.1002/anie.202004239
   
   for ALPB and GBSA implicit solvation:
   * S. Ehlert, M. Stahn, S. Spicher, S. Grimme, J. Chem. Theory Comput.,
     2021, 17, 4250-4261. DOI: 10.1021/acs.jctc.1c00471
   
   for DFT-D4:
   * E. Caldeweyher, C. Bannwarth and S. Grimme, J. Chem. Phys., 2017,
     147, 034112. DOI: 10.1063/1.4993215
   * E. Caldeweyher, S. Ehlert, A. Hansen, H. Neugebauer, S. Spicher,
     C. Bannwarth and S. Grimme, J. Chem. Phys., 2019, 150, 154122.
     DOI: 10.1063/1.5090222
   * E. Caldeweyher, J.-M. Mewes, S. Ehlert and S. Grimme, Phys. Chem. Chem. Phys.
     2020, 22, 8499-8512. DOI: 10.1039/D0CP00502A
   
   for sTDA-xTB:
   * S. Grimme and C. Bannwarth, J. Chem. Phys., 2016, 145, 054103.
     DOI: 10.1063/1.4959605
   
   in the mass-spec context:
   * V. Asgeirsson, C. Bauer and S. Grimme, Chem. Sci., 2017, 8, 4879.
     DOI: 10.1039/c7sc00601b
   * J. Koopman and S. Grimme, ACS Omega 2019, 4, 12, 15120-15133.
     DOI: 10.1021/acsomega.9b02011
   
   for metadynamics refer to:
   * S. Grimme, J. Chem. Theory Comput., 2019, 155, 2847-2862
     DOI: 10.1021/acs.jctc.9b00143
   
   for SPH calculations refer to:
   * S. Spicher and S. Grimme, J. Chem. Theory Comput., 2021, 17, 1701-1714
     DOI: 10.1021/acs.jctc.0c01306
   
   with help from (in alphabetical order)
   P. Atkinson, C. Bannwarth, F. Bohle, G. Brandenburg, E. Caldeweyher
   M. Checinski, S. Dohm, S. Ehlert, S. Ehrlich, I. Gerasimov, C. Hölzer
   A. Katbashev, J. Koopman, C. Lavigne, S. Lehtola, F. März, M. Müller,
   F. Musil, H. Neugebauer, J. Pisarek, C. Plett, P. Pracht, F. Pultar,
   J. Seibert, P. Shushkov, S. Spicher, M. Stahn, M. Steiner, T. Strunk,
   J. Stückrath, T. Rose, and J. Unsleber
   
 * started run on 2023/11/18 at 08:28:15.327     

           -------------------------------------------------
          |                Calculation Setup                |
           -------------------------------------------------

          program call               : /home/liuchw/anaconda3/envs/xtbenv/bin/xtb --gfn 2 --chrg 0 --uhf 0 3_25_Index_0_GrowFragment_3-opt-2-3-147_preQMOPTprefit_xyzformat.xyz --opt --input xtb-opt-2-3-147_constr.txt
          hostname                   : node165.bme.utexas.edu
          coordinate file            : 3_25_Index_0_GrowFragment_3-opt-2-3-147_preQMOPTprefit_xyzformat.xyz
          omp threads                :                    64

   ID    Z sym.   atoms
    1    6 C      1, 3-5, 7-11
    2    7 N      2, 15
    3    8 O      6
    4    1 H      12-14, 16-24
constraining angle 1 2 3 4 to  146.9173015°, actual value:  146.9173015°
constraining angle 11 1 2 3 to   53.0461897°, actual value:   53.0461897°
constraining angle 2 3 4 15 to  184.0198174°, actual value: -175.9801826°
constraining angle 1 2 5 13 to   29.9718310°, actual value:   29.9718310°
constraining angle 16 4 15 22 to   71.0235971°, actual value:   71.0235971°
constraining angle 17 4 15 22 to  186.0254844°, actual value: -173.9745156°
constraining angle 16 4 15 24 to  181.9837099°, actual value: -178.0162901°
constraining angle 17 4 15 24 to  296.9855972°, actual value:  -63.0144028°

           -------------------------------------------------
          |                 G F N 2 - x T B                 |
           -------------------------------------------------

        Reference                      10.1021/acs.jctc.8b01176
      * Hamiltonian:
        H0-scaling (s, p, d)           1.850000    2.230000    2.230000
        zeta-weighting                 0.500000
      * Dispersion:
        s8                             2.700000
        a1                             0.520000
        a2                             5.000000
        s9                             5.000000
      * Repulsion:
        kExp                           1.500000    1.000000
        rExp                           1.000000
      * Coulomb:
        alpha                          2.000000
        third order                    shell-resolved
        anisotropic                    true
        a3                             3.000000
        a5                             4.000000
        cn-shift                       1.200000
        cn-exp                         4.000000
        max-rad                        5.000000

q/qsh data taken from xtbrestart
CAMM data taken from xtbrestart

          ...................................................
          :                      SETUP                      :
          :.................................................:
          :  # basis functions                  60          :
          :  # atomic orbitals                  60          :
          :  # shells                           36          :
          :  # electrons                        64          :
          :  max. iterations                   250          :
          :  Hamiltonian                  GFN2-xTB          :
          :  restarted?                       true          :
          :  GBSA solvation                  false          :
          :  PC potential                    false          :
          :  electronic temp.          300.0000000     K    :
          :  accuracy                    1.0000000          :
          :  -> integral cutoff          0.2500000E+02      :
          :  -> integral neglect         0.1000000E-07      :
          :  -> SCF convergence          0.1000000E-05 Eh   :
          :  -> wf. convergence          0.1000000E-03 e    :
          :  Broyden damping             0.4000000          :
          ...................................................

 iter      E             dE          RMSdq      gap      omega  full diag
   1    -35.6641424 -0.356641E+02  0.268E+00    2.67       0.0  T
   2    -35.6794207 -0.152783E-01  0.153E+00    1.86       1.0  T
   3    -35.6760265  0.339427E-02  0.745E-01    1.58       1.0  T
   4    -35.6817038 -0.567740E-02  0.235E-01    1.60       1.0  T
   5    -35.6824990 -0.795189E-03  0.721E-02    1.61       1.0  T
   6    -35.6825050 -0.596061E-05  0.416E-02    1.61       1.0  T
   7    -35.6825188 -0.137807E-04  0.131E-02    1.61       1.6  T
   8    -35.6825202 -0.141809E-05  0.506E-03    1.61       4.0  T
   9    -35.6825202 -0.420881E-07  0.227E-03    1.61       9.0  T
  10    -35.6825203 -0.438030E-07  0.841E-04    1.61      24.3  T
  11    -35.6825203 -0.555478E-08  0.286E-04    1.61      71.3  T

   *** convergence criteria satisfied after 11 iterations ***

         #    Occupation            Energy/Eh            Energy/eV
      -------------------------------------------------------------
         1        2.0000           -0.7170554             -19.5121
       ...           ...                  ...                  ...
        26        2.0000           -0.4399163             -11.9707
        27        2.0000           -0.4310396             -11.7292
        28        2.0000           -0.4244424             -11.5497
        29        2.0000           -0.4050404             -11.0217
        30        2.0000           -0.4033744             -10.9764
        31        2.0000           -0.3815714             -10.3831
        32        2.0000           -0.3576217              -9.7314 (HOMO)
        33                         -0.2983625              -8.1189 (LUMO)
        34                         -0.2322618              -6.3202
        35                         -0.2302585              -6.2657
        36                         -0.1096324              -2.9832
        37                         -0.0325345              -0.8853
       ...                                ...                  ...
        60                          0.6030819              16.4107
      -------------------------------------------------------------
                  HL-Gap            0.0592592 Eh            1.6125 eV
             Fermi-level           -0.3279921 Eh           -8.9251 eV

 SCC (total)                   0 d,  0 h,  0 min,  1.499 sec
 SCC setup                      ...        0 min,  0.015 sec (  1.029%)
 Dispersion                     ...        0 min,  0.039 sec (  2.627%)
 classical contributions        ...        0 min,  0.016 sec (  1.073%)
 integral evaluation            ...        0 min,  0.042 sec (  2.821%)
 iterations                     ...        0 min,  1.236 sec ( 82.465%)
 molecular gradient             ...        0 min,  0.149 sec (  9.961%)
 printout                       ...        0 min,  0.000 sec (  0.010%)

         :::::::::::::::::::::::::::::::::::::::::::::::::::::
         ::                     SUMMARY                     ::
         :::::::::::::::::::::::::::::::::::::::::::::::::::::
         :: total energy             -35.217825592760 Eh    ::
         :: gradient norm              0.146985654945 Eh/a0 ::
         :: HOMO-LUMO gap              1.612523672059 eV    ::
         ::.................................................::
         :: SCC energy               -35.682520288810 Eh    ::
         :: -> isotropic ES            0.042994275121 Eh    ::
         :: -> anisotropic ES          0.004644826926 Eh    ::
         :: -> anisotropic XC          0.022721040685 Eh    ::
         :: -> dispersion             -0.020310700433 Eh    ::
         :: repulsion energy           0.464606597691 Eh    ::
         :: add. restraining           0.000000000000 Eh    ::
         :: total charge              -0.000000000000 e     ::
         :::::::::::::::::::::::::::::::::::::::::::::::::::::

      ----------------------------------------------------------- 
     |                   =====================                   |
     |                        A N C O P T                        |
     |                   =====================                   |
     |               Approximate Normal Coordinate               |
     |                Rational Function Optimizer                |
      ----------------------------------------------------------- 

          ...................................................
          :                      SETUP                      :
          :.................................................:
          :   optimization level            normal          :
          :   max. optcycles                   200          :
          :   ANC micro-cycles                  20          :
          :   degrees of freedom                66          :
          :.................................................:
          :   RF solver                   davidson          :
          :   write xtbopt.log                true          :
          :   linear?                        false          :
          :   energy convergence         0.5000000E-05 Eh   :
          :   grad. convergence          0.1000000E-02 Eh/α :
          :   maximium RF displ.         1.0000000          :
          :   Hlow (freq-cutoff)         0.1000000E-01      :
          :   Hmax (freq-cutoff)         5.0000000          :
          :   S6 in model hess.         20.0000000          :
          ...................................................

generating ANC from model Hessian ...
Using Lindh-Hessian (1995)
 Shifting diagonal of input Hessian by    8.2333668868211848E-003
 Lowest  eigenvalues of input Hessian
    0.000000    0.000000    0.000000    0.000000    0.000000    0.000000
    0.010000    0.011262    0.012916    0.016164    0.017847    0.019087
    0.021918    0.025516    0.026659    0.029966    0.036270    0.037986
 Highest eigenvalues
    3.196563    6.409451    7.045447    9.269538   11.376496   12.553069


........................................................................
.............................. CYCLE    1 ..............................
........................................................................
   1    -35.6825203 -0.356825E+02  0.129E-04    1.61       0.0  T
   2    -35.6825203 -0.125866E-09  0.820E-05    1.61     249.1  T
   3    -35.6825203 -0.110127E-09  0.418E-05    1.61     487.8  T
     SCC iter.                  ...        0 min,  0.359 sec
     gradient                   ...        0 min,  0.135 sec
 * total energy  :   -35.2178256 Eh     change       -0.4855707E-09 Eh
   gradient norm :     0.1469863 Eh/α   predicted     0.0000000E+00 (-100.00%)
   displ. norm   :     0.5084447 α      lambda       -0.4043106E-01
   maximum displ.:     0.3006850 α      in ANC's #14, #13, #31, ...

........................................................................
.............................. CYCLE    2 ..............................
........................................................................
   1    -35.7327487 -0.357327E+02  0.601E-01    2.14       0.0  T
   2    -35.7337371 -0.988351E-03  0.362E-01    2.38       1.0  T
   3    -35.7336354  0.101719E-03  0.154E-01    2.36       1.0  T
   4    -35.7337553 -0.119953E-03  0.569E-02    2.37       1.0  T
   5    -35.7338346 -0.792830E-04  0.944E-03    2.38       2.2  T
   6    -35.7338348 -0.187921E-06  0.420E-03    2.37       4.9  T
   7    -35.7338349 -0.896722E-07  0.186E-03    2.37      11.0  T
   8    -35.7338349 -0.193458E-07  0.604E-04    2.37      33.8  T
   9    -35.7338349 -0.139235E-08  0.274E-04    2.37      74.5  T
     SCC iter.                  ...        0 min,  1.059 sec
     gradient                   ...        0 min,  0.152 sec
 * total energy  :   -35.2438593 Eh     change       -0.2603369E-01 Eh
   gradient norm :     0.0947334 Eh/α   predicted    -0.2544157E-01 (  -2.27%)
   displ. norm   :     0.3991149 α      lambda       -0.1425825E-01
   maximum displ.:     0.2165836 α      in ANC's #14, #13, #9, ...

........................................................................
.............................. CYCLE    3 ..............................
........................................................................
   1    -35.7613379 -0.357613E+02  0.315E-01    2.63       0.0  T
   2    -35.7615861 -0.248148E-03  0.195E-01    2.72       1.0  T
   3    -35.7615499  0.361729E-04  0.857E-02    2.72       1.0  T
   4    -35.7616081 -0.581891E-04  0.257E-02    2.72       1.0  T
   5    -35.7616239 -0.157491E-04  0.387E-03    2.72       5.3  T
   6    -35.7616239 -0.418683E-07  0.193E-03    2.72      10.6  T
   7    -35.7616239 -0.206333E-07  0.740E-04    2.72      27.6  T
   8    -35.7616239 -0.285634E-08  0.280E-04    2.72      72.8  T
     SCC iter.                  ...        0 min,  0.961 sec
     gradient                   ...        0 min,  0.143 sec
 * total energy  :   -35.2536184 Eh     change       -0.9759142E-02 Eh
   gradient norm :     0.1130276 Eh/α   predicted    -0.8264797E-02 ( -15.31%)
   displ. norm   :     0.3742250 α      lambda       -0.1220542E-01
   maximum displ.:     0.1677292 α      in ANC's #14, #13, #9, ...

........................................................................
.............................. CYCLE    4 ..............................
........................................................................
   1    -35.7890629 -0.357891E+02  0.238E-01    3.21       0.0  T
   2    -35.7891847 -0.121841E-03  0.145E-01    3.13       1.0  T
   3    -35.7891541  0.305795E-04  0.673E-02    3.14       1.0  T
   4    -35.7892112 -0.570506E-04  0.124E-02    3.13       1.6  T
   5    -35.7892125 -0.125579E-05  0.514E-03    3.13       4.0  T
   6    -35.7892128 -0.391155E-06  0.220E-03    3.13       9.3  T
   7    -35.7892129 -0.292977E-07  0.950E-04    3.13      21.5  T
   8    -35.7892129 -0.258098E-08  0.340E-04    3.13      60.1  T
     SCC iter.                  ...        0 min,  0.890 sec
     gradient                   ...        0 min,  0.142 sec
 * total energy  :   -35.2608536 Eh     change       -0.7235180E-02 Eh
   gradient norm :     0.1276101 Eh/α   predicted    -0.6957364E-02 (  -3.84%)
   displ. norm   :     0.3874685 α      lambda       -0.9242326E-02
   maximum displ.:     0.2444359 α      in ANC's #13, #14, #11, ...

........................................................................
.............................. CYCLE    5 ..............................
........................................................................
   1    -35.7895357 -0.357895E+02  0.301E-01    3.25       0.0  T
   2    -35.7898614 -0.325681E-03  0.177E-01    3.32       1.0  T
   3    -35.7898594  0.195457E-05  0.791E-02    3.31       1.0  T
   4    -35.7898728 -0.133687E-04  0.250E-02    3.32       1.0  T
   5    -35.7898903 -0.175077E-04  0.471E-03    3.32       4.3  T
   6    -35.7898904 -0.816190E-07  0.194E-03    3.32      10.5  T
   7    -35.7898904 -0.123685E-07  0.789E-04    3.32      25.9  T
   8    -35.7898904 -0.328603E-08  0.367E-04    3.32      55.7  T
     SCC iter.                  ...        0 min,  0.868 sec
     gradient                   ...        0 min,  0.135 sec
 * total energy  :   -35.2667153 Eh     change       -0.5861643E-02 Eh
   gradient norm :     0.1125358 Eh/α   predicted    -0.5314964E-02 (  -9.33%)
   displ. norm   :     0.3747369 α      lambda       -0.7012311E-02
   maximum displ.:     0.2374581 α      in ANC's #13, #12, #14, ...

........................................................................
.............................. CYCLE    6 ..............................
........................................................................
   1    -35.7842055 -0.357842E+02  0.296E-01    3.39       0.0  T
   2    -35.7844739 -0.268387E-03  0.167E-01    3.45       1.0  T
   3    -35.7844727  0.122368E-05  0.735E-02    3.43       1.0  T
   4    -35.7844874 -0.147267E-04  0.211E-02    3.44       1.0  T
   5    -35.7844996 -0.122009E-04  0.514E-03    3.44       4.0  T
   6    -35.7844997 -0.109646E-06  0.211E-03    3.44       9.7  T
   7    -35.7844997 -0.191060E-07  0.873E-04    3.44      23.4  T
   8    -35.7844997 -0.466527E-08  0.384E-04    3.44      53.2  T
     SCC iter.                  ...        0 min,  1.020 sec
     gradient                   ...        0 min,  0.164 sec
 * total energy  :   -35.2712497 Eh     change       -0.4534451E-02 Eh
   gradient norm :     0.0926566 Eh/α   predicted    -0.3998516E-02 ( -11.82%)
   displ. norm   :     0.3548719 α      lambda       -0.6742887E-02
   maximum displ.:     0.1563656 α      in ANC's #12, #3, #13, ...

........................................................................
.............................. CYCLE    7 ..............................
........................................................................
   1    -35.7947041 -0.357947E+02  0.257E-01    3.72       0.0  T
   2    -35.7951367 -0.432637E-03  0.165E-01    3.72       1.0  T
   3    -35.7951639 -0.272017E-04  0.828E-02    3.72       1.0  T
   4    -35.7951707 -0.682499E-05  0.178E-02    3.72       1.1  T
   5    -35.7951753 -0.455214E-05  0.810E-03    3.72       2.5  T
   6    -35.7951762 -0.903215E-06  0.323E-03    3.72       6.3  T
   7    -35.7951762 -0.638361E-07  0.143E-03    3.72      14.3  T
   8    -35.7951762 -0.815710E-08  0.551E-04    3.72      37.0  T
   9    -35.7951763 -0.999030E-09  0.207E-04    3.72      98.7  T
     SCC iter.                  ...        0 min,  1.003 sec
     gradient                   ...        0 min,  0.164 sec
 * total energy  :   -35.2727663 Eh     change       -0.1516551E-02 Eh
   gradient norm :     0.1248685 Eh/α   predicted    -0.3796071E-02 ( 150.31%)
   displ. norm   :     0.5052528 α      lambda       -0.9915759E-02
   maximum displ.:     0.2838485 α      in ANC's #13, #12, #4, ...

........................................................................
.............................. CYCLE    8 ..............................
........................................................................
   1    -35.7735851 -0.357736E+02  0.498E-01    3.42       0.0  T
   2    -35.7766971 -0.311205E-02  0.276E-01    3.61       1.0  T
   3    -35.7770748 -0.377651E-03  0.150E-01    3.59       1.0  T
   4    -35.7770415  0.332673E-04  0.550E-02    3.60       1.0  T
   5    -35.7770959 -0.543359E-04  0.135E-02    3.60       1.5  T
   6    -35.7770988 -0.294724E-05  0.500E-03    3.59       4.1  T
   7    -35.7770990 -0.209418E-06  0.226E-03    3.60       9.0  T
   8    -35.7770990 -0.226283E-07  0.992E-04    3.60      20.6  T
   9    -35.7770990 -0.341482E-08  0.383E-04    3.60      53.3  T
     SCC iter.                  ...        0 min,  1.136 sec
     gradient                   ...        0 min,  0.150 sec
 * total energy  :   -35.2747484 Eh     change       -0.1982136E-02 Eh
   gradient norm :     0.1099975 Eh/α   predicted    -0.6223532E-02 ( 213.98%)
   displ. norm   :     0.2256725 α      lambda       -0.5604893E-02
   maximum displ.:     0.1471652 α      in ANC's #13, #12, #3, ...

........................................................................
.............................. CYCLE    9 ..............................
........................................................................
   1    -35.7957049 -0.357957E+02  0.190E-01    3.69       0.0  T
   2    -35.7959775 -0.272596E-03  0.110E-01    3.69       1.0  T
   3    -35.7959954 -0.178548E-04  0.588E-02    3.70       1.0  T
   4    -35.7959966 -0.125711E-05  0.145E-02    3.70       1.4  T
   5    -35.7960007 -0.407788E-05  0.461E-03    3.70       4.4  T
   6    -35.7960010 -0.278445E-06  0.195E-03    3.70      10.5  T
   7    -35.7960010 -0.225210E-07  0.903E-04    3.70      22.6  T
   8    -35.7960010 -0.333464E-08  0.341E-04    3.70      59.9  T
     SCC iter.                  ...        0 min,  0.979 sec
     gradient                   ...        0 min,  0.169 sec
 * total energy  :   -35.2775666 Eh     change       -0.2818180E-02 Eh
   gradient norm :     0.0280187 Eh/α   predicted    -0.2945157E-02 (   4.51%)
   displ. norm   :     0.3229416 α      lambda       -0.1853381E-02
   maximum displ.:     0.2163335 α      in ANC's #3, #4, #2, ...

........................................................................
.............................. CYCLE   10 ..............................
........................................................................
   1    -35.7992237 -0.357992E+02  0.147E-01    3.72       0.0  T
   2    -35.7992409 -0.172527E-04  0.829E-02    3.71       1.0  T
   3    -35.7992301  0.107920E-04  0.315E-02    3.72       1.0  T
   4    -35.7992459 -0.157507E-04  0.614E-03    3.71       3.3  T
   5    -35.7992463 -0.407973E-06  0.279E-03    3.71       7.3  T
   6    -35.7992463 -0.253584E-07  0.117E-03    3.71      17.4  T
   7    -35.7992463 -0.932443E-08  0.360E-04    3.71      56.7  T
   8    -35.7992463 -0.256719E-09  0.149E-04    3.71     136.5  T
     SCC iter.                  ...        0 min,  1.069 sec
     gradient                   ...        0 min,  0.155 sec
 * total energy  :   -35.2790055 Eh     change       -0.1438896E-02 Eh
   gradient norm :     0.0492545 Eh/α   predicted    -0.1023368E-02 ( -28.88%)
   displ. norm   :     0.5583831 α      lambda       -0.2803262E-02
   maximum displ.:     0.3320417 α      in ANC's #3, #4, #2, ...

........................................................................
.............................. CYCLE   11 ..............................
........................................................................
   1    -35.8013500 -0.358014E+02  0.238E-01    3.71       0.0  T
   2    -35.8014510 -0.100957E-03  0.131E-01    3.70       1.0  T
   3    -35.8014371  0.138918E-04  0.579E-02    3.71       1.0  T
   4    -35.8014639 -0.267527E-04  0.151E-02    3.71       1.3  T
   5    -35.8014687 -0.480212E-05  0.419E-03    3.71       4.9  T
   6    -35.8014687 -0.215459E-07  0.171E-03    3.71      11.9  T
   7    -35.8014687 -0.232264E-07  0.554E-04    3.71      36.8  T
   8    -35.8014687 -0.720526E-09  0.271E-04    3.71      75.3  T
     SCC iter.                  ...        0 min,  0.993 sec
     gradient                   ...        0 min,  0.139 sec
 * total energy  :   -35.2809844 Eh     change       -0.1978950E-02 Eh
   gradient norm :     0.0321485 Eh/α   predicted    -0.1838718E-02 (  -7.09%)
   displ. norm   :     0.5134627 α      lambda       -0.2025614E-02
   maximum displ.:     0.3159737 α      in ANC's #3, #4, #2, ...

........................................................................
.............................. CYCLE   12 ..............................
........................................................................
   1    -35.7999873 -0.358000E+02  0.212E-01    3.69       0.0  T
   2    -35.8001109 -0.123552E-03  0.117E-01    3.69       1.0  T
   3    -35.8001081  0.281414E-05  0.545E-02    3.70       1.0  T
   4    -35.8001213 -0.131988E-04  0.157E-02    3.70       1.3  T
   5    -35.8001271 -0.581846E-05  0.337E-03    3.70       6.0  T
   6    -35.8001271 -0.213866E-07  0.137E-03    3.70      14.9  T
   7    -35.8001271 -0.935570E-08  0.513E-04    3.70      39.8  T
   8    -35.8001271 -0.136802E-08  0.234E-04    3.70      87.1  T
     SCC iter.                  ...        0 min,  0.875 sec
     gradient                   ...        0 min,  0.147 sec
 * total energy  :   -35.2821300 Eh     change       -0.1145625E-02 Eh
   gradient norm :     0.0700886 Eh/α   predicted    -0.1279861E-02 (  11.72%)
   displ. norm   :     0.3672518 α      lambda       -0.2552411E-02
   maximum displ.:     0.1824672 α      in ANC's #2, #3, #4, ...

........................................................................
.............................. CYCLE   13 ..............................
........................................................................
   1    -35.8068825 -0.358069E+02  0.132E-01    3.70       0.0  T
   2    -35.8069030 -0.204796E-04  0.758E-02    3.71       1.0  T
   3    -35.8068988  0.416383E-05  0.244E-02    3.72       1.0  T
   4    -35.8069054 -0.663452E-05  0.684E-03    3.71       3.0  T
   5    -35.8069060 -0.531821E-06  0.260E-03    3.71       7.8  T
   6    -35.8069060 -0.194830E-07  0.121E-03    3.71      16.9  T
   7    -35.8069060 -0.954783E-08  0.351E-04    3.71      58.2  T
   8    -35.8069060 -0.439911E-09  0.127E-04    3.71     160.2  T
     SCC iter.                  ...        0 min,  0.823 sec
     gradient                   ...        0 min,  0.154 sec
 * total energy  :   -35.2836142 Eh     change       -0.1484191E-02 Eh
   gradient norm :     0.0395566 Eh/α   predicted    -0.1448347E-02 (  -2.42%)
   displ. norm   :     0.5154141 α      lambda       -0.1845969E-02
   maximum displ.:     0.3352457 α      in ANC's #3, #2, #4, ...

........................................................................
.............................. CYCLE   14 ..............................
........................................................................
   1    -35.8022260 -0.358022E+02  0.198E-01    3.71       0.0  T
   2    -35.8022469 -0.209157E-04  0.114E-01    3.72       1.0  T
   3    -35.8022417  0.527655E-05  0.229E-02    3.73       1.0  T
   4    -35.8022501 -0.847588E-05  0.682E-03    3.73       3.0  T
   5    -35.8022506 -0.516154E-06  0.280E-03    3.73       7.3  T
   6    -35.8022507 -0.318177E-07  0.106E-03    3.73      19.2  T
   7    -35.8022507 -0.365178E-08  0.352E-04    3.73      58.0  T
   8    -35.8022507 -0.948440E-09  0.126E-04    3.73     162.5  T
     SCC iter.                  ...        0 min,  0.869 sec
     gradient                   ...        0 min,  0.136 sec
 * total energy  :   -35.2847386 Eh     change       -0.1124353E-02 Eh
   gradient norm :     0.0397245 Eh/α   predicted    -0.1168190E-02 (   3.90%)
   displ. norm   :     0.3414079 α      lambda       -0.1467297E-02
   maximum displ.:     0.2202694 α      in ANC's #2, #3, #4, ...

........................................................................
.............................. CYCLE   15 ..............................
........................................................................
   1    -35.8063493 -0.358063E+02  0.144E-01    3.72       0.0  T
   2    -35.8063583 -0.901957E-05  0.829E-02    3.72       1.0  T
   3    -35.8063557  0.262155E-05  0.158E-02    3.73       1.3  T
   4    -35.8063597 -0.405782E-05  0.443E-03    3.73       4.6  T
   5    -35.8063600 -0.235228E-06  0.190E-03    3.73      10.7  T
   6    -35.8063600 -0.987890E-08  0.665E-04    3.73      30.7  T
   7    -35.8063600 -0.195194E-08  0.190E-04    3.73     107.4  T
     SCC iter.                  ...        0 min,  0.688 sec
     gradient                   ...        0 min,  0.169 sec
 * total energy  :   -35.2856484 Eh     change       -0.9098600E-03 Eh
   gradient norm :     0.0442986 Eh/α   predicted    -0.8191795E-03 (  -9.97%)
   displ. norm   :     0.3719331 α      lambda       -0.1420574E-02
   maximum displ.:     0.2216895 α      in ANC's #3, #2, #4, ...

........................................................................
.............................. CYCLE   16 ..............................
........................................................................
   1    -35.8062958 -0.358063E+02  0.139E-01    3.70       0.0  T
   2    -35.8063143 -0.185820E-04  0.815E-02    3.71       1.0  T
   3    -35.8063128  0.157004E-05  0.198E-02    3.70       1.0  T
   4    -35.8063164 -0.367564E-05  0.465E-03    3.71       4.4  T
   5    -35.8063166 -0.186242E-06  0.237E-03    3.71       8.6  T
   6    -35.8063167 -0.285565E-07  0.858E-04    3.71      23.8  T
   7    -35.8063167 -0.407191E-08  0.349E-04    3.71      58.5  T
     SCC iter.                  ...        0 min,  0.850 sec
     gradient                   ...        0 min,  0.158 sec
 * total energy  :   -35.2863218 Eh     change       -0.6733362E-03 Eh
   gradient norm :     0.0361158 Eh/α   predicted    -0.8085489E-03 (  20.08%)
   displ. norm   :     0.3010529 α      lambda       -0.9670019E-03
   maximum displ.:     0.1768952 α      in ANC's #3, #2, #4, ...

........................................................................
.............................. CYCLE   17 ..............................
........................................................................
   1    -35.8100108 -0.358100E+02  0.115E-01    3.71       0.0  T
   2    -35.8100193 -0.852512E-05  0.666E-02    3.72       1.0  T
   3    -35.8100131  0.616793E-05  0.218E-02    3.72       1.0  T
   4    -35.8100213 -0.818611E-05  0.377E-03    3.72       5.4  T
   5    -35.8100214 -0.140717E-06  0.153E-03    3.72      13.3  T
   6    -35.8100214 -0.990637E-08  0.720E-04    3.72      28.3  T
   7    -35.8100215 -0.157593E-08  0.218E-04    3.72      93.7  T
     SCC iter.                  ...        0 min,  0.813 sec
     gradient                   ...        0 min,  0.163 sec
 * total energy  :   -35.2867369 Eh     change       -0.4151211E-03 Eh
   gradient norm :     0.0392502 Eh/α   predicted    -0.5273250E-03 (  27.03%)
   displ. norm   :     0.1530159 α      lambda       -0.4994365E-03
   maximum displ.:     0.0661588 α      in ANC's #2, #3, #11, ...

........................................................................
.............................. CYCLE   18 ..............................
........................................................................
   1    -35.8101193 -0.358101E+02  0.652E-02    3.72       0.0  T
   2    -35.8101247 -0.536076E-05  0.375E-02    3.72       1.0  T
   3    -35.8101238  0.907382E-06  0.115E-02    3.72       1.8  T
   4    -35.8101253 -0.149537E-05  0.293E-03    3.72       7.0  T
   5    -35.8101254 -0.964171E-07  0.115E-03    3.72      17.8  T
   6    -35.8101254 -0.956052E-08  0.521E-04    3.72      39.2  T
   7    -35.8101254 -0.968569E-09  0.175E-04    3.72     116.8  T
     SCC iter.                  ...        0 min,  0.783 sec
     gradient                   ...        0 min,  0.148 sec
 * total energy  :   -35.2869207 Eh     change       -0.1837992E-03 Eh
   gradient norm :     0.0206097 Eh/α   predicted    -0.2555686E-03 (  39.05%)
   displ. norm   :     0.1120424 α      lambda       -0.1921634E-03
   maximum displ.:     0.0713937 α      in ANC's #4, #3, #2, ...

........................................................................
.............................. CYCLE   19 ..............................
........................................................................
   1    -35.8137028 -0.358137E+02  0.496E-02    3.72       0.0  T
   2    -35.8137068 -0.393902E-05  0.300E-02    3.72       1.0  T
   3    -35.8137064  0.350992E-06  0.898E-03    3.71       2.3  T
   4    -35.8137072 -0.726899E-06  0.243E-03    3.71       8.4  T
   5    -35.8137073 -0.949214E-07  0.981E-04    3.71      20.8  T
   6    -35.8137073 -0.511759E-08  0.425E-04    3.71      48.0  T
     SCC iter.                  ...        0 min,  0.685 sec
     gradient                   ...        0 min,  0.143 sec
 * total energy  :   -35.2869209 Eh     change       -0.2390523E-06 Eh
   gradient norm :     0.0133100 Eh/α   predicted    -0.9729271E-04 (*******%)
   displ. norm   :     0.1320321 α      lambda       -0.2440170E-03
   maximum displ.:     0.0942124 α      in ANC's #3, #2, #4, ...

........................................................................
.............................. CYCLE   20 ..............................
........................................................................
   1    -35.8081069 -0.358081E+02  0.607E-02    3.71       0.0  T
   2    -35.8081084 -0.150792E-05  0.351E-02    3.71       1.0  T
   3    -35.8081082  0.248564E-06  0.565E-03    3.71       3.6  T
   4    -35.8081087 -0.486750E-06  0.185E-03    3.71      11.0  T
   5    -35.8081087 -0.364840E-07  0.955E-04    3.71      21.4  T
   6    -35.8081087 -0.275135E-08  0.284E-04    3.71      72.0  T
     SCC iter.                  ...        0 min,  0.715 sec
     gradient                   ...        0 min,  0.143 sec
 * total energy  :   -35.2869805 Eh     change       -0.5954979E-04 Eh
   gradient norm :     0.0168107 Eh/α   predicted    -0.1241385E-03 ( 108.46%)
   displ. norm   :     0.0425123 α      lambda       -0.1160425E-03
   maximum displ.:     0.0265055 α      in ANC's #3, #2, #8, ...
 * RMSD in coord.:     0.8996218 α      energy gain  -0.6915490E-01 Eh

generating ANC from model Hessian ...
Using Lindh-Hessian (1995)
 Shifting diagonal of input Hessian by    7.8287357513940233E-003
 Lowest  eigenvalues of input Hessian
    0.000000    0.000000    0.000000    0.000000    0.000000    0.000000
    0.010000    0.011820    0.013645    0.017245    0.018012    0.021708
    0.024344    0.028663    0.032074    0.034970    0.038719    0.044810
 Highest eigenvalues
    3.472346    4.573304    7.158699    9.480447   11.733663   14.885194


........................................................................
.............................. CYCLE   21 ..............................
........................................................................
   1    -35.8090848 -0.358091E+02  0.281E-02    3.71       0.0  T
   2    -35.8090855 -0.672066E-06  0.161E-02    3.71       1.3  T
   3    -35.8090854  0.594818E-07  0.357E-03    3.71       5.7  T
   4    -35.8090855 -0.131777E-06  0.854E-04    3.71      23.9  T
   5    -35.8090855 -0.642888E-08  0.423E-04    3.71      48.3  T
     SCC iter.                  ...        0 min,  0.541 sec
     gradient                   ...        0 min,  0.142 sec
 * total energy  :   -35.2870277 Eh     change       -0.4725579E-04 Eh
   gradient norm :     0.0074118 Eh/α   predicted     0.0000000E+00 (-100.00%)
   displ. norm   :     0.0254744 α      lambda       -0.3348218E-04
   maximum displ.:     0.0128397 α      in ANC's #6, #5, #1, ...

........................................................................
.............................. CYCLE   22 ..............................
........................................................................
   1    -35.8092796 -0.358093E+02  0.128E-02    3.71       0.0  T
   2    -35.8092797 -0.605324E-07  0.755E-03    3.71       2.7  T
   3    -35.8092796  0.453475E-07  0.168E-03    3.71      12.2  T
   4    -35.8092797 -0.604769E-07  0.395E-04    3.71      51.7  T
   5    -35.8092797 -0.160210E-08  0.186E-04    3.71     109.9  T
     SCC iter.                  ...        0 min,  0.552 sec
     gradient                   ...        0 min,  0.173 sec
 * total energy  :   -35.2870449 Eh     change       -0.1719769E-04 Eh
   gradient norm :     0.0095594 Eh/α   predicted    -0.1675320E-04 (  -2.58%)
   displ. norm   :     0.0356896 α      lambda       -0.2486852E-04
   maximum displ.:     0.0177454 α      in ANC's #6, #1, #5, ...

........................................................................
.............................. CYCLE   23 ..............................
........................................................................
   1    -35.8093225 -0.358093E+02  0.159E-02    3.71       0.0  T
   2    -35.8093226 -0.855643E-07  0.940E-03    3.71       2.2  T
   3    -35.8093225  0.859781E-07  0.235E-03    3.71       8.7  T
   4    -35.8093226 -0.111809E-06  0.462E-04    3.71      44.1  T
   5    -35.8093226 -0.168111E-08  0.218E-04    3.71      93.6  T
     SCC iter.                  ...        0 min,  0.624 sec
     gradient                   ...        0 min,  0.203 sec
 * total energy  :   -35.2870524 Eh     change       -0.7469688E-05 Eh
   gradient norm :     0.0078488 Eh/α   predicted    -0.1306192E-04 (  74.87%)
   displ. norm   :     0.0073608 α      lambda       -0.7975883E-05
   maximum displ.:     0.0051044 α      in ANC's #1, #4, #12, ...

........................................................................
.............................. CYCLE   24 ..............................
........................................................................
   1    -35.8092572 -0.358093E+02  0.432E-03    3.71       0.0  T
   2    -35.8092572 -0.277446E-08  0.255E-03    3.71       8.0  T
   3    -35.8092572  0.133745E-08  0.310E-04    3.71      65.8  T
   4    -35.8092572 -0.213566E-08  0.983E-05    3.71     207.6  T
     SCC iter.                  ...        0 min,  0.496 sec
     gradient                   ...        0 min,  0.153 sec
 * total energy  :   -35.2870565 Eh     change       -0.4085864E-05 Eh
   gradient norm :     0.0029928 Eh/α   predicted    -0.4361778E-05 (   6.75%)
   displ. norm   :     0.0071397 α      lambda       -0.2339320E-05
   maximum displ.:     0.0057666 α      in ANC's #1, #4, #12, ...

........................................................................
.............................. CYCLE   25 ..............................
........................................................................
   1    -35.8092253 -0.358092E+02  0.341E-03    3.71       0.0  T
   2    -35.8092253 -0.285461E-08  0.200E-03    3.71      10.2  T
   3    -35.8092253  0.435612E-09  0.241E-04    3.71      84.7  T
   4    -35.8092253 -0.939842E-09  0.839E-05    3.71     243.4  T
     SCC iter.                  ...        0 min,  0.513 sec
     gradient                   ...        0 min,  0.158 sec
 * total energy  :   -35.2870575 Eh     change       -0.1022169E-05 Eh
   gradient norm :     0.0018561 Eh/α   predicted    -0.1171761E-05 (  14.63%)
   displ. norm   :     0.0109647 α      lambda       -0.8072624E-06
   maximum displ.:     0.0090985 α      in ANC's #1, #4, #5, ...

........................................................................
.............................. CYCLE   26 ..............................
........................................................................
   1    -35.8092113 -0.358092E+02  0.456E-03    3.71       0.0  T
   2    -35.8092113 -0.226999E-08  0.268E-03    3.71       7.6  T
   3    -35.8092113  0.390550E-08  0.475E-04    3.71      43.0  T
   4    -35.8092113 -0.482007E-08  0.688E-05    3.71     296.9  T
     SCC iter.                  ...        0 min,  0.473 sec
     gradient                   ...        0 min,  0.152 sec
 * total energy  :   -35.2870581 Eh     change       -0.6079630E-06 Eh
   gradient norm :     0.0015768 Eh/α   predicted    -0.4125000E-06 ( -32.15%)
   displ. norm   :     0.0093887 α      lambda       -0.5144682E-06
   maximum displ.:     0.0081202 α      in ANC's #1, #4, #5, ...

........................................................................
.............................. CYCLE   27 ..............................
........................................................................
   1    -35.8092472 -0.358092E+02  0.403E-03    3.71       0.0  T
   2    -35.8092472 -0.242453E-08  0.237E-03    3.71       8.6  T
   3    -35.8092472  0.421514E-08  0.464E-04    3.71      44.0  T
   4    -35.8092472 -0.513700E-08  0.720E-05    3.71     283.5  T
     SCC iter.                  ...        0 min,  0.430 sec
     gradient                   ...        0 min,  0.159 sec
 * total energy  :   -35.2870584 Eh     change       -0.2436755E-06 Eh
   gradient norm :     0.0015374 Eh/α   predicted    -0.2611215E-06 (   7.16%)
   displ. norm   :     0.0039242 α      lambda       -0.2684451E-06
   maximum displ.:     0.0035571 α      in ANC's #1, #3, #2, ...

........................................................................
.............................. CYCLE   28 ..............................
........................................................................
   1    -35.8092462 -0.358092E+02  0.182E-03    3.71       0.0  T
   2    -35.8092462 -0.741288E-09  0.106E-03    3.71      19.3  T
   3    -35.8092462  0.255199E-09  0.147E-04    3.71     138.8  T
   4    -35.8092462 -0.370463E-09  0.417E-05    3.71     489.4  T
     SCC iter.                  ...        0 min,  0.465 sec
     gradient                   ...        0 min,  0.151 sec
 * total energy  :   -35.2870586 Eh     change       -0.2268923E-06 Eh
   gradient norm :     0.0004554 Eh/α   predicted    -0.1371563E-06 ( -39.55%)
   displ. norm   :     0.0037102 α      lambda       -0.1001196E-06
   maximum displ.:     0.0031033 α      in ANC's #1, #3, #4, ...

   *** GEOMETRY OPTIMIZATION CONVERGED AFTER 28 ITERATIONS ***

------------------------------------------------------------------------
 total energy gain   :        -0.0692330 Eh      -43.4444 kcal/mol
 total RMSD          :         0.9005621 a0        0.4766 Å
 total power (kW/mol):        -6.4918297 (step)   -6.3238 (real)
------------------------------------------------------------------------

 ANCopt (total)                0 d,  0 h,  0 min, 28.744 sec
 optimizer setup                ...        0 min,  0.000 sec (  0.001%)
 model hessian                  ...        0 min,  0.014 sec (  0.049%)
 ANC generation                 ...        0 min,  0.056 sec (  0.195%)
 coordinate transformation      ...        0 min,  0.001 sec (  0.003%)
 single point calculation       ...        0 min, 28.286 sec ( 98.404%)
 optimization log               ...        0 min,  0.004 sec (  0.015%)
 hessian update                 ...        0 min,  0.317 sec (  1.104%)
 rational function              ...        0 min,  0.062 sec (  0.216%)

================
 final structure:
================
24
 xtb: 6.5.0 (97a52f5)
C           -0.78115878841632       -0.34710866864364       -0.09319019093805
N            0.43269957463867       -0.67842741389391        0.56063865086804
C            1.58438259475271       -0.02582939490862        0.20296851944098
C            2.61161973807806        0.20781184036025        1.31180779638963
C            0.33204499793379       -1.35243669552267        1.83821034715818
O            1.76994691559160        0.43753322366366       -0.90361376658673
C           -1.90355234064049        0.01103156906136        0.64764020728852
C           -3.15236379309709        0.33347832195224       -1.37865644826688
C           -3.08080630499066        0.34519307056532        0.00354377174692
C           -2.03579386699280       -0.01955871978294       -2.11637695298439
C           -0.85682017773241       -0.36699286473926       -1.48208448192427
H            1.18067816863059       -2.02443368445762        1.96343533941721
H           -0.57949220082186       -1.94765014699702        1.84210017620535
H            0.30771588833508       -0.66210692320864        2.68731164950378
N            3.75468996357582        0.98352780456427        0.87064887296481
H            2.98759620014970       -0.73535100165922        1.72256040292984
H            2.13077135280999        0.74112061096331        2.13880343796456
H           -1.86130050572025        0.04615512569745        1.72559894622722
H           -3.94477363631778        0.62368845416850        0.58911715992814
H           -2.08248267634908       -0.03413270773037       -3.19501923289276
H            0.00978642011356       -0.64388461107155       -2.05809062399814
H            4.14036700441996        0.53852477991483        0.03918635403499
H           -4.07309882737585        0.59870006988401       -1.87611043974596
H            3.41933527942463        1.87814896181966        0.51676550526963

 Bond Distances (Angstroems)
 ---------------------------
C1-N2=1.4180         C1-C7=1.3917         C1-C11=1.3911        N2-C1=1.4180         N2-C3=1.3712         N2-C5=1.4480         
C3-N2=1.3712         C3-C4=1.5295         C3-O6=1.2139         C4-C3=1.5295         C4-N15=1.4502        C4-H16=1.0953        
C4-H17=1.0952        C5-N2=1.4480         C5-H12=1.0897        C5-H13=1.0887        C5-H14=1.0946        O6-C3=1.2139         
C7-C1=1.3917         C7-C9=1.3829         C7-H18=1.0794        C8-C9=1.3841         C8-C10=1.3841        C8-H23=1.0796        
C9-C7=1.3829         C9-C8=1.3841         C9-H19=1.0802        C10-C8=1.3841        C10-C11=1.3831       C10-H20=1.0798       
C11-C1=1.3911        C11-C10=1.3831       C11-H21=1.0768       H12-C5=1.0897        H13-C5=1.0887        H14-C5=1.0946        
N15-C4=1.4502        N15-H22=1.0189       N15-H24=1.0188       H16-C4=1.0953        H17-C4=1.0952        H18-C7=1.0794        
H19-C9=1.0802        H20-C10=1.0798       H21-C11=1.0768       H22-N15=1.0189       H23-C8=1.0796        H24-N15=1.0188       
 C  H  Rav=1.0859 sigma=0.0071  Rmin=1.0768  Rmax=1.0953    10
 C  C  Rav=1.4066 sigma=0.0503  Rmin=1.3829  Rmax=1.5295     7
 N  H  Rav=1.0189 sigma=0.0000  Rmin=1.0188  Rmax=1.0189     2
 N  C  Rav=1.4218 sigma=0.0319  Rmin=1.3712  Rmax=1.4502     4
 O  C  Rav=1.2139 sigma=0.0000  Rmin=1.2139  Rmax=1.2139     1

 selected bond angles (degree)
 --------------------
C7-C1-N2=120.34                C11-C1-N2=120.24               C11-C1-C7=119.43               C3-N2-C1=119.18                
C5-N2-C1=117.13                C5-N2-C3=120.67                C4-C3-N2=116.60                O6-C3-N2=123.22                
O6-C3-C4=119.99                N15-C4-C3=112.99               H16-C4-C3=111.77               H16-C4-N15=107.71              
H17-C4-C3=109.08               H17-C4-N15=108.38              H17-C4-H16=106.67              H12-C5-N2=109.53               
H13-C5-N2=108.41               H13-C5-H12=108.33              H14-C5-N2=113.10               H14-C5-H12=108.49              
H14-C5-H13=108.87              C9-C7-C1=120.05                H18-C7-C1=120.56               H18-C7-C9=119.38               
C10-C8-C9=119.52               H23-C8-C9=120.14               H23-C8-C10=120.34              C8-C9-C7=120.47                
H19-C9-C7=119.39               H19-C9-C8=120.14               C11-C10-C8=120.48              H20-C10-C8=120.07              
H20-C10-C11=119.45             

 selected dihedral angles (degree)
 ---------------------------------
C3-N2-C1-C7=233.57            C3-N2-C1-C11= 53.05           C5-N2-C1-C7= 34.06            C5-N2-C1-C11=213.54           
C4-C3-N2-C1=147.07            C4-C3-N2-C5=347.28            O6-C3-N2-C1=332.13            O6-C3-N2-C5=172.34            
N15-C4-C3-N2=184.03           N15-C4-C3-O6=359.14           H16-C4-C3-N2= 62.35           H16-C4-C3-O6=237.46           
H17-C4-C3-N2=304.64           H17-C4-C3-O6=119.75           H12-C5-N2-C1=148.00           H12-C5-N2-C3=308.19           
H13-C5-N2-C1= 29.98           H13-C5-N2-C3=190.17           H14-C5-N2-C1=269.14           H14-C5-N2-C3= 69.33           
C9-C7-C1-N2=179.39            C9-C7-C1-C11=359.91           H18-C7-C1-N2=  0.36           H18-C7-C1-C11=180.87          
C8-C9-C7-C1=359.67            C8-C9-C7-H18=178.72           H19-C9-C7-C1=180.14           H19-C9-C7-H18=359.19          
C7-C9-C8-C10=  0.18           C7-C9-C8-H23=180.22           H19-C9-C8-C10=179.71          H19-C9-C8-H23=359.75          
C11-C10-C8-C9=  0.40          C11-C10-C8-H23=180.36         H20-C10-C8-C9=179.84          H20-C10-C8-H23=359.80         
           -------------------------------------------------
          |                Final Singlepoint                |
           -------------------------------------------------

          ...................................................
          :                      SETUP                      :
          :.................................................:
          :  # basis functions                  60          :
          :  # atomic orbitals                  60          :
          :  # shells                           36          :
          :  # electrons                        64          :
          :  max. iterations                   250          :
          :  Hamiltonian                  GFN2-xTB          :
          :  restarted?                      false          :
          :  GBSA solvation                  false          :
          :  PC potential                    false          :
          :  electronic temp.          300.0000000     K    :
          :  accuracy                    1.0000000          :
          :  -> integral cutoff          0.2500000E+02      :
          :  -> integral neglect         0.1000000E-07      :
          :  -> SCF convergence          0.1000000E-05 Eh   :
          :  -> wf. convergence          0.1000000E-03 e    :
          :  Broyden damping             0.4000000          :
          ...................................................

 iter      E             dE          RMSdq      gap      omega  full diag
   1    -35.8092462 -0.358092E+02  0.178E-05    3.71       0.0  T
   2    -35.8092462 -0.873968E-12  0.101E-05    3.71    2027.5  T
   3    -35.8092462 -0.270006E-12  0.602E-06    3.71    3390.3  T

   *** convergence criteria satisfied after 3 iterations ***

         #    Occupation            Energy/Eh            Energy/eV
      -------------------------------------------------------------
         1        2.0000           -0.7043915             -19.1675
       ...           ...                  ...                  ...
        26        2.0000           -0.4392182             -11.9517
        27        2.0000           -0.4357670             -11.8578
        28        2.0000           -0.4215482             -11.4709
        29        2.0000           -0.4093738             -11.1396
        30        2.0000           -0.4051874             -11.0257
        31        2.0000           -0.3861332             -10.5072
        32        2.0000           -0.3694224             -10.0525 (HOMO)
        33                         -0.2330589              -6.3419 (LUMO)
        34                         -0.2258455              -6.1456
        35                         -0.2109708              -5.7408
        36                         -0.0953035              -2.5933
        37                         -0.0081938              -0.2230
       ...                                ...                  ...
        60                          0.6655329              18.1101
      -------------------------------------------------------------
                  HL-Gap            0.1363635 Eh            3.7106 eV
             Fermi-level           -0.3012406 Eh           -8.1972 eV

 SCC (total)                   0 d,  0 h,  0 min,  0.576 sec
 SCC setup                      ...        0 min,  0.011 sec (  1.825%)
 Dispersion                     ...        0 min,  0.017 sec (  2.945%)
 classical contributions        ...        0 min,  0.010 sec (  1.792%)
 integral evaluation            ...        0 min,  0.032 sec (  5.626%)
 iterations                     ...        0 min,  0.332 sec ( 57.603%)
 molecular gradient             ...        0 min,  0.173 sec ( 30.126%)
 printout                       ...        0 min,  0.000 sec (  0.036%)

         :::::::::::::::::::::::::::::::::::::::::::::::::::::
         ::                     SUMMARY                     ::
         :::::::::::::::::::::::::::::::::::::::::::::::::::::
         :: total energy             -35.287058598631 Eh    ::
         :: gradient norm              0.000455348940 Eh/a0 ::
         :: HOMO-LUMO gap              3.710640259555 eV    ::
         ::.................................................::
         :: SCC energy               -35.809246179732 Eh    ::
         :: -> isotropic ES            0.046136734311 Eh    ::
         :: -> anisotropic ES          0.003673959019 Eh    ::
         :: -> anisotropic XC          0.020236539325 Eh    ::
         :: -> dispersion             -0.020793199207 Eh    ::
         :: repulsion energy           0.522087312763 Eh    ::
         :: add. restraining           0.000023553101 Eh    ::
         :: total charge              -0.000000000000 e     ::
         :::::::::::::::::::::::::::::::::::::::::::::::::::::

           -------------------------------------------------
          |                Property Printout                |
           -------------------------------------------------

    * Orbital Energies and Occupations

         #    Occupation            Energy/Eh            Energy/eV
      -------------------------------------------------------------
         1        2.0000           -0.7043915             -19.1675
       ...           ...                  ...                  ...
        20        2.0000           -0.4961101             -13.4998
        21        2.0000           -0.4874019             -13.2629
        22        2.0000           -0.4838352             -13.1658
        23        2.0000           -0.4800486             -13.0628
        24        2.0000           -0.4781323             -13.0106
        25        2.0000           -0.4516841             -12.2910
        26        2.0000           -0.4392182             -11.9517
        27        2.0000           -0.4357670             -11.8578
        28        2.0000           -0.4215482             -11.4709
        29        2.0000           -0.4093738             -11.1396
        30        2.0000           -0.4051874             -11.0257
        31        2.0000           -0.3861332             -10.5072
        32        2.0000           -0.3694224             -10.0525 (HOMO)
        33                         -0.2330589              -6.3419 (LUMO)
        34                         -0.2258455              -6.1456
        35                         -0.2109708              -5.7408
        36                         -0.0953035              -2.5933
        37                         -0.0081938              -0.2230
        38                          0.0666303               1.8131
        39                          0.0769391               2.0936
        40                          0.1019709               2.7748
        41                          0.1175007               3.1974
        42                          0.1327804               3.6131
        43                          0.1356141               3.6902
       ...                                ...                  ...
        60                          0.6655329              18.1101
      -------------------------------------------------------------
                  HL-Gap            0.1363635 Eh            3.7106 eV
             Fermi-level           -0.3012406 Eh           -8.1972 eV

     #   Z          covCN         q      C6AA      α(0)
     1   6 C        2.925     0.070    26.439     8.432
     2   7 N        2.737    -0.103    23.267     7.164
     3   6 C        2.765     0.257    22.679     7.799
     4   6 C        3.733    -0.007    20.797     6.509
     5   6 C        3.698    -0.047    21.579     6.644
     6   8 O        0.858    -0.425    22.179     6.314
     7   6 C        2.922    -0.050    29.249     8.869
     8   6 C        2.919    -0.034    28.857     8.809
     9   6 C        2.921    -0.030    28.749     8.793
    10   6 C        2.921    -0.027    28.678     8.782
    11   6 C        2.922    -0.037    28.926     8.820
    12   1 H        0.925     0.055     2.258     2.350
    13   1 H        0.925     0.066     2.132     2.283
    14   1 H        0.924     0.045     2.386     2.416
    15   7 N        2.628    -0.335    28.619     7.945
    16   1 H        0.924     0.050     2.325     2.384
    17   1 H        0.924     0.048     2.343     2.394
    18   1 H        0.926     0.032     2.553     2.499
    19   1 H        0.926     0.033     2.542     2.493
    20   1 H        0.926     0.038     2.469     2.457
    21   1 H        0.926     0.064     2.157     2.296
    22   1 H        0.860     0.154     1.377     1.838
    23   1 H        0.926     0.034     2.532     2.488
    24   1 H        0.860     0.150     1.399     1.853

 Mol. C6AA /au·bohr⁶  :       6157.360065
 Mol. C8AA /au·bohr⁸  :     142341.921868
 Mol. α(0) /au        :        122.631699


Wiberg/Mayer (AO) data.
largest (>0.10) Wiberg bond orders for each atom

 ---------------------------------------------------------------------------
     #   Z sym  total        # sym  WBO       # sym  WBO       # sym  WBO
 ---------------------------------------------------------------------------
     1   6 C    3.961 --    11 C    1.387     7 C    1.385     2 N    1.019
                             8 C    0.102
     2   7 N    3.487 --     3 C    1.183     1 C    1.019     5 C    1.002
                             6 O    0.168
     3   6 C    3.944 --     6 O    1.708     2 N    1.183     4 C    0.952
     4   6 C    3.991 --    15 N    1.040    16 H    0.955    17 H    0.954
                             3 C    0.952
     5   6 C    3.973 --     2 N    1.002    13 H    0.980    12 H    0.976
                            14 H    0.973
     6   8 O    2.024 --     3 C    1.708     2 N    0.168
     7   6 C    3.990 --     9 C    1.448     1 C    1.385    18 H    0.968
                            10 C    0.109
     8   6 C    3.990 --    10 C    1.437     9 C    1.435    23 H    0.971
                             1 C    0.102
     9   6 C    3.992 --     7 C    1.448     8 C    1.435    19 H    0.971
                            11 C    0.109
    10   6 C    3.992 --    11 C    1.446     8 C    1.437    20 H    0.971
                             7 C    0.109
    11   6 C    3.988 --    10 C    1.446     1 C    1.387    21 H    0.966
                             9 C    0.109
    12   1 H    0.996 --     5 C    0.976
    13   1 H    0.996 --     5 C    0.980
    14   1 H    0.998 --     5 C    0.973
    15   7 N    3.006 --     4 C    1.040    24 H    0.961    22 H    0.959
    16   1 H    0.997 --     4 C    0.955
    17   1 H    0.998 --     4 C    0.954
    18   1 H    0.999 --     7 C    0.968
    19   1 H    0.998 --     9 C    0.971
    20   1 H    0.998 --    10 C    0.971
    21   1 H    0.996 --    11 C    0.966
    22   1 H    0.976 --    15 N    0.959
    23   1 H    0.999 --     8 C    0.971
    24   1 H    0.977 --    15 N    0.961
 ---------------------------------------------------------------------------

Topologies differ in total number of bonds
Writing topology from bond orders to xtbtopo.mol

molecular dipole:
                 x           y           z       tot (Debye)
 q only:       -0.601      -0.618       0.930
   full:       -0.839      -0.649       0.926       3.577
molecular quadrupole (traceless):
                xx          xy          yy          xz          yz          zz
 q only:       -2.409      -2.189       0.288       2.869      -1.485       2.121
  q+dip:       -4.609      -5.713      -0.121      -0.162      -1.182       4.730
   full:       -5.565      -4.770       2.427      -0.423      -1.539       3.138

           -------------------------------------------------
          |                Geometry Summary                 |
           -------------------------------------------------

      molecular mass/u    :      164.2047234
   center of mass at/Å    :        0.0070044      -0.0301231      -0.0065205
  moments of inertia/u·Å² :        0.2390471E+03   0.9088460E+03   0.1049680E+04
rotational constants/cm⁻¹ :        0.7052011E-01   0.1854839E-01   0.1605978E-01

 * 23 selected distances

     #   Z          #   Z                                           value/Å
     1   6 C        2   7 N                                       1.4179974
     2   7 N        3   6 C                                       1.3711988
     2   7 N        5   6 C                                       1.4479674
     3   6 C        6   8 O                                       1.2139455
     1   6 C        7   6 C                                       1.3917118
     7   6 C        9   6 C                                       1.3829141
     8   6 C        9   6 C                                       1.3841010
     8   6 C       10   6 C                                       1.3840504
     1   6 C       11   6 C                                       1.3910959
    10   6 C       11   6 C                                       1.3831185
     5   6 C       12   1 H                                       1.0896971
     5   6 C       13   1 H                                       1.0886664
     5   6 C       14   1 H                                       1.0945868
     4   6 C       15   7 N                                       1.4501608 (max)
     4   6 C       16   1 H                                       1.0952773
     4   6 C       17   1 H                                       1.0952422
     7   6 C       18   1 H                                       1.0793582
     9   6 C       19   1 H                                       1.0802294
    10   6 C       20   1 H                                       1.0797507
    11   6 C       21   1 H                                       1.0767819
    15   7 N       22   1 H                                       1.0188742
     8   6 C       23   1 H                                       1.0796093
    15   7 N       24   1 H                                       1.0188442 (min)

 * 5 distinct bonds (by element types)

   Z      Z             #   av. dist./Å        max./Å        min./Å
   1 H    6 C          10     1.0859199     1.0952773     1.0767819
   6 C    6 C           6     1.3861653     1.3917118     1.3829141
   1 H    7 N           2     1.0188592     1.0188742     1.0188442
   6 C    7 N           4     1.4218311     1.4501608     1.3711988
   6 C    8 O           1     1.2139455     1.2139455     1.2139455


optimized geometry written to: xtbopt.xyz


           -------------------------------------------------
          | TOTAL ENERGY              -35.287058598631 Eh   |
          | GRADIENT NORM               0.000455348940 Eh/α |
          | HOMO-LUMO GAP               3.710640259555 eV   |
           -------------------------------------------------
########################################################################
[WARNING] Runtime exception occurred
-1- restart_readRestart: Number of electron missmatch in restart file.
########################################################################

------------------------------------------------------------------------
 * finished run on 2023/11/18 at 08:28:46.296     
------------------------------------------------------------------------
 total:
 * wall-time:     0 d,  0 h,  0 min, 30.969 sec
 *  cpu-time:     0 d,  0 h, 20 min, 43.512 sec
 * ratio c/w:    40.154 speedup
 SCF:
 * wall-time:     0 d,  0 h,  0 min,  1.499 sec
 *  cpu-time:     0 d,  0 h,  1 min,  2.032 sec
 * ratio c/w:    41.381 speedup
 ANC optimizer:
 * wall-time:     0 d,  0 h,  0 min, 29.334 sec
 *  cpu-time:     0 d,  0 h, 19 min, 36.482 sec
 * ratio c/w:    40.106 speedup

