
    -----------------------------------------------------------------------
          Psi4: An Open-Source Ab Initio Electronic Structure Package
                               Psi4 1.6 release

                         Git: Rev {HEAD} 77475b5 


    D. G. A. Smith, L. A. Burns, A. C. Simmonett, R. M. Parrish,
    M. C. Schieber, R. Galvelis, P. Kraus, H. Kruse, R. Di Remigio,
    A. Alenaizan, A. M. James, S. Lehtola, J. P. Misiewicz, M. Scheurer,
    R. A. Shaw, J. B. Schriber, Y. Xie, Z. L. Glick, D. A. Sirianni,
    J. S. O'Brien, J. M. Waldrop, A. Kumar, E. G. Hohenstein,
    B. P. Pritchard, B. R. Brooks, H. F. Schaefer III, A. Yu. Sokolov,
    K. Patkowski, A. E. DePrince III, U. Bozkaya, R. A. King,
    F. A. Evangelista, J. M. Turney, T. D. Crawford, C. D. Sherrill,
    J. Chem. Phys. 152(18) 184108 (2020). https://doi.org/10.1063/5.0006002

                            Additional Code Authors
    E. T. Seidl, C. L. Janssen, E. F. Valeev, M. L. Leininger,
    J. F. Gonthier, R. M. Richard, H. R. McAlexander, M. Saitow, X. Wang,
    P. Verma, M. H. Lechner, and A. Jiang

             Previous Authors, Complete List of Code Contributors,
                       and Citations for Specific Modules
    https://github.com/psi4/psi4/blob/master/codemeta.json
    https://github.com/psi4/psi4/graphs/contributors
    http://psicode.org/psi4manual/master/introduction.html#citing-psifour

    -----------------------------------------------------------------------


    Psi4 started on: Saturday, 18 November 2023 08:32AM

    Process ID: 1128069
    Host:       node165.bme.utexas.edu
    PSIDATADIR: /home/liuchw/anaconda3/envs/poltype2022/share/psi4
    Memory:     500.0 MiB
    Threads:    1
    
  ==> Input File <==

--------------------------------------------------------------------------
molecule { 
0 1
 C   -0.780356   -0.274807    0.183717
 N    0.298482   -0.449264    1.068211
 C    1.446687    0.389529    0.895831
 C    2.612380   -0.267592    0.184148
 C    0.031653   -0.696291    2.477002
 O    1.526258    1.478678    1.396293
 C   -2.089896   -0.086072    0.625012
 C   -2.892743   -0.025116   -1.641246
 C   -3.129589    0.027327   -0.280076
 C   -1.593168   -0.188257   -2.089924
 C   -0.550809   -0.313764   -1.193228
 H    0.837334   -1.317997    2.870480
 H   -0.912752   -1.221001    2.582608
 H   -0.017291    0.229286    3.062026
 N    3.801812    0.557117    0.093600
 H    2.332391   -0.593821   -0.820794
 H    2.853961   -1.181133    0.740050
 H   -2.312260   -0.004406    1.676984
 H   -4.134630    0.171175    0.089295
 H   -1.386348   -0.223847   -3.149504
 H    0.450564   -0.446850   -1.569997
 H    3.547168    1.445738   -0.335225
 H   -3.707028    0.067196   -2.343364
 H    4.078167    0.831171    1.035300
}
memory 20GB
set_num_threads(5)
psi4_io.set_default_path("/scratch/liuchw/Psi4-3_25_Index_0_GrowFragment_3-farH_in17")
set freeze_core True
E, wfn = energy('wb97x-d/6-311+G*',return_wfn=True)
oeprop(wfn,"WIBERG_LOWDIN_INDICES")
clean()
--------------------------------------------------------------------------

  Memory set to  18.626 GiB by Python driver.
  Threads set to 5 by Python driver.

Scratch directory: /scratch/liuchw/Psi4-3_25_Index_0_GrowFragment_3-farH_in17/

*** tstart() called on node165.bme.utexas.edu
*** at Sat Nov 18 08:32:34 2023

   => Loading Basis Set <=

    Name: 6-311+G*
    Role: ORBITAL
    Keyword: BASIS
    atoms 1, 3-5, 7-11 entry C          line   130 file /home/liuchw/anaconda3/envs/poltype2022/share/psi4/basis/6-311pgs.gbs 
    atoms 2, 15        entry N          line   151 file /home/liuchw/anaconda3/envs/poltype2022/share/psi4/basis/6-311pgs.gbs 
    atoms 6            entry O          line   172 file /home/liuchw/anaconda3/envs/poltype2022/share/psi4/basis/6-311pgs.gbs 
    atoms 12-14, 16-24 entry H          line    47 file /home/liuchw/anaconda3/envs/poltype2022/share/psi4/basis/6-311pgs.gbs 

   => WB97X-D: Empirical Dispersion <=

    Chai and Head-Gordon Dispersion Correction
    Chai, J.-D.; Head-Gordon, M. (2010), J. Chem. Phys., 132: 6615-6620

        s6 =       1.000000


         ---------------------------------------------------------
                                   SCF
               by Justin Turney, Rob Parrish, Andy Simmonett
                          and Daniel G. A. Smith
                              RKS Reference
                        5 Threads,  19073 MiB Core
         ---------------------------------------------------------

  ==> Geometry <==

    Molecular point group: c1
    Full point group: C1

    Geometry (in Angstrom), charge = 0, multiplicity = 1:

       Center              X                  Y                   Z               Mass       
    ------------   -----------------  -----------------  -----------------  -----------------
         C           -0.781093498911    -0.309415214642    -0.013761548433    12.000000000000
         N            0.297744501089    -0.483872214642     0.870732451567    14.003074004430
         C            1.445949501089     0.354920785358     0.698352451567    12.000000000000
         C            2.611642501089    -0.302200214642    -0.013330548433    12.000000000000
         C            0.030915501089    -0.730899214642     2.279523451567    12.000000000000
         O            1.525520501089     1.444069785358     1.198814451567    15.994914619570
         C           -2.090633498911    -0.120680214642     0.427533451567    12.000000000000
         C           -2.893480498911    -0.059724214642    -1.838724548433    12.000000000000
         C           -3.130326498911    -0.007281214642    -0.477554548433    12.000000000000
         C           -1.593905498911    -0.222865214642    -2.287402548433    12.000000000000
         C           -0.551546498911    -0.348372214642    -1.390706548433    12.000000000000
         H            0.836596501089    -1.352605214642     2.673001451567     1.007825032230
         H           -0.913489498911    -1.255609214642     2.385129451567     1.007825032230
         H           -0.018028498911     0.194677785358     2.864547451567     1.007825032230
         N            3.801074501089     0.522508785358    -0.103878548433    14.003074004430
         H            2.331653501089    -0.628429214642    -1.018272548433     1.007825032230
         H            2.853223501089    -1.215741214642     0.542571451567     1.007825032230
         H           -2.312997498911    -0.039014214642     1.479505451567     1.007825032230
         H           -4.135367498911     0.136566785358    -0.108183548433     1.007825032230
         H           -1.387085498911    -0.258455214642    -3.346982548433     1.007825032230
         H            0.449826501089    -0.481458214642    -1.767475548433     1.007825032230
         H            3.546430501089     1.411129785358    -0.532703548433     1.007825032230
         H           -3.707765498911     0.032587785358    -2.540842548433     1.007825032230
         H            4.077429501089     0.796562785358     0.837821451567     1.007825032230

  Running in c1 symmetry.

  Rotational constants: A =      0.06129  B =      0.01955  C =      0.01634 [cm^-1]
  Rotational constants: A =   1837.48603  B =    586.22133  C =    489.89914 [MHz]
  Nuclear repulsion =  685.572547258183249

  Charge       = 0
  Multiplicity = 1
  Electrons    = 88
  Nalpha       = 44
  Nbeta        = 44

  ==> Algorithm <==

  SCF Algorithm Type is DF.
  DIIS enabled.
  MOM disabled.
  Fractional occupation disabled.
  Guess Type is SAD.
  Energy threshold   = 1.00e-06
  Density threshold  = 1.00e-06
  Integral threshold = 1.00e-12

  ==> Primary Basis <==

  Basis Set: 6-311+G*
    Blend: 6-311+G*
    Number of shells: 156
    Number of basis functions: 300
    Number of Cartesian functions: 312
    Spherical Harmonics?: true
    Max angular momentum: 2

  ==> DFT Potential <==

   => LibXC <=

    Version 5.1.5
    S. Lehtola, C. Steigemann, M. J. Oliveira, and M. A. Marques, SoftwareX 7, 1 (2018) (10.1016/j.softx.2017.11.002)

   => Composite Functional: WB97X-D <= 

    wB97X-D Hyb-GGA Exchange-Correlation Functional

    J.-D. Chai and M. Head-Gordon, Phys. Chem. Chem. Phys. 10, 6615 (2008) (10.1039/B810189B)

    Deriv               =              1
    GGA                 =           TRUE
    Meta                =          FALSE

    Exchange Hybrid     =           TRUE
    MP2 Hybrid          =          FALSE

   => Exchange-Correlation Functionals <=

    1.0000   wB97X-D range-separated functional

   => Exact (HF) Exchange <=

    0.7780            HF,LR [omega = 0.2000]
    0.2220               HF 

   => LibXC Density Thresholds  <==

    XC_HYB_GGA_XC_WB97X_D:  1.00E-14 

   => Molecular Quadrature <=

    Radial Scheme          =       TREUTLER
    Pruning Scheme         =           NONE
    Nuclear Scheme         =       TREUTLER

    Blocking Scheme        =         OCTREE
    BS radius alpha        =              1
    Pruning alpha          =              1
    Radial Points          =             75
    Spherical Points       =            302
    Total Points           =         503237
    Total Blocks           =           3677
    Max Points             =            256
    Max Functions          =            273
    Weights Tolerance      =       1.00E-15

   => Loading Basis Set <=

    Name: (6-311+G* AUX)
    Role: JKFIT
    Keyword: DF_BASIS_SCF
    atoms 1, 3-5, 7-11 entry C          line   200 file /home/liuchw/anaconda3/envs/poltype2022/share/psi4/basis/heavy-aug-cc-pvtz-jkfit.gbs 
    atoms 2, 15        entry N          line   262 file /home/liuchw/anaconda3/envs/poltype2022/share/psi4/basis/heavy-aug-cc-pvtz-jkfit.gbs 
    atoms 6            entry O          line   324 file /home/liuchw/anaconda3/envs/poltype2022/share/psi4/basis/heavy-aug-cc-pvtz-jkfit.gbs 
    atoms 12-14, 16-24 entry H          line   116 file /home/liuchw/anaconda3/envs/poltype2022/share/psi4/basis/heavy-aug-cc-pvtz-jkfit.gbs 

  ==> Integral Setup <==

  DFHelper Memory: AOs need 2.943 GiB; user supplied 11.147 GiB. Using in-core AOs.

  ==> MemDFJK: Density-Fitted J/K Matrices <==

    J tasked:                   Yes
    K tasked:                   Yes
    wK tasked:                  Yes
    Omega:                2.000E-01
    OpenMP threads:               5
    Memory [MiB]:             11414
    Algorithm:                 Core
    Schwarz Cutoff:           1E-12
    Mask sparsity (%):      10.2911
    Fitting Condition:        1E-10

   => Auxiliary Basis Set <=

  Basis Set: (6-311+G* AUX)
    Blend: HEAVY-AUG-CC-PVTZ-JKFIT
    Number of shells: 480
    Number of basis functions: 1608
    Number of Cartesian functions: 1992
    Spherical Harmonics?: true
    Max angular momentum: 4

  Cached 100.0% of DFT collocation blocks in 2.823 [GiB].

  Minimum eigenvalue in the overlap matrix is 1.5253552551E-06.
  Reciprocal condition number of the overlap matrix is 1.0620515837E-07.
    Using symmetric orthogonalization.

  ==> Pre-Iterations <==

  SCF Guess: Superposition of Atomic Densities via on-the-fly atomic UHF (no occupation information).

   -------------------------
    Irrep   Nso     Nmo    
   -------------------------
     A        300     300 
   -------------------------
    Total     300     300
   -------------------------

  ==> Iterations <==

                           Total Energy        Delta E     RMS |[F,P]|

   @DF-RKS iter SAD:  -534.26913362821847   -5.34269e+02   0.00000e+00 
   @DF-RKS iter   1:  -534.22066271612437    4.84709e-02   3.78019e-03 ADIIS/DIIS
   @DF-RKS iter   2:  -534.42270203564522   -2.02039e-01   3.33165e-03 ADIIS/DIIS
   @DF-RKS iter   3:  -534.81984685883936   -3.97145e-01   6.48134e-04 ADIIS/DIIS
   @DF-RKS iter   4:  -534.83254540154576   -1.26985e-02   2.37888e-04 ADIIS/DIIS
   @DF-RKS iter   5:  -534.83444473786176   -1.89934e-03   6.08876e-05 DIIS
   @DF-RKS iter   6:  -534.83458550481203   -1.40767e-04   1.71623e-05 DIIS
   @DF-RKS iter   7:  -534.83459903277526   -1.35280e-05   3.33747e-06 DIIS
   @DF-RKS iter   8:  -534.83460003016330   -9.97388e-07   1.73791e-06 DIIS
   @DF-RKS iter   9:  -534.83460023711791   -2.06955e-07   5.68300e-07 DIIS
  Energy and wave function converged.


  ==> Post-Iterations <==

   Electrons on quadrature grid:
      Ntotal   =   87.9998850028 ; deviation = -1.150e-04 

    Orbital Energies [Eh]
    ---------------------

    Doubly Occupied:                                                      

       1A    -19.262785     2A    -14.456393     3A    -14.421166  
       4A    -10.413848     5A    -10.339028     6A    -10.329201  
       7A    -10.318940     8A    -10.292023     9A    -10.291749  
      10A    -10.289245    11A    -10.288795    12A    -10.283648  
      13A     -1.187742    14A     -1.057499    15A     -1.001291  
      16A     -0.961792    17A     -0.861575    18A     -0.857005  
      19A     -0.831212    20A     -0.784414    21A     -0.720574  
      22A     -0.706342    23A     -0.660237    24A     -0.626695  
      25A     -0.606877    26A     -0.596932    27A     -0.576511  
      28A     -0.572738    29A     -0.548118    30A     -0.542155  
      31A     -0.522876    32A     -0.516108    33A     -0.510040  
      34A     -0.496697    35A     -0.487781    36A     -0.471135  
      37A     -0.459608    38A     -0.445947    39A     -0.434331  
      40A     -0.386671    41A     -0.380262    42A     -0.340093  
      43A     -0.338351    44A     -0.291390  

    Virtual:                                                              

      45A      0.031105    46A      0.050924    47A      0.055054  
      48A      0.060302    49A      0.068091    50A      0.070213  
      51A      0.082805    52A      0.087845    53A      0.089509  
      54A      0.104144    55A      0.110347    56A      0.114374  
      57A      0.116576    58A      0.120202    59A      0.134817  
      60A      0.140894    61A      0.150696    62A      0.151477  
      63A      0.153459    64A      0.156063    65A      0.166214  
      66A      0.175992    67A      0.187908    68A      0.190440  
      69A      0.194808    70A      0.199703    71A      0.202958  
      72A      0.211853    73A      0.214029    74A      0.218688  
      75A      0.224639    76A      0.228984    77A      0.239256  
      78A      0.240846    79A      0.241955    80A      0.247607  
      81A      0.252716    82A      0.256821    83A      0.264795  
      84A      0.266622    85A      0.269674    86A      0.274916  
      87A      0.278668    88A      0.282025    89A      0.291962  
      90A      0.292316    91A      0.299824    92A      0.304552  
      93A      0.306568    94A      0.309587    95A      0.311406  
      96A      0.321888    97A      0.326347    98A      0.330586  
      99A      0.336959   100A      0.347092   101A      0.350492  
     102A      0.357116   103A      0.362732   104A      0.377893  
     105A      0.384086   106A      0.392148   107A      0.396445  
     108A      0.406457   109A      0.410511   110A      0.413242  
     111A      0.423382   112A      0.433898   113A      0.435844  
     114A      0.449890   115A      0.459685   116A      0.479437  
     117A      0.509867   118A      0.528884   119A      0.545832  
     120A      0.559370   121A      0.577089   122A      0.585649  
     123A      0.590551   124A      0.599366   125A      0.609654  
     126A      0.614071   127A      0.624143   128A      0.626631  
     129A      0.631737   130A      0.644611   131A      0.655369  
     132A      0.655588   133A      0.683105   134A      0.694426  
     135A      0.695447   136A      0.709216   137A      0.728805  
     138A      0.729221   139A      0.743496   140A      0.754990  
     141A      0.760984   142A      0.773629   143A      0.788130  
     144A      0.791655   145A      0.792472   146A      0.802978  
     147A      0.810983   148A      0.813048   149A      0.831009  
     150A      0.837975   151A      0.843159   152A      0.865875  
     153A      0.880162   154A      0.893422   155A      0.911736  
     156A      0.912471   157A      0.928819   158A      0.930989  
     159A      0.944944   160A      0.960790   161A      0.971105  
     162A      0.976335   163A      0.982217   164A      0.996352  
     165A      1.004186   166A      1.033031   167A      1.042692  
     168A      1.077934   169A      1.100780   170A      1.120400  
     171A      1.124496   172A      1.144096   173A      1.167305  
     174A      1.214576   175A      1.242302   176A      1.259834  
     177A      1.267100   178A      1.288562   179A      1.310072  
     180A      1.313759   181A      1.324493   182A      1.333737  
     183A      1.376758   184A      1.408267   185A      1.421209  
     186A      1.449831   187A      1.484869   188A      1.518312  
     189A      1.555091   190A      1.588267   191A      1.605021  
     192A      1.627527   193A      1.631466   194A      1.649594  
     195A      1.666014   196A      1.691613   197A      1.715576  
     198A      1.730149   199A      1.774328   200A      1.795445  
     201A      1.817019   202A      1.848018   203A      1.856604  
     204A      1.873107   205A      1.874534   206A      1.879937  
     207A      1.908668   208A      1.921840   209A      1.937752  
     210A      1.958080   211A      2.008096   212A      2.025885  
     213A      2.028900   214A      2.060217   215A      2.088312  
     216A      2.104627   217A      2.136793   218A      2.140466  
     219A      2.162987   220A      2.193695   221A      2.272873  
     222A      2.284997   223A      2.312731   224A      2.372867  
     225A      2.382612   226A      2.395070   227A      2.426903  
     228A      2.482293   229A      2.489778   230A      2.495374  
     231A      2.515202   232A      2.526872   233A      2.576199  
     234A      2.619987   235A      2.648975   236A      2.662308  
     237A      2.689748   238A      2.706143   239A      2.758037  
     240A      2.778121   241A      2.786276   242A      2.847588  
     243A      2.871849   244A      2.883338   245A      2.890884  
     246A      2.909547   247A      2.935714   248A      2.944241  
     249A      2.975691   250A      2.998097   251A      3.020110  
     252A      3.033788   253A      3.078158   254A      3.121865  
     255A      3.171819   256A      3.198854   257A      3.271037  
     258A      3.294970   259A      3.330095   260A      3.361157  
     261A      3.411542   262A      3.419886   263A      3.423096  
     264A      3.439871   265A      3.442245   266A      3.459467  
     267A      3.472206   268A      3.514648   269A      3.602466  
     270A      3.621502   271A      3.654008   272A      3.746410  
     273A      3.756423   274A      3.853664   275A      3.925262  
     276A      4.053132   277A      4.134437   278A      4.138664  
     279A      4.155798   280A      4.171100   281A      4.299574  
     282A      4.673665   283A      4.885302   284A      4.911094  
     285A      5.071688   286A      5.190048   287A      5.332366  
     288A      5.854377   289A     23.492094   290A     23.719292  
     291A     23.767344   292A     23.967539   293A     23.992185  
     294A     24.031533   295A     24.182322   296A     24.215811  
     297A     24.317583   298A     35.562066   299A     35.709443  
     300A     50.131474  

    Final Occupation by Irrep:
              A 
    DOCC [    44 ]

  @DF-RKS Final Energy:  -534.83460023711791

   => Energetics <=

    Nuclear Repulsion Energy =            685.5725472581832491
    One-Electron Energy =               -2083.8391748567910327
    Two-Electron Energy =                 915.6452803043983977
    DFT Exchange-Correlation Energy =     -52.1986346232930103
    Empirical Dispersion Energy =          -0.0146183196154112
    VV10 Nonlocal Energy =                  0.0000000000000000
    Total Energy =                       -534.8346002371179111

Computation Completed


Properties will be evaluated at   0.000000,   0.000000,   0.000000 [a0]

Properties computed using the SCF density matrix


 Multipole Moments:

 ------------------------------------------------------------------------------------
     Multipole            Electronic (a.u.)      Nuclear  (a.u.)        Total (a.u.)
 ------------------------------------------------------------------------------------

 L = 1.  Multiply by 2.5417464519 to convert [e a0] to [Debye]
 Dipole X            :         -1.9356620            1.5145250           -0.4211371
 Dipole Y            :          2.0182661           -2.4866432           -0.4683771
 Dipole Z            :         -1.1447866            1.3798473            0.2350607
 Magnitude           :                                                    0.6722998

 ------------------------------------------------------------------------------------

*** tstop() called on node165.bme.utexas.edu at Sat Nov 18 08:33:04 2023
Module time:
	user time   =     110.42 seconds =       1.84 minutes
	system time =       6.84 seconds =       0.11 minutes
	total time  =         30 seconds =       0.50 minutes
Total time:
	user time   =     110.42 seconds =       1.84 minutes
	system time =       6.84 seconds =       0.11 minutes
	total time  =         30 seconds =       0.50 minutes


Properties will be evaluated at   0.000000,   0.000000,   0.000000 [a0]
OEProp: No title given, name of density matrix used for the following properties is 'SCF density'


  Wiberg Bond Indices using Orthogonal Lowdin Orbitals:

  Irrep: 1 Size: 24 x 24

                 1                   2                   3                   4                   5

    1     0.00000000000000     1.18916272740871     0.10625674905282     0.02326010323272     0.10636692130740
    2     1.18916272740871     0.00000000000000     1.12714561514512     0.13270572986967     1.17213202819223
    3     0.10625674905282     1.12714561514512     0.00000000000000     1.04535610827381     0.11952834559484
    4     0.02326010323272     0.13270572986967     1.04535610827381     0.00000000000000     0.02691301416928
    5     0.10636692130740     1.17213202819223     0.11952834559484     0.02691301416928     0.00000000000000
    6     0.04286886305091     0.16686729241562     2.37071625876539     0.15645860651578     0.06148788970419
    7     1.39380881225006     0.13434961904436     0.02599812494031     0.00436210615857     0.06123990481885
    8     0.13056024116793     0.02265445106385     0.00533304941531     0.00104470715397     0.00325347602212
    9     0.13572921416532     0.01666594361376     0.00380224357854     0.00099149185850     0.00674067901874
   10     0.13501703953329     0.01874218198606     0.00485965278707     0.00284228832737     0.00350277208740
   11     1.37888070746722     0.13845459162444     0.04045224207132     0.03237570511713     0.02041493207065
   12     0.01025680862260     0.05535142496818     0.01436079263929     0.00415327552777     0.88444497192719
   13     0.01759133899010     0.04532657914359     0.01091749907791     0.00070874503124     0.87682236149419
   14     0.01070234100191     0.04934808097615     0.01675717115783     0.00164574356797     0.87591676289032
   15     0.00271821547985     0.01895934445136     0.12216913829272     1.33916209325629     0.00307109274157
   16     0.00470352895411     0.00989578395109     0.04972468467579     0.82786635646333     0.00106885370629
   17     0.00208622791335     0.01424171326900     0.05339297777261     0.82587500976385     0.00430654444650
   18     0.05482471742889     0.01424938601677     0.00162568026841     0.00027560569844     0.01837211053957
   19     0.01072147100006     0.00094863258365     0.00037345944533     0.00011879333364     0.00032983793870
   20     0.01082977608153     0.00080168670596     0.00021848506432     0.00014381555281     0.00047846812842
   21     0.05510507681103     0.01655409764492     0.01056762716589     0.01479544568308     0.00109467665097
   22     0.00023299257358     0.00078605442146     0.01134475430025     0.03894211567153     0.00043175407791
   23     0.00280128541910     0.00026628007210     0.00006892444323     0.00008462476193     0.00014579850680
   24     0.00030064088425     0.00068316469830     0.01013715440718     0.03942608858288     0.00019682025209

                 6                   7                   8                   9                  10

    1     0.04286886305091     1.39380881225006     0.13056024116793     0.13572921416532     0.13501703953329
    2     0.16686729241562     0.13434961904436     0.02265445106385     0.01666594361376     0.01874218198606
    3     2.37071625876539     0.02599812494031     0.00533304941531     0.00380224357854     0.00485965278707
    4     0.15645860651578     0.00436210615857     0.00104470715397     0.00099149185850     0.00284228832737
    5     0.06148788970419     0.06123990481885     0.00325347602212     0.00674067901874     0.00350277208740
    6     0.00000000000000     0.00829958942199     0.00189110575665     0.00118416296543     0.00100152205692
    7     0.00829958942199     0.00000000000000     0.14039032691912     1.51870592162503     0.14001980531267
    8     0.00189110575665     0.14039032691912     0.00000000000000     1.52648213331660     1.50702118369465
    9     0.00118416296543     1.51870592162503     1.52648213331660     0.00000000000000     0.14123642140654
   10     0.00100152205692     0.14001980531267     1.50702118369465     0.14123642140654     0.00000000000000
   11     0.01056470054470     0.12931515304093     0.14092949533164     0.14437970416613     1.53972603397940
   12     0.00223564103340     0.00264263989296     0.00062828219100     0.00029932172942     0.00032214729795
   13     0.00335977702224     0.01874758296557     0.00047397172945     0.00166606226629     0.00046541901813
   14     0.01135332843631     0.00616071352324     0.00071221588561     0.00032810984749     0.00047821154926
   15     0.06833431593519     0.00064218482735     0.00012130971698     0.00015273909284     0.00024754974820
   16     0.01727938991768     0.00019299643475     0.00024381394169     0.00007992712041     0.00108711401118
   17     0.01893930808452     0.00027812231033     0.00005375399344     0.00011067866074     0.00005273392489
   18     0.00043813573878     0.80894080528810     0.01053364638171     0.05707446421188     0.00245081857798
   19     0.00009635211982     0.06122536244475     0.05945812182023     0.83140728620888     0.01158145087628
   20     0.00004732912988     0.00257577881044     0.05927606421720     0.01153158038652     0.83152154610881
   21     0.00081617434084     0.00951199674760     0.01043503687000     0.00243081541725     0.05640538636678
   22     0.00794119288894     0.00004358114494     0.00001142936615     0.00001099264721     0.00001570506141
   23     0.00002157125572     0.01123549409495     0.83323600408111     0.06042042634750     0.06020558646068
   24     0.00804500327136     0.00004829592799     0.00001503792221     0.00001455237583     0.00004836319140

                11                  12                  13                  14                  15

    1     1.37888070746722     0.01025680862260     0.01759133899010     0.01070234100191     0.00271821547985
    2     0.13845459162444     0.05535142496818     0.04532657914359     0.04934808097615     0.01895934445136
    3     0.04045224207132     0.01436079263929     0.01091749907791     0.01675717115783     0.12216913829272
    4     0.03237570511713     0.00415327552777     0.00070874503124     0.00164574356797     1.33916209325629
    5     0.02041493207065     0.88444497192719     0.87682236149419     0.87591676289032     0.00307109274157
    6     0.01056470054470     0.00223564103340     0.00335977702224     0.01135332843631     0.06833431593519
    7     0.12931515304093     0.00264263989296     0.01874758296557     0.00616071352324     0.00064218482735
    8     0.14092949533164     0.00062828219100     0.00047397172945     0.00071221588561     0.00012130971698
    9     0.14437970416613     0.00029932172942     0.00166606226629     0.00032810984749     0.00015273909284
   10     1.53972603397940     0.00032214729795     0.00046541901813     0.00047821154926     0.00024754974820
   11     0.00000000000000     0.00130526893510     0.00123863197086     0.00158271129541     0.00252663941835
   12     0.00130526893510     0.00000000000000     0.00965430505159     0.00755737968185     0.00024013892556
   13     0.00123863197086     0.00965430505159     0.00000000000000     0.00815284596282     0.00016853753058
   14     0.00158271129541     0.00755737968185     0.00815284596282     0.00000000000000     0.00023221013121
   15     0.00252663941835     0.00024013892556     0.00016853753058     0.00023221013121     0.00000000000000
   16     0.01211271787900     0.00008086202243     0.00004822457972     0.00009387509421     0.04302206815744
   17     0.00109146887821     0.00010399570716     0.00002719180397     0.00002473295643     0.04029951624328
   18     0.00971521080559     0.00034979250225     0.00381628810149     0.00064834088074     0.00003355960777
   19     0.00264530724250     0.00002471063172     0.00004075549615     0.00005063815559     0.00002252118549
   20     0.06152380924760     0.00000797672077     0.00006600922152     0.00000817118277     0.00001378043349
   21     0.80285873098633     0.00004648492326     0.00009586047254     0.00007939652703     0.00103456287523
   22     0.00024795318716     0.00004436863967     0.00001881242627     0.00007841490041     0.88281537376012
   23     0.01122955733504     0.00000499705030     0.00002402946642     0.00003208551965     0.00001105100368
   24     0.00051100222482     0.00001507545536     0.00001028259743     0.00002126378007     0.88321351377219

                16                  17                  18                  19                  20

    1     0.00470352895411     0.00208622791335     0.05482471742889     0.01072147100006     0.01082977608153
    2     0.00989578395109     0.01424171326900     0.01424938601677     0.00094863258365     0.00080168670596
    3     0.04972468467579     0.05339297777261     0.00162568026841     0.00037345944533     0.00021848506432
    4     0.82786635646333     0.82587500976385     0.00027560569844     0.00011879333364     0.00014381555281
    5     0.00106885370629     0.00430654444650     0.01837211053957     0.00032983793870     0.00047846812842
    6     0.01727938991768     0.01893930808452     0.00043813573878     0.00009635211982     0.00004732912988
    7     0.00019299643475     0.00027812231033     0.80894080528810     0.06122536244475     0.00257577881044
    8     0.00024381394169     0.00005375399344     0.01053364638171     0.05945812182023     0.05927606421720
    9     0.00007992712041     0.00011067866074     0.05707446421188     0.83140728620888     0.01153158038652
   10     0.00108711401118     0.00005273392489     0.00245081857798     0.01158145087628     0.83152154610881
   11     0.01211271787900     0.00109146887821     0.00971521080559     0.00264530724250     0.06152380924760
   12     0.00008086202243     0.00010399570716     0.00034979250225     0.00002471063172     0.00000797672077
   13     0.00004822457972     0.00002719180397     0.00381628810149     0.00004075549615     0.00006600922152
   14     0.00009387509421     0.00002473295643     0.00064834088074     0.00005063815559     0.00000817118277
   15     0.04302206815744     0.04029951624328     0.00003355960777     0.00002252118549     0.00001378043349
   16     0.00000000000000     0.00730394214779     0.00003579476555     0.00002565234217     0.00003667658377
   17     0.00730394214779     0.00000000000000     0.00004992274390     0.00000626270710     0.00000615505623
   18     0.00003579476555     0.00004992274390     0.00000000000000     0.00584963751824     0.00023149994401
   19     0.00002565234217     0.00000626270710     0.00584963751824     0.00000000000000     0.00027510367141
   20     0.00003667658377     0.00000615505623     0.00023149994401     0.00027510367141     0.00000000000000
   21     0.00531793753586     0.00050452800289     0.00045645374629     0.00021202294439     0.00571479810627
   22     0.00332323662850     0.00970593139311     0.00000656239163     0.00000088250540     0.00000339503611
   23     0.00001780875233     0.00000263034894     0.00019635221050     0.00532675810109     0.00529056184123
   24     0.00952943251230     0.00436383971850     0.00000599186935     0.00000151538609     0.00000421126002

                21                  22                  23                  24

    1     0.05510507681103     0.00023299257358     0.00280128541910     0.00030064088425
    2     0.01655409764492     0.00078605442146     0.00026628007210     0.00068316469830
    3     0.01056762716589     0.01134475430025     0.00006892444323     0.01013715440718
    4     0.01479544568308     0.03894211567153     0.00008462476193     0.03942608858288
    5     0.00109467665097     0.00043175407791     0.00014579850680     0.00019682025209
    6     0.00081617434084     0.00794119288894     0.00002157125572     0.00804500327136
    7     0.00951199674760     0.00004358114494     0.01123549409495     0.00004829592799
    8     0.01043503687000     0.00001142936615     0.83323600408111     0.00001503792221
    9     0.00243081541725     0.00001099264721     0.06042042634750     0.00001455237583
   10     0.05640538636678     0.00001570506141     0.06020558646068     0.00004836319140
   11     0.80285873098633     0.00024795318716     0.01122955733504     0.00051100222482
   12     0.00004648492326     0.00004436863967     0.00000499705030     0.00001507545536
   13     0.00009586047254     0.00001881242627     0.00002402946642     0.00001028259743
   14     0.00007939652703     0.00007841490041     0.00003208551965     0.00002126378007
   15     0.00103456287523     0.88281537376012     0.00001105100368     0.88321351377219
   16     0.00531793753586     0.00332323662850     0.00001780875233     0.00952943251230
   17     0.00050452800289     0.00970593139311     0.00000263034894     0.00436383971850
   18     0.00045645374629     0.00000656239163     0.00019635221050     0.00000599186935
   19     0.00021202294439     0.00000088250540     0.00532675810109     0.00000151538609
   20     0.00571479810627     0.00000339503611     0.00529056184123     0.00000421126002
   21     0.00000000000000     0.00008457883795     0.00020454912097     0.00028960641784
   22     0.00008457883795     0.00000000000000     0.00000165022398     0.00771153673110
   23     0.00020454912097     0.00000165022398     0.00000000000000     0.00000348553610
   24     0.00028960641784     0.00771153673110     0.00000348553610     0.00000000000000



  Atomic Valences: 

 #  #
 Irrep: 1
      1:    4.824785799796723
      2:    4.346292409266344
      3:    5.151106738335294
      4:    4.519507573571560
      5:    4.248260016286245
      6:    2.960247510372259
      7:    4.478734917944864
      8:    4.454758857958625
      9:    4.461444872026865
     10:    4.458850933364303
     11:    4.484082274819539
     12:    0.994130662076791
     13:    0.999441111420096
     14:    0.991964744904290
     15:    3.409211456586738
     16:    0.993090678177399
     17:    0.982827187846729
     18:    0.990180777237874
     19:    0.990742535658677
     20:    0.990606678491077
     21:    0.994615844195207
     22:    0.963803268814795
     23:    0.990831511953359
     24:    0.964595878774685


    Psi4 stopped on: Saturday, 18 November 2023 08:33AM
    Psi4 wall time for execution: 0:00:30.17

*** Psi4 exiting successfully. Buy a developer a beer!
