
    -----------------------------------------------------------------------
          Psi4: An Open-Source Ab Initio Electronic Structure Package
                               Psi4 1.6 release

                         Git: Rev {HEAD} 77475b5 


    D. G. A. Smith, L. A. Burns, A. C. Simmonett, R. M. Parrish,
    M. C. Schieber, R. Galvelis, P. Kraus, H. Kruse, R. Di Remigio,
    A. Alenaizan, A. M. James, S. Lehtola, J. P. Misiewicz, M. Scheurer,
    R. A. Shaw, J. B. Schriber, Y. Xie, Z. L. Glick, D. A. Sirianni,
    J. S. O'Brien, J. M. Waldrop, A. Kumar, E. G. Hohenstein,
    B. P. Pritchard, B. R. Brooks, H. F. Schaefer III, A. Yu. Sokolov,
    K. Patkowski, A. E. DePrince III, U. Bozkaya, R. A. King,
    F. A. Evangelista, J. M. Turney, T. D. Crawford, C. D. Sherrill,
    J. Chem. Phys. 152(18) 184108 (2020). https://doi.org/10.1063/5.0006002

                            Additional Code Authors
    E. T. Seidl, C. L. Janssen, E. F. Valeev, M. L. Leininger,
    J. F. Gonthier, R. M. Richard, H. R. McAlexander, M. Saitow, X. Wang,
    P. Verma, M. H. Lechner, and A. Jiang

             Previous Authors, Complete List of Code Contributors,
                       and Citations for Specific Modules
    https://github.com/psi4/psi4/blob/master/codemeta.json
    https://github.com/psi4/psi4/graphs/contributors
    http://psicode.org/psi4manual/master/introduction.html#citing-psifour

    -----------------------------------------------------------------------


    Psi4 started on: Saturday, 18 November 2023 08:33AM

    Process ID: 1128378
    Host:       node165.bme.utexas.edu
    PSIDATADIR: /home/liuchw/anaconda3/envs/poltype2022/share/psi4
    Memory:     500.0 MiB
    Threads:    1
    
  ==> Input File <==

--------------------------------------------------------------------------
molecule { 
0 1
 C   -0.741394   -0.343324    0.206667
 N    0.316601   -0.431265    1.137594
 C    1.498484    0.309696    1.029898
 C    2.506440   -0.076121   -0.044489
 C   -0.059192   -0.668570    2.529351
 O    1.837744    1.057203    1.922112
 C   -2.030483   -0.001992    0.619852
 C   -2.830023   -0.070941   -1.646720
 C   -3.059064    0.119506   -0.296173
 C   -1.552204   -0.390346   -2.069535
 C   -0.520146   -0.520171   -1.158822
 H    0.745417   -1.230406    3.002621
 H   -0.979462   -1.243420    2.561645
 H   -0.200379    0.262375    3.085775
 N    3.726967    0.705745    0.008500
 H    2.109910    0.020321   -1.058378
 H    2.752179   -1.133675    0.098081
 H   -2.242938    0.196775    1.657773
 H   -4.046672    0.381292    0.054340
 H   -1.351063   -0.544260   -3.119400
 H    0.450021   -0.819073   -1.517067
 H    3.478351    1.692897   -0.024449
 H   -3.634509    0.029234   -2.358904
 H    4.135402    0.605518    0.936925
}
memory 20GB
set_num_threads(5)
psi4_io.set_default_path("/scratch/liuchw/Psi4-3_25_Index_0_GrowFragment_3-farH_in17")
set freeze_core True
E, wfn = energy('wb97x-d/6-311+G*',return_wfn=True)
oeprop(wfn,"WIBERG_LOWDIN_INDICES")
clean()
--------------------------------------------------------------------------

  Memory set to  18.626 GiB by Python driver.
  Threads set to 5 by Python driver.

Scratch directory: /scratch/liuchw/Psi4-3_25_Index_0_GrowFragment_3-farH_in17/

*** tstart() called on node165.bme.utexas.edu
*** at Sat Nov 18 08:33:06 2023

   => Loading Basis Set <=

    Name: 6-311+G*
    Role: ORBITAL
    Keyword: BASIS
    atoms 1, 3-5, 7-11 entry C          line   130 file /home/liuchw/anaconda3/envs/poltype2022/share/psi4/basis/6-311pgs.gbs 
    atoms 2, 15        entry N          line   151 file /home/liuchw/anaconda3/envs/poltype2022/share/psi4/basis/6-311pgs.gbs 
    atoms 6            entry O          line   172 file /home/liuchw/anaconda3/envs/poltype2022/share/psi4/basis/6-311pgs.gbs 
    atoms 12-14, 16-24 entry H          line    47 file /home/liuchw/anaconda3/envs/poltype2022/share/psi4/basis/6-311pgs.gbs 

   => WB97X-D: Empirical Dispersion <=

    Chai and Head-Gordon Dispersion Correction
    Chai, J.-D.; Head-Gordon, M. (2010), J. Chem. Phys., 132: 6615-6620

        s6 =       1.000000


         ---------------------------------------------------------
                                   SCF
               by Justin Turney, Rob Parrish, Andy Simmonett
                          and Daniel G. A. Smith
                              RKS Reference
                        5 Threads,  19073 MiB Core
         ---------------------------------------------------------

  ==> Geometry <==

    Molecular point group: c1
    Full point group: C1

    Geometry (in Angstrom), charge = 0, multiplicity = 1:

       Center              X                  Y                   Z               Mass       
    ------------   -----------------  -----------------  -----------------  -----------------
         C           -0.776688992987    -0.338752927113    -0.038179865947    12.000000000000
         N            0.281306007013    -0.426693927113     0.892747134053    14.003074004430
         C            1.463189007013     0.314267072887     0.785051134053    12.000000000000
         C            2.471145007013    -0.071549927113    -0.289335865947    12.000000000000
         C           -0.094486992987    -0.663998927113     2.284504134053    12.000000000000
         O            1.802449007013     1.061774072887     1.677265134053    15.994914619570
         C           -2.065777992987     0.002579072887     0.375005134053    12.000000000000
         C           -2.865317992987    -0.066369927113    -1.891566865947    12.000000000000
         C           -3.094358992987     0.124077072887    -0.541019865947    12.000000000000
         C           -1.587498992987    -0.385774927113    -2.314381865947    12.000000000000
         C           -0.555440992987    -0.515599927113    -1.403668865947    12.000000000000
         H            0.710122007013    -1.225834927113     2.757774134053     1.007825032230
         H           -1.014756992987    -1.238848927113     2.316798134053     1.007825032230
         H           -0.235673992987     0.266946072887     2.840928134053     1.007825032230
         N            3.691672007013     0.710316072887    -0.236346865947    14.003074004430
         H            2.074615007013     0.024892072887    -1.303224865947     1.007825032230
         H            2.716884007013    -1.129103927113    -0.146765865947     1.007825032230
         H           -2.278232992987     0.201346072887     1.412926134053     1.007825032230
         H           -4.081966992987     0.385863072887    -0.190506865947     1.007825032230
         H           -1.386357992987    -0.539688927113    -3.364246865947     1.007825032230
         H            0.414726007013    -0.814501927113    -1.761913865947     1.007825032230
         H            3.443056007013     1.697468072887    -0.269295865947     1.007825032230
         H           -3.669803992987     0.033805072887    -2.603750865947     1.007825032230
         H            4.100107007013     0.610089072887     0.692078134053     1.007825032230

  Running in c1 symmetry.

  Rotational constants: A =      0.05958  B =      0.01994  C =      0.01605 [cm^-1]
  Rotational constants: A =   1786.25333  B =    597.72717  C =    481.17877 [MHz]
  Nuclear repulsion =  685.808557910243735

  Charge       = 0
  Multiplicity = 1
  Electrons    = 88
  Nalpha       = 44
  Nbeta        = 44

  ==> Algorithm <==

  SCF Algorithm Type is DF.
  DIIS enabled.
  MOM disabled.
  Fractional occupation disabled.
  Guess Type is SAD.
  Energy threshold   = 1.00e-06
  Density threshold  = 1.00e-06
  Integral threshold = 1.00e-12

  ==> Primary Basis <==

  Basis Set: 6-311+G*
    Blend: 6-311+G*
    Number of shells: 156
    Number of basis functions: 300
    Number of Cartesian functions: 312
    Spherical Harmonics?: true
    Max angular momentum: 2

  ==> DFT Potential <==

   => LibXC <=

    Version 5.1.5
    S. Lehtola, C. Steigemann, M. J. Oliveira, and M. A. Marques, SoftwareX 7, 1 (2018) (10.1016/j.softx.2017.11.002)

   => Composite Functional: WB97X-D <= 

    wB97X-D Hyb-GGA Exchange-Correlation Functional

    J.-D. Chai and M. Head-Gordon, Phys. Chem. Chem. Phys. 10, 6615 (2008) (10.1039/B810189B)

    Deriv               =              1
    GGA                 =           TRUE
    Meta                =          FALSE

    Exchange Hybrid     =           TRUE
    MP2 Hybrid          =          FALSE

   => Exchange-Correlation Functionals <=

    1.0000   wB97X-D range-separated functional

   => Exact (HF) Exchange <=

    0.7780            HF,LR [omega = 0.2000]
    0.2220               HF 

   => LibXC Density Thresholds  <==

    XC_HYB_GGA_XC_WB97X_D:  1.00E-14 

   => Molecular Quadrature <=

    Radial Scheme          =       TREUTLER
    Pruning Scheme         =           NONE
    Nuclear Scheme         =       TREUTLER

    Blocking Scheme        =         OCTREE
    BS radius alpha        =              1
    Pruning alpha          =              1
    Radial Points          =             75
    Spherical Points       =            302
    Total Points           =         503054
    Total Blocks           =           3671
    Max Points             =            256
    Max Functions          =            272
    Weights Tolerance      =       1.00E-15

   => Loading Basis Set <=

    Name: (6-311+G* AUX)
    Role: JKFIT
    Keyword: DF_BASIS_SCF
    atoms 1, 3-5, 7-11 entry C          line   200 file /home/liuchw/anaconda3/envs/poltype2022/share/psi4/basis/heavy-aug-cc-pvtz-jkfit.gbs 
    atoms 2, 15        entry N          line   262 file /home/liuchw/anaconda3/envs/poltype2022/share/psi4/basis/heavy-aug-cc-pvtz-jkfit.gbs 
    atoms 6            entry O          line   324 file /home/liuchw/anaconda3/envs/poltype2022/share/psi4/basis/heavy-aug-cc-pvtz-jkfit.gbs 
    atoms 12-14, 16-24 entry H          line   116 file /home/liuchw/anaconda3/envs/poltype2022/share/psi4/basis/heavy-aug-cc-pvtz-jkfit.gbs 

  ==> Integral Setup <==

  DFHelper Memory: AOs need 2.944 GiB; user supplied 11.140 GiB. Using in-core AOs.

  ==> MemDFJK: Density-Fitted J/K Matrices <==

    J tasked:                   Yes
    K tasked:                   Yes
    wK tasked:                  Yes
    Omega:                2.000E-01
    OpenMP threads:               5
    Memory [MiB]:             11407
    Algorithm:                 Core
    Schwarz Cutoff:           1E-12
    Mask sparsity (%):      10.2444
    Fitting Condition:        1E-10

   => Auxiliary Basis Set <=

  Basis Set: (6-311+G* AUX)
    Blend: HEAVY-AUG-CC-PVTZ-JKFIT
    Number of shells: 480
    Number of basis functions: 1608
    Number of Cartesian functions: 1992
    Spherical Harmonics?: true
    Max angular momentum: 4

  Cached 100.0% of DFT collocation blocks in 2.830 [GiB].

  Minimum eigenvalue in the overlap matrix is 1.6691909039E-06.
  Reciprocal condition number of the overlap matrix is 1.1593154150E-07.
    Using symmetric orthogonalization.

  ==> Pre-Iterations <==

  SCF Guess: Superposition of Atomic Densities via on-the-fly atomic UHF (no occupation information).

   -------------------------
    Irrep   Nso     Nmo    
   -------------------------
     A        300     300 
   -------------------------
    Total     300     300
   -------------------------

  ==> Iterations <==

                           Total Energy        Delta E     RMS |[F,P]|

   @DF-RKS iter SAD:  -534.31386714662426   -5.34314e+02   0.00000e+00 
   @DF-RKS iter   1:  -534.23478187544026    7.90853e-02   3.76902e-03 ADIIS/DIIS
   @DF-RKS iter   2:  -534.43115745589341   -1.96376e-01   3.33595e-03 ADIIS/DIIS
   @DF-RKS iter   3:  -534.82622953544569   -3.95072e-01   6.56710e-04 ADIIS/DIIS
   @DF-RKS iter   4:  -534.83931849335522   -1.30890e-02   2.35989e-04 ADIIS/DIIS
   @DF-RKS iter   5:  -534.84119473501823   -1.87624e-03   6.44941e-05 DIIS
   @DF-RKS iter   6:  -534.84134971634626   -1.54981e-04   1.70151e-05 DIIS
   @DF-RKS iter   7:  -534.84136298235819   -1.32660e-05   3.35753e-06 DIIS
   @DF-RKS iter   8:  -534.84136387642297   -8.94065e-07   1.99048e-06 DIIS
   @DF-RKS iter   9:  -534.84136412136650   -2.44944e-07   5.62239e-07 DIIS
  Energy and wave function converged.


  ==> Post-Iterations <==

   Electrons on quadrature grid:
      Ntotal   =   87.9999375875 ; deviation = -6.241e-05 

    Orbital Energies [Eh]
    ---------------------

    Doubly Occupied:                                                      

       1A    -19.242977     2A    -14.469616     3A    -14.414988  
       4A    -10.403656     5A    -10.345139     6A    -10.324631  
       7A    -10.314294     8A    -10.296864     9A    -10.296830  
      10A    -10.295052    11A    -10.294486    12A    -10.290110  
      13A     -1.173786    14A     -1.060442    15A     -0.994885  
      16A     -0.967013    17A     -0.866049    18A     -0.860331  
      19A     -0.830885    20A     -0.780061    21A     -0.728195  
      22A     -0.712517    23A     -0.664143    24A     -0.624498  
      25A     -0.606862    26A     -0.596684    27A     -0.576876  
      28A     -0.566995    29A     -0.550802    30A     -0.542270  
      31A     -0.523666    32A     -0.508784    33A     -0.505714  
      34A     -0.493425    35A     -0.487676    36A     -0.471937  
      37A     -0.459242    38A     -0.443724    39A     -0.438326  
      40A     -0.385676    41A     -0.370463    42A     -0.343396  
      43A     -0.336766    44A     -0.302050  

    Virtual:                                                              

      45A      0.041800    46A      0.047832    47A      0.054749  
      48A      0.057506    49A      0.068024    50A      0.070333  
      51A      0.082379    52A      0.087120    53A      0.090452  
      54A      0.102966    55A      0.109172    56A      0.112719  
      57A      0.116680    58A      0.121850    59A      0.138277  
      60A      0.142196    61A      0.150311    62A      0.151410  
      63A      0.154419    64A      0.156053    65A      0.165812  
      66A      0.178775    67A      0.185234    68A      0.190271  
      69A      0.197612    70A      0.200704    71A      0.204330  
      72A      0.210239    73A      0.213185    74A      0.216168  
      75A      0.224600    76A      0.235499    77A      0.236852  
      78A      0.239102    79A      0.244039    80A      0.246644  
      81A      0.250908    82A      0.255022    83A      0.262863  
      84A      0.266324    85A      0.266511    86A      0.274482  
      87A      0.278970    88A      0.285350    89A      0.290371  
      90A      0.293421    91A      0.297317    92A      0.301749  
      93A      0.307474    94A      0.309190    95A      0.312012  
      96A      0.317955    97A      0.326377    98A      0.328020  
      99A      0.335126   100A      0.338015   101A      0.346902  
     102A      0.349065   103A      0.362111   104A      0.370130  
     105A      0.375225   106A      0.389827   107A      0.395393  
     108A      0.406802   109A      0.409052   110A      0.412233  
     111A      0.422675   112A      0.428196   113A      0.435597  
     114A      0.454623   115A      0.463048   116A      0.480386  
     117A      0.486677   118A      0.518325   119A      0.538788  
     120A      0.565579   121A      0.569601   122A      0.579489  
     123A      0.594225   124A      0.605472   125A      0.609989  
     126A      0.617050   127A      0.620760   128A      0.626088  
     129A      0.629600   130A      0.646214   131A      0.664582  
     132A      0.670053   133A      0.680136   134A      0.687291  
     135A      0.705977   136A      0.714300   137A      0.722718  
     138A      0.729657   139A      0.746991   140A      0.757736  
     141A      0.761699   142A      0.774031   143A      0.779633  
     144A      0.785274   145A      0.787273   146A      0.796227  
     147A      0.812707   148A      0.814603   149A      0.825772  
     150A      0.838020   151A      0.845474   152A      0.864217  
     153A      0.875850   154A      0.900663   155A      0.903386  
     156A      0.920927   157A      0.931989   158A      0.942960  
     159A      0.945544   160A      0.948370   161A      0.960907  
     162A      0.965191   163A      0.980551   164A      0.998091  
     165A      1.006900   166A      1.019074   167A      1.036735  
     168A      1.070197   169A      1.086131   170A      1.111216  
     171A      1.120588   172A      1.148911   173A      1.158661  
     174A      1.180164   175A      1.211435   176A      1.255622  
     177A      1.272333   178A      1.284068   179A      1.290508  
     180A      1.313663   181A      1.319776   182A      1.338848  
     183A      1.379471   184A      1.384008   185A      1.439467  
     186A      1.448720   187A      1.473101   188A      1.512409  
     189A      1.552557   190A      1.593667   191A      1.609188  
     192A      1.625210   193A      1.627602   194A      1.644878  
     195A      1.655125   196A      1.697726   197A      1.719587  
     198A      1.726955   199A      1.757991   200A      1.783981  
     201A      1.811502   202A      1.850731   203A      1.859059  
     204A      1.867375   205A      1.869625   206A      1.899697  
     207A      1.906164   208A      1.935282   209A      1.953195  
     210A      1.986091   211A      2.000307   212A      2.017580  
     213A      2.027879   214A      2.041583   215A      2.088392  
     216A      2.099800   217A      2.141382   218A      2.154103  
     219A      2.170268   220A      2.181816   221A      2.275414  
     222A      2.287502   223A      2.304900   224A      2.370346  
     225A      2.384384   226A      2.394508   227A      2.429470  
     228A      2.464430   229A      2.485040   230A      2.491943  
     231A      2.516504   232A      2.522952   233A      2.569138  
     234A      2.640264   235A      2.662673   236A      2.666566  
     237A      2.690189   238A      2.708035   239A      2.752642  
     240A      2.772370   241A      2.785050   242A      2.842652  
     243A      2.855698   244A      2.878619   245A      2.888396  
     246A      2.905529   247A      2.939505   248A      2.958903  
     249A      2.985751   250A      3.015418   251A      3.022244  
     252A      3.026201   253A      3.049813   254A      3.116662  
     255A      3.170090   256A      3.207011   257A      3.254947  
     258A      3.303016   259A      3.341018   260A      3.376424  
     261A      3.411109   262A      3.416490   263A      3.421085  
     264A      3.432069   265A      3.448567   266A      3.466584  
     267A      3.474124   268A      3.515763   269A      3.594875  
     270A      3.623117   271A      3.665243   272A      3.736249  
     273A      3.754657   274A      3.864816   275A      3.926902  
     276A      4.072112   277A      4.114197   278A      4.132102  
     279A      4.171141   280A      4.173674   281A      4.243088  
     282A      4.671438   283A      4.886146   284A      4.901981  
     285A      5.088884   286A      5.195963   287A      5.332993  
     288A      5.858257   289A     23.482960   290A     23.709251  
     291A     23.770629   292A     23.965055   293A     23.987193  
     294A     24.023848   295A     24.175634   296A     24.209024  
     297A     24.311501   298A     35.564180   299A     35.701214  
     300A     50.125204  

    Final Occupation by Irrep:
              A 
    DOCC [    44 ]

  @DF-RKS Final Energy:  -534.84136412136650

   => Energetics <=

    Nuclear Repulsion Energy =            685.8085579102437350
    One-Electron Energy =               -2084.3306870986052672
    Two-Electron Energy =                 915.9010886192223779
    DFT Exchange-Correlation Energy =     -52.2058034611501398
    Empirical Dispersion Energy =          -0.0145200910771981
    VV10 Nonlocal Energy =                  0.0000000000000000
    Total Energy =                       -534.8413641213664960

Computation Completed


Properties will be evaluated at   0.000000,   0.000000,   0.000000 [a0]

Properties computed using the SCF density matrix


 Multipole Moments:

 ------------------------------------------------------------------------------------
     Multipole            Electronic (a.u.)      Nuclear  (a.u.)        Total (a.u.)
 ------------------------------------------------------------------------------------

 L = 1.  Multiply by 2.5417464519 to convert [e a0] to [Debye]
 Dipole X            :         -1.5779292            0.7402693           -0.8376599
 Dipole Y            :          1.1524751           -1.6152653           -0.4627902
 Dipole Z            :         -0.4244409            0.3631407           -0.0613002
 Magnitude           :                                                    0.9589612

 ------------------------------------------------------------------------------------

*** tstop() called on node165.bme.utexas.edu at Sat Nov 18 08:33:40 2023
Module time:
	user time   =     114.12 seconds =       1.90 minutes
	system time =       7.26 seconds =       0.12 minutes
	total time  =         34 seconds =       0.57 minutes
Total time:
	user time   =     114.12 seconds =       1.90 minutes
	system time =       7.26 seconds =       0.12 minutes
	total time  =         34 seconds =       0.57 minutes


Properties will be evaluated at   0.000000,   0.000000,   0.000000 [a0]
OEProp: No title given, name of density matrix used for the following properties is 'SCF density'


  Wiberg Bond Indices using Orthogonal Lowdin Orbitals:

  Irrep: 1 Size: 24 x 24

                 1                   2                   3                   4                   5

    1     0.00000000000000     1.16302943985814     0.10243167156421     0.02558504847371     0.10833994216883
    2     1.16302943985814     0.00000000000000     1.23679758879125     0.11798401582017     1.15375322627252
    3     0.10243167156421     1.23679758879125     0.00000000000000     1.03024400562959     0.11831247161550
    4     0.02558504847371     0.11798401582017     1.03024400562959     0.00000000000000     0.02228915834579
    5     0.10833994216883     1.15375322627252     0.11831247161550     0.02228915834579     0.00000000000000
    6     0.03749689552860     0.20716157301536     2.27176911674829     0.15735260268191     0.08353399671229
    7     1.39228914589354     0.12629622186428     0.02885943090456     0.00408389571252     0.06533251954627
    8     0.13247442000597     0.01817358557460     0.00615219610343     0.00128483819215     0.00317019462765
    9     0.13485359743610     0.01628451260661     0.00355058368915     0.00126065535974     0.00764244792521
   10     0.13581271241238     0.01716476474949     0.00379353285049     0.00489807787398     0.00351715481869
   11     1.39396628920468     0.13068829177817     0.03580559097258     0.04411040335893     0.02004019990928
   12     0.00895228358700     0.04964850972061     0.01794505282311     0.00213539713157     0.88208726312197
   13     0.01857771770991     0.04465921451970     0.01039973097033     0.00072705983208     0.87604148746413
   14     0.00945194558790     0.04670731851880     0.01554640412989     0.00094548167934     0.87558541804323
   15     0.00246158101827     0.01707762940471     0.12446056578323     1.33944624982393     0.00358126775967
   16     0.00580204909979     0.00686585558158     0.04639229281201     0.83092064832673     0.00054977705786
   17     0.00270305453103     0.01562650264051     0.04955091033394     0.83153248034182     0.00189487590124
   18     0.05392857017937     0.01464562315182     0.00189230700491     0.00025486940343     0.02000031982957
   19     0.01067333950464     0.00089017854228     0.00039181470007     0.00009549811630     0.00032505626619
   20     0.01079989398477     0.00081438281262     0.00018466726953     0.00017697337790     0.00045536163709
   21     0.05497855047035     0.01493381997870     0.00760292116701     0.01847023076979     0.00107887605823
   22     0.00028921900817     0.00072628309137     0.01158494257874     0.03854838728273     0.00037985647642
   23     0.00278333270054     0.00026673894487     0.00005651270615     0.00009739094510     0.00014515833512
   24     0.00026711891662     0.00062283693852     0.00986526402006     0.03962033283042     0.00021516161150

                 6                   7                   8                   9                  10

    1     0.03749689552860     1.39228914589354     0.13247442000597     0.13485359743610     0.13581271241238
    2     0.20716157301536     0.12629622186428     0.01817358557460     0.01628451260661     0.01716476474949
    3     2.27176911674829     0.02885943090456     0.00615219610343     0.00355058368915     0.00379353285049
    4     0.15735260268191     0.00408389571252     0.00128483819215     0.00126065535974     0.00489807787398
    5     0.08353399671229     0.06533251954627     0.00317019462765     0.00764244792521     0.00351715481869
    6     0.00000000000000     0.00837594922983     0.00231975675396     0.00110482065915     0.00069024879235
    7     0.00837594922983     0.00000000000000     0.14022426257069     1.52301407407200     0.14235152389782
    8     0.00231975675396     0.14022426257069     0.00000000000000     1.52105147207671     1.51508573646967
    9     0.00110482065915     1.52301407407200     1.52105147207671     0.00000000000000     0.14162441098515
   10     0.00069024879235     0.14235152389782     1.51508573646967     0.14162441098515     0.00000000000000
   11     0.00743813678784     0.12961819799691     0.14038214404811     0.14422249246293     1.52804826632710
   12     0.00849532803423     0.00316165023583     0.00060511927757     0.00038952896882     0.00027209130499
   13     0.00399784938412     0.01914014388615     0.00042648860444     0.00179342947452     0.00051357419630
   14     0.01656742977411     0.00745277147013     0.00052738282504     0.00044639648940     0.00038024023327
   15     0.07844343833871     0.00047792933760     0.00014458061483     0.00011906536751     0.00040740888987
   16     0.01453933079909     0.00032407459246     0.00027782981044     0.00028649249901     0.00195554623449
   17     0.01678689506428     0.00033836223069     0.00011743938092     0.00010457714408     0.00014515818023
   18     0.00042669339560     0.80712131488692     0.01046680786273     0.05681268404069     0.00246643674974
   19     0.00016407547227     0.06140865991084     0.05937140493584     0.83102829753688     0.01155566617507
   20     0.00004762745057     0.00260235069111     0.05936872936452     0.01156772594911     0.83131040856372
   21     0.00051187110934     0.00957744242098     0.01035395924189     0.00247285309882     0.05664856512379
   22     0.00898154892079     0.00004367927298     0.00001429903726     0.00001338876425     0.00002480314513
   23     0.00002504073690     0.01119369747383     0.83308544258260     0.06030104767939     0.06023017669974
   24     0.01099989612667     0.00004699973487     0.00002282395865     0.00002708150545     0.00012012901902

                11                  12                  13                  14                  15

    1     1.39396628920468     0.00895228358700     0.01857771770991     0.00945194558790     0.00246158101827
    2     0.13068829177817     0.04964850972061     0.04465921451970     0.04670731851880     0.01707762940471
    3     0.03580559097258     0.01794505282311     0.01039973097033     0.01554640412989     0.12446056578323
    4     0.04411040335893     0.00213539713157     0.00072705983208     0.00094548167934     1.33944624982393
    5     0.02004019990928     0.88208726312197     0.87604148746413     0.87558541804323     0.00358126775967
    6     0.00743813678784     0.00849532803423     0.00399784938412     0.01656742977411     0.07844343833871
    7     0.12961819799691     0.00316165023583     0.01914014388615     0.00745277147013     0.00047792933760
    8     0.14038214404811     0.00060511927757     0.00042648860444     0.00052738282504     0.00014458061483
    9     0.14422249246293     0.00038952896882     0.00179342947452     0.00044639648940     0.00011906536751
   10     1.52804826632710     0.00027209130499     0.00051357419630     0.00038024023327     0.00040740888987
   11     0.00000000000000     0.00126533686203     0.00156106416569     0.00113782617534     0.00363426386773
   12     0.00126533686203     0.00000000000000     0.01012928064684     0.00722948533678     0.00016689647658
   13     0.00156106416569     0.01012928064684     0.00000000000000     0.00804135426647     0.00031626184647
   14     0.00113782617534     0.00722948533678     0.00804135426647     0.00000000000000     0.00034108063282
   15     0.00363426386773     0.00016689647658     0.00031626184647     0.00034108063282     0.00000000000000
   16     0.01775148638336     0.00001171993372     0.00006331586376     0.00012076279313     0.04440795818444
   17     0.00299655682738     0.00009717965495     0.00001078132088     0.00007854222338     0.04005586356414
   18     0.00949914107719     0.00048744933479     0.00324095475704     0.00117781818246     0.00002788146645
   19     0.00262406375644     0.00002367848242     0.00003322962073     0.00005382623261     0.00001407480478
   20     0.06119436474558     0.00000740611660     0.00005527466952     0.00000888090967     0.00002205614171
   21     0.80235818579287     0.00002491207824     0.00005923741283     0.00011122014987     0.00130509263217
   22     0.00029084520179     0.00005279790200     0.00002902176149     0.00008676218627     0.88277177334531
   23     0.01120015091568     0.00000752409361     0.00002569673017     0.00003987596094     0.00001648266816
   24     0.00079768890582     0.00000315666846     0.00001345562689     0.00008035468965     0.88155916356444

                16                  17                  18                  19                  20

    1     0.00580204909979     0.00270305453103     0.05392857017937     0.01067333950464     0.01079989398477
    2     0.00686585558158     0.01562650264051     0.01464562315182     0.00089017854228     0.00081438281262
    3     0.04639229281201     0.04955091033394     0.00189230700491     0.00039181470007     0.00018466726953
    4     0.83092064832673     0.83153248034182     0.00025486940343     0.00009549811630     0.00017697337790
    5     0.00054977705786     0.00189487590124     0.02000031982957     0.00032505626619     0.00045536163709
    6     0.01453933079909     0.01678689506428     0.00042669339560     0.00016407547227     0.00004762745057
    7     0.00032407459246     0.00033836223069     0.80712131488692     0.06140865991084     0.00260235069111
    8     0.00027782981044     0.00011743938092     0.01046680786273     0.05937140493584     0.05936872936452
    9     0.00028649249901     0.00010457714408     0.05681268404069     0.83102829753688     0.01156772594911
   10     0.00195554623449     0.00014515818023     0.00246643674974     0.01155566617507     0.83131040856372
   11     0.01775148638336     0.00299655682738     0.00949914107719     0.00262406375644     0.06119436474558
   12     0.00001171993372     0.00009717965495     0.00048744933479     0.00002367848242     0.00000740611660
   13     0.00006331586376     0.00001078132088     0.00324095475704     0.00003322962073     0.00005527466952
   14     0.00012076279313     0.00007854222338     0.00117781818246     0.00005382623261     0.00000888090967
   15     0.04440795818444     0.04005586356414     0.00002788146645     0.00001407480478     0.00002205614171
   16     0.00000000000000     0.00707958747441     0.00003019504137     0.00003558216602     0.00006203265086
   17     0.00707958747441     0.00000000000000     0.00003534601302     0.00000808411146     0.00001249217769
   18     0.00003019504137     0.00003534601302     0.00000000000000     0.00587018671602     0.00022148126496
   19     0.00003558216602     0.00000808411146     0.00587018671602     0.00000000000000     0.00027981061224
   20     0.00006203265086     0.00001249217769     0.00022148126496     0.00027981061224     0.00000000000000
   21     0.00757585012854     0.00040244752178     0.00047730116719     0.00021073973263     0.00579488430984
   22     0.00353581574482     0.00966756769276     0.00001040527835     0.00000121000997     0.00000489364725
   23     0.00001894632086     0.00001098276814     0.00019707541889     0.00529668684471     0.00527570744408
   24     0.00951678184444     0.00440156100787     0.00000563573263     0.00000151536940     0.00000443125627

                21                  22                  23                  24

    1     0.05497855047035     0.00028921900817     0.00278333270054     0.00026711891662
    2     0.01493381997870     0.00072628309137     0.00026673894487     0.00062283693852
    3     0.00760292116701     0.01158494257874     0.00005651270615     0.00986526402006
    4     0.01847023076979     0.03854838728273     0.00009739094510     0.03962033283042
    5     0.00107887605823     0.00037985647642     0.00014515833512     0.00021516161150
    6     0.00051187110934     0.00898154892079     0.00002504073690     0.01099989612667
    7     0.00957744242098     0.00004367927298     0.01119369747383     0.00004699973487
    8     0.01035395924189     0.00001429903726     0.83308544258260     0.00002282395865
    9     0.00247285309882     0.00001338876425     0.06030104767939     0.00002708150545
   10     0.05664856512379     0.00002480314513     0.06023017669974     0.00012012901902
   11     0.80235818579287     0.00029084520179     0.01120015091568     0.00079768890582
   12     0.00002491207824     0.00005279790200     0.00000752409361     0.00000315666846
   13     0.00005923741283     0.00002902176149     0.00002569673017     0.00001345562689
   14     0.00011122014987     0.00008676218627     0.00003987596094     0.00008035468965
   15     0.00130509263217     0.88277177334531     0.00001648266816     0.88155916356444
   16     0.00757585012854     0.00353581574482     0.00001894632086     0.00951678184444
   17     0.00040244752178     0.00966756769276     0.00001098276814     0.00440156100787
   18     0.00047730116719     0.00001040527835     0.00019707541889     0.00000563573263
   19     0.00021073973263     0.00000121000997     0.00529668684471     0.00000151536940
   20     0.00579488430984     0.00000489364725     0.00527570744408     0.00000443125627
   21     0.00000000000000     0.00002711965001     0.00020594006361     0.00036261737123
   22     0.00002711965001     0.00000000000000     0.00000109734749     0.00760716293621
   23     0.00020594006361     0.00000109734749     0.00000000000000     0.00000432772790
   24     0.00036261737123     0.00760716293621     0.00000432772790     0.00000000000000



  Atomic Valences: 

 #  #
 Irrep: 1
      1:    4.807947818844487
      2:    4.400818114176696
      3:    5.133589575168014
      4:    4.512063701309634
      5:    4.248271191504248
      6:    2.937230121516270
      7:    4.483334297832801
      8:    4.455100913919655
      9:    4.459971635790664
     10:    4.459016633692449
     11:    4.490630987523458
     12:    0.993199047792720
     13:    0.999855624730462
     14:    0.992118578490493
     15:    3.421258565533537
     16:    0.998123931343187
     17:    0.983657248106607
     18:    0.989296497955143
     19:    0.990356679619808
     20:    0.990271837047201
     21:    0.995544637449684
     22:    0.964692880281561
     23:    0.990485033108488
     24:    0.966165497362992


    Psi4 stopped on: Saturday, 18 November 2023 08:33AM
    Psi4 wall time for execution: 0:00:33.66

*** Psi4 exiting successfully. Buy a developer a beer!
