      -----------------------------------------------------------      
     |                   =====================                   |     
     |                           x T B                           |     
     |                   =====================                   |     
     |                         S. Grimme                         |     
     |          Mulliken Center for Theoretical Chemistry        |     
     |                    University of Bonn                     |     
      -----------------------------------------------------------      

   * xtb version 6.5.0 (97a52f5) compiled by 'conda@d2599ee0d4f4' on 2022-05-15

   xtb is free software: you can redistribute it and/or modify it under
   the terms of the GNU Lesser General Public License as published by
   the Free Software Foundation, either version 3 of the License, or
   (at your option) any later version.
   
   xtb is distributed in the hope that it will be useful,
   but WITHOUT ANY WARRANTY; without even the implied warranty of
   MERCHANTABILITY or FITNESS FOR A PARTICULAR PURPOSE.  See the
   GNU Lesser General Public License for more details.
   
   Cite this work as:
   * C. Bannwarth, E. Caldeweyher, S. Ehlert, A. Hansen, P. Pracht,
     J. Seibert, S. Spicher, S. Grimme, WIREs Comput. Mol. Sci., 2020, 11,
     e01493. DOI: 10.1002/wcms.1493
   
   for GFN2-xTB:
   * C. Bannwarth, S. Ehlert and S. Grimme., J. Chem. Theory Comput., 2019,
     15, 1652-1671. DOI: 10.1021/acs.jctc.8b01176
   for GFN1-xTB:
   * S. Grimme, C. Bannwarth, P. Shushkov, J. Chem. Theory Comput., 2017,
     13, 1989-2009. DOI: 10.1021/acs.jctc.7b00118
   for GFN0-xTB:
   * P. Pracht, E. Caldeweyher, S. Ehlert, S. Grimme, ChemRxiv, 2019, preprint.
     DOI: 10.26434/chemrxiv.8326202.v1
   for GFN-FF:
   * S. Spicher and S. Grimme, Angew. Chem. Int. Ed., 2020, 59, 15665-15673.
     DOI: 10.1002/anie.202004239
   
   for ALPB and GBSA implicit solvation:
   * S. Ehlert, M. Stahn, S. Spicher, S. Grimme, J. Chem. Theory Comput.,
     2021, 17, 4250-4261. DOI: 10.1021/acs.jctc.1c00471
   
   for DFT-D4:
   * E. Caldeweyher, C. Bannwarth and S. Grimme, J. Chem. Phys., 2017,
     147, 034112. DOI: 10.1063/1.4993215
   * E. Caldeweyher, S. Ehlert, A. Hansen, H. Neugebauer, S. Spicher,
     C. Bannwarth and S. Grimme, J. Chem. Phys., 2019, 150, 154122.
     DOI: 10.1063/1.5090222
   * E. Caldeweyher, J.-M. Mewes, S. Ehlert and S. Grimme, Phys. Chem. Chem. Phys.
     2020, 22, 8499-8512. DOI: 10.1039/D0CP00502A
   
   for sTDA-xTB:
   * S. Grimme and C. Bannwarth, J. Chem. Phys., 2016, 145, 054103.
     DOI: 10.1063/1.4959605
   
   in the mass-spec context:
   * V. Asgeirsson, C. Bauer and S. Grimme, Chem. Sci., 2017, 8, 4879.
     DOI: 10.1039/c7sc00601b
   * J. Koopman and S. Grimme, ACS Omega 2019, 4, 12, 15120-15133.
     DOI: 10.1021/acsomega.9b02011
   
   for metadynamics refer to:
   * S. Grimme, J. Chem. Theory Comput., 2019, 155, 2847-2862
     DOI: 10.1021/acs.jctc.9b00143
   
   for SPH calculations refer to:
   * S. Spicher and S. Grimme, J. Chem. Theory Comput., 2021, 17, 1701-1714
     DOI: 10.1021/acs.jctc.0c01306
   
   with help from (in alphabetical order)
   P. Atkinson, C. Bannwarth, F. Bohle, G. Brandenburg, E. Caldeweyher
   M. Checinski, S. Dohm, S. Ehlert, S. Ehrlich, I. Gerasimov, C. Hölzer
   A. Katbashev, J. Koopman, C. Lavigne, S. Lehtola, F. März, M. Müller,
   F. Musil, H. Neugebauer, J. Pisarek, C. Plett, P. Pracht, F. Pultar,
   J. Seibert, P. Shushkov, S. Spicher, M. Stahn, M. Steiner, T. Strunk,
   J. Stückrath, T. Rose, and J. Unsleber
   
 * started run on 2023/11/18 at 08:27:28.625     

           -------------------------------------------------
          |                Calculation Setup                |
           -------------------------------------------------

          program call               : /home/liuchw/anaconda3/envs/xtbenv/bin/xtb --gfn 2 --chrg 0 --uhf 0 3_25_Index_0_GrowFragment_3-opt-2-3-315_preQMOPTprefit_xyzformat.xyz --opt --input xtb-opt-2-3-315_constr.txt
          hostname                   : node165.bme.utexas.edu
          coordinate file            : 3_25_Index_0_GrowFragment_3-opt-2-3-315_preQMOPTprefit_xyzformat.xyz
          omp threads                :                    64

   ID    Z sym.   atoms
    1    6 C      1, 3-5, 7-11
    2    7 N      2, 15
    3    8 O      6
    4    1 H      12-14, 16-24
constraining angle 1 2 3 4 to  314.9649178°, actual value:  -45.0350822°
constraining angle 11 1 2 3 to   53.1927666°, actual value:   53.1927666°
constraining angle 2 3 4 15 to  184.0494637°, actual value: -175.9505363°
constraining angle 1 2 5 13 to   29.9958786°, actual value:   29.9958786°
constraining angle 16 4 15 22 to   71.0216596°, actual value:   71.0216596°
constraining angle 17 4 15 22 to  186.0395200°, actual value: -173.9604800°
constraining angle 16 4 15 24 to  181.9647635°, actual value: -178.0352365°
constraining angle 17 4 15 24 to  296.9826239°, actual value:  -63.0173761°

           -------------------------------------------------
          |                 G F N 2 - x T B                 |
           -------------------------------------------------

        Reference                      10.1021/acs.jctc.8b01176
      * Hamiltonian:
        H0-scaling (s, p, d)           1.850000    2.230000    2.230000
        zeta-weighting                 0.500000
      * Dispersion:
        s8                             2.700000
        a1                             0.520000
        a2                             5.000000
        s9                             5.000000
      * Repulsion:
        kExp                           1.500000    1.000000
        rExp                           1.000000
      * Coulomb:
        alpha                          2.000000
        third order                    shell-resolved
        anisotropic                    true
        a3                             3.000000
        a5                             4.000000
        cn-shift                       1.200000
        cn-exp                         4.000000
        max-rad                        5.000000

q/qsh data taken from xtbrestart
CAMM data taken from xtbrestart

          ...................................................
          :                      SETUP                      :
          :.................................................:
          :  # basis functions                  60          :
          :  # atomic orbitals                  60          :
          :  # shells                           36          :
          :  # electrons                        64          :
          :  max. iterations                   250          :
          :  Hamiltonian                  GFN2-xTB          :
          :  restarted?                       true          :
          :  GBSA solvation                  false          :
          :  PC potential                    false          :
          :  electronic temp.          300.0000000     K    :
          :  accuracy                    1.0000000          :
          :  -> integral cutoff          0.2500000E+02      :
          :  -> integral neglect         0.1000000E-07      :
          :  -> SCF convergence          0.1000000E-05 Eh   :
          :  -> wf. convergence          0.1000000E-03 e    :
          :  Broyden damping             0.4000000          :
          ...................................................

 iter      E             dE          RMSdq      gap      omega  full diag
   1    -35.7198607 -0.357199E+02  0.136E+00    3.03       0.0  T
   2    -35.7213962 -0.153553E-02  0.796E-01    3.01       1.0  T
   3    -35.7194062  0.199001E-02  0.381E-01    3.03       1.0  T
   4    -35.7220443 -0.263807E-02  0.631E-02    3.04       1.0  T
   5    -35.7220917 -0.474377E-04  0.243E-02    3.03       1.0  T
   6    -35.7220922 -0.457608E-06  0.100E-02    3.03       2.0  T
   7    -35.7220932 -0.986821E-06  0.265E-03    3.03       7.7  T
   8    -35.7220932 -0.598573E-07  0.911E-04    3.03      22.4  T
   9    -35.7220932 -0.130684E-08  0.463E-04    3.03      44.0  T

   *** convergence criteria satisfied after 9 iterations ***

         #    Occupation            Energy/Eh            Energy/eV
      -------------------------------------------------------------
         1        2.0000           -0.7047698             -19.1778
       ...           ...                  ...                  ...
        26        2.0000           -0.4437183             -12.0742
        27        2.0000           -0.4372624             -11.8985
        28        2.0000           -0.4204555             -11.4412
        29        2.0000           -0.4132141             -11.2441
        30        2.0000           -0.4128751             -11.2349
        31        2.0000           -0.3844780             -10.4622
        32        2.0000           -0.3656390              -9.9495 (HOMO)
        33                         -0.2543095              -6.9201 (LUMO)
        34                         -0.2395201              -6.5177
        35                         -0.2383994              -6.4872
        36                         -0.1170582              -3.1853
        37                         -0.0565515              -1.5388
       ...                                ...                  ...
        60                          0.5951463              16.1948
      -------------------------------------------------------------
                  HL-Gap            0.1113295 Eh            3.0294 eV
             Fermi-level           -0.3099743 Eh           -8.4348 eV

 SCC (total)                   0 d,  0 h,  0 min,  1.234 sec
 SCC setup                      ...        0 min,  0.006 sec (  0.502%)
 Dispersion                     ...        0 min,  0.043 sec (  3.498%)
 classical contributions        ...        0 min,  0.017 sec (  1.402%)
 integral evaluation            ...        0 min,  0.041 sec (  3.312%)
 iterations                     ...        0 min,  0.979 sec ( 79.340%)
 molecular gradient             ...        0 min,  0.147 sec ( 11.902%)
 printout                       ...        0 min,  0.000 sec (  0.018%)

         :::::::::::::::::::::::::::::::::::::::::::::::::::::
         ::                     SUMMARY                     ::
         :::::::::::::::::::::::::::::::::::::::::::::::::::::
         :: total energy             -35.254385049872 Eh    ::
         :: gradient norm              0.076713427034 Eh/a0 ::
         :: HOMO-LUMO gap              3.029430755657 eV    ::
         ::.................................................::
         :: SCC energy               -35.722093241650 Eh    ::
         :: -> isotropic ES            0.043695173423 Eh    ::
         :: -> anisotropic ES          0.005049628111 Eh    ::
         :: -> anisotropic XC          0.021933234319 Eh    ::
         :: -> dispersion             -0.020505257161 Eh    ::
         :: repulsion energy           0.467575012484 Eh    ::
         :: add. restraining           0.000000000000 Eh    ::
         :: total charge               0.000000000000 e     ::
         :::::::::::::::::::::::::::::::::::::::::::::::::::::

      ----------------------------------------------------------- 
     |                   =====================                   |
     |                        A N C O P T                        |
     |                   =====================                   |
     |               Approximate Normal Coordinate               |
     |                Rational Function Optimizer                |
      ----------------------------------------------------------- 

          ...................................................
          :                      SETUP                      :
          :.................................................:
          :   optimization level            normal          :
          :   max. optcycles                   200          :
          :   ANC micro-cycles                  20          :
          :   degrees of freedom                66          :
          :.................................................:
          :   RF solver                   davidson          :
          :   write xtbopt.log                true          :
          :   linear?                        false          :
          :   energy convergence         0.5000000E-05 Eh   :
          :   grad. convergence          0.1000000E-02 Eh/α :
          :   maximium RF displ.         1.0000000          :
          :   Hlow (freq-cutoff)         0.1000000E-01      :
          :   Hmax (freq-cutoff)         5.0000000          :
          :   S6 in model hess.         20.0000000          :
          ...................................................

generating ANC from model Hessian ...
Using Lindh-Hessian (1995)
 Shifting diagonal of input Hessian by    8.4039866650691408E-003
 Lowest  eigenvalues of input Hessian
    0.000000    0.000000    0.000000    0.000000    0.000000    0.000000
    0.010000    0.011701    0.013164    0.016761    0.017631    0.019577
    0.022929    0.023983    0.027234    0.029881    0.033967    0.038520
 Highest eigenvalues
    3.445829    5.965057    7.032534    9.234932   11.306030   19.952549


........................................................................
.............................. CYCLE    1 ..............................
........................................................................
   1    -35.7220932 -0.357221E+02  0.165E-04    3.03       0.0  T
   2    -35.7220932 -0.733920E-10  0.100E-04    3.03     203.8  T
   3    -35.7220932 -0.376588E-12  0.648E-05    3.03     315.1  T
     SCC iter.                  ...        0 min,  0.325 sec
     gradient                   ...        0 min,  0.147 sec
 * total energy  :   -35.2543851 Eh     change       -0.3432625E-08 Eh
   gradient norm :     0.0767133 Eh/α   predicted     0.0000000E+00 (-100.00%)
   displ. norm   :     0.4285784 α      lambda       -0.1818328E-01
   maximum displ.:     0.2547105 α      in ANC's #13, #12, #16, ...

........................................................................
.............................. CYCLE    2 ..............................
........................................................................
   1    -35.7673787 -0.357674E+02  0.375E-01    3.26       0.0  T
   2    -35.7677695 -0.390845E-03  0.230E-01    3.33       1.0  T
   3    -35.7677368  0.327090E-04  0.106E-01    3.32       1.0  T
   4    -35.7678135 -0.766800E-04  0.333E-02    3.32       1.0  T
   5    -35.7678394 -0.259299E-04  0.542E-03    3.32       3.8  T
   6    -35.7678394 -0.602139E-08  0.270E-03    3.32       7.6  T
   7    -35.7678395 -0.709136E-07  0.630E-04    3.32      32.4  T
   8    -35.7678395 -0.872788E-09  0.268E-04    3.32      76.1  T
     SCC iter.                  ...        0 min,  0.858 sec
     gradient                   ...        0 min,  0.138 sec
 * total energy  :   -35.2666922 Eh     change       -0.1230719E-01 Eh
   gradient norm :     0.1070680 Eh/α   predicted    -0.1076159E-01 ( -12.56%)
   displ. norm   :     0.4608654 α      lambda       -0.1093548E-01
   maximum displ.:     0.2752346 α      in ANC's #13, #4, #3, ...

........................................................................
.............................. CYCLE    3 ..............................
........................................................................
   1    -35.7977573 -0.357978E+02  0.313E-01    3.41       0.0  T
   2    -35.7983764 -0.619133E-03  0.198E-01    3.47       1.0  T
   3    -35.7984466 -0.701604E-04  0.104E-01    3.46       1.0  T
   4    -35.7984524 -0.584682E-05  0.379E-02    3.46       1.0  T
   5    -35.7984838 -0.314025E-04  0.481E-03    3.46       4.2  T
   6    -35.7984839 -0.380554E-07  0.265E-03    3.46       7.7  T
   7    -35.7984839 -0.474250E-07  0.674E-04    3.46      30.3  T
   8    -35.7984839 -0.135139E-08  0.309E-04    3.46      66.0  T
     SCC iter.                  ...        0 min,  0.953 sec
     gradient                   ...        0 min,  0.137 sec
 * total energy  :   -35.2679886 Eh     change       -0.1296315E-02 Eh
   gradient norm :     0.4190616 Eh/α   predicted    -0.6629637E-02 ( 411.42%)
   displ. norm   :     0.2827440 α      lambda       -0.1241271E-01
   maximum displ.:     0.1343752 α      in ANC's #3, #13, #4, ...

........................................................................
.............................. CYCLE    4 ..............................
........................................................................
   1    -35.8066398 -0.358066E+02  0.143E-01    3.55       0.0  T
   2    -35.8066823 -0.424786E-04  0.873E-02    3.55       1.0  T
   3    -35.8066733  0.899581E-05  0.415E-02    3.55       1.0  T
   4    -35.8066931 -0.198083E-04  0.825E-03    3.55       2.5  T
   5    -35.8066939 -0.789900E-06  0.343E-03    3.55       6.0  T
   6    -35.8066939 -0.717141E-07  0.154E-03    3.55      13.3  T
   7    -35.8066940 -0.127397E-07  0.467E-04    3.55      43.7  T
   8    -35.8066940 -0.122786E-08  0.183E-04    3.55     111.3  T
     SCC iter.                  ...        0 min,  0.964 sec
     gradient                   ...        0 min,  0.141 sec
 * total energy  :   -35.2740066 Eh     change       -0.6018017E-02 Eh
   gradient norm :     0.1067408 Eh/α   predicted    -0.6702504E-02 (  11.37%)
   displ. norm   :     0.3327987 α      lambda       -0.3650083E-02
   maximum displ.:     0.2281699 α      in ANC's #3, #2, #4, ...

........................................................................
.............................. CYCLE    5 ..............................
........................................................................
   1    -35.7988399 -0.357988E+02  0.155E-01    3.54       0.0  T
   2    -35.7988544 -0.145180E-04  0.888E-02    3.54       1.0  T
   3    -35.7988539  0.532448E-06  0.171E-02    3.54       1.2  T
   4    -35.7988560 -0.205227E-05  0.506E-03    3.55       4.0  T
   5    -35.7988563 -0.299798E-06  0.239E-03    3.55       8.5  T
   6    -35.7988563 -0.250216E-07  0.518E-04    3.55      39.4  T
   7    -35.7988563 -0.172960E-08  0.246E-04    3.55      83.1  T
     SCC iter.                  ...        0 min,  0.846 sec
     gradient                   ...        0 min,  0.143 sec
 * total energy  :   -35.2766509 Eh     change       -0.2644301E-02 Eh
   gradient norm :     0.0897346 Eh/α   predicted    -0.2027195E-02 ( -23.34%)
   displ. norm   :     0.5922999 α      lambda       -0.4445808E-02
   maximum displ.:     0.3847193 α      in ANC's #3, #2, #4, ...

........................................................................
.............................. CYCLE    6 ..............................
........................................................................
   1    -35.7878013 -0.357878E+02  0.258E-01    3.55       0.0  T
   2    -35.7878480 -0.467415E-04  0.147E-01    3.56       1.0  T
   3    -35.7878490 -0.916574E-06  0.279E-02    3.56       1.0  T
   4    -35.7878526 -0.361921E-05  0.658E-03    3.56       3.1  T
   5    -35.7878528 -0.194667E-06  0.381E-03    3.56       5.4  T
   6    -35.7878529 -0.156343E-06  0.795E-04    3.56      25.7  T
   7    -35.7878529 -0.201486E-08  0.372E-04    3.56      54.9  T
     SCC iter.                  ...        0 min,  0.801 sec
     gradient                   ...        0 min,  0.160 sec
 * total energy  :   -35.2794127 Eh     change       -0.2761816E-02 Eh
   gradient norm :     0.0372606 Eh/α   predicted    -0.3002777E-02 (   8.72%)
   displ. norm   :     0.3964402 α      lambda       -0.2236149E-02
   maximum displ.:     0.2279145 α      in ANC's #3, #2, #4, ...

........................................................................
.............................. CYCLE    7 ..............................
........................................................................
   1    -35.7932255 -0.357932E+02  0.158E-01    3.57       0.0  T
   2    -35.7932428 -0.173745E-04  0.921E-02    3.57       1.0  T
   3    -35.7932334  0.943578E-05  0.288E-02    3.57       1.0  T
   4    -35.7932460 -0.126293E-04  0.656E-03    3.57       3.1  T
   5    -35.7932466 -0.581105E-06  0.255E-03    3.57       8.0  T
   6    -35.7932466 -0.164401E-07  0.101E-03    3.57      20.3  T
   7    -35.7932466 -0.666491E-08  0.347E-04    3.57      58.9  T
   8    -35.7932466 -0.726509E-09  0.148E-04    3.57     137.7  T
     SCC iter.                  ...        0 min,  0.972 sec
     gradient                   ...        0 min,  0.141 sec
 * total energy  :   -35.2808541 Eh     change       -0.1441414E-02 Eh
   gradient norm :     0.0363646 Eh/α   predicted    -0.1293843E-02 ( -10.24%)
   displ. norm   :     0.3495909 α      lambda       -0.2432181E-02
   maximum displ.:     0.1808338 α      in ANC's #2, #3, #13, ...

........................................................................
.............................. CYCLE    8 ..............................
........................................................................
   1    -35.8041459 -0.358041E+02  0.166E-01    3.56       0.0  T
   2    -35.8041819 -0.359963E-04  0.967E-02    3.54       1.0  T
   3    -35.8041783  0.357359E-05  0.291E-02    3.54       1.0  T
   4    -35.8041843 -0.601098E-05  0.892E-03    3.53       2.3  T
   5    -35.8041859 -0.157990E-05  0.299E-03    3.54       6.8  T
   6    -35.8041859 -0.726279E-08  0.114E-03    3.54      17.8  T
   7    -35.8041859 -0.145971E-07  0.341E-04    3.54      59.9  T
   8    -35.8041859 -0.419220E-09  0.150E-04    3.54     136.2  T
     SCC iter.                  ...        0 min,  0.968 sec
     gradient                   ...        0 min,  0.200 sec
 * total energy  :   -35.2818061 Eh     change       -0.9519599E-03 Eh
   gradient norm :     0.0630019 Eh/α   predicted    -0.1364729E-02 (  43.36%)
   displ. norm   :     0.2566077 α      lambda       -0.1318755E-02
   maximum displ.:     0.1562618 α      in ANC's #2, #5, #3, ...

........................................................................
.............................. CYCLE    9 ..............................
........................................................................
   1    -35.8024164 -0.358024E+02  0.119E-01    3.53       0.0  T
   2    -35.8024275 -0.111354E-04  0.693E-02    3.53       1.0  T
   3    -35.8024227  0.483586E-05  0.203E-02    3.54       1.0  T
   4    -35.8024293 -0.659369E-05  0.462E-03    3.54       4.4  T
   5    -35.8024297 -0.430138E-06  0.148E-03    3.54      13.8  T
   6    -35.8024297 -0.603178E-08  0.696E-04    3.54      29.3  T
   7    -35.8024297 -0.430794E-08  0.156E-04    3.54     131.1  T
     SCC iter.                  ...        0 min,  0.827 sec
     gradient                   ...        0 min,  0.146 sec
 * total energy  :   -35.2824141 Eh     change       -0.6080483E-03 Eh
   gradient norm :     0.0288752 Eh/α   predicted    -0.7028215E-03 (  15.59%)
   displ. norm   :     0.2104276 α      lambda       -0.8391495E-03
   maximum displ.:     0.1338299 α      in ANC's #2, #12, #3, ...

........................................................................
.............................. CYCLE   10 ..............................
........................................................................
   1    -35.8055827 -0.358056E+02  0.137E-01    3.59       0.0  T
   2    -35.8058356 -0.252849E-03  0.819E-02    3.62       1.0  T
   3    -35.8058489 -0.133055E-04  0.476E-02    3.62       1.0  T
   4    -35.8058464  0.252050E-05  0.146E-02    3.62       1.4  T
   5    -35.8058502 -0.383521E-05  0.382E-03    3.62       5.3  T
   6    -35.8058505 -0.257852E-06  0.158E-03    3.62      12.9  T
   7    -35.8058505 -0.224795E-07  0.642E-04    3.62      31.8  T
   8    -35.8058505 -0.117310E-08  0.286E-04    3.62      71.3  T
     SCC iter.                  ...        0 min,  0.901 sec
     gradient                   ...        0 min,  0.145 sec
 * total energy  :   -35.2821548 Eh     change        0.2593436E-03 Eh
   gradient norm :     0.0526150 Eh/α   predicted    -0.4381734E-03 (-268.95%)
   displ. norm   :     0.1113037 α      lambda       -0.1437407E-02
   maximum displ.:     0.0478229 α      in ANC's #2, #1, #13, ...

........................................................................
.............................. CYCLE   11 ..............................
........................................................................
   1    -35.7999985 -0.358000E+02  0.892E-02    3.56       0.0  T
   2    -35.8001273 -0.128777E-03  0.548E-02    3.56       1.0  T
   3    -35.8001369 -0.964126E-05  0.318E-02    3.57       1.0  T
   4    -35.8001355  0.144913E-05  0.112E-02    3.57       1.8  T
   5    -35.8001374 -0.196190E-05  0.296E-03    3.57       6.9  T
   6    -35.8001376 -0.159413E-06  0.127E-03    3.57      16.1  T
   7    -35.8001376 -0.156743E-07  0.513E-04    3.57      39.8  T
   8    -35.8001376 -0.595371E-09  0.218E-04    3.57      93.6  T
     SCC iter.                  ...        0 min,  0.911 sec
     gradient                   ...        0 min,  0.155 sec
 * total energy  :   -35.2828372 Eh     change       -0.6824045E-03 Eh
   gradient norm :     0.0211342 Eh/α   predicted    -0.7276121E-03 (   6.62%)
   displ. norm   :     0.1519217 α      lambda       -0.6306337E-03
   maximum displ.:     0.1024447 α      in ANC's #3, #4, #13, ...

........................................................................
.............................. CYCLE   12 ..............................
........................................................................
   1    -35.8064737 -0.358065E+02  0.874E-02    3.56       0.0  T
   2    -35.8064849 -0.112039E-04  0.505E-02    3.56       1.0  T
   3    -35.8064848  0.109402E-06  0.149E-02    3.56       1.4  T
   4    -35.8064859 -0.116827E-05  0.384E-03    3.56       5.3  T
   5    -35.8064861 -0.149739E-06  0.192E-03    3.56      10.7  T
   6    -35.8064861 -0.720144E-08  0.675E-04    3.56      30.2  T
   7    -35.8064861 -0.666295E-08  0.195E-04    3.56     104.9  T
     SCC iter.                  ...        0 min,  0.782 sec
     gradient                   ...        0 min,  0.151 sec
 * total energy  :   -35.2827878 Eh     change        0.4933997E-04 Eh
   gradient norm :     0.0292486 Eh/α   predicted    -0.3225963E-03 (-753.82%)
   displ. norm   :     0.1602199 α      lambda       -0.5453568E-03
   maximum displ.:     0.0863123 α      in ANC's #2, #3, #5, ...

........................................................................
.............................. CYCLE   13 ..............................
........................................................................
   1    -35.8035770 -0.358036E+02  0.715E-02    3.57       0.0  T
   2    -35.8035851 -0.808508E-05  0.414E-02    3.58       1.0  T
   3    -35.8035849  0.195676E-06  0.127E-02    3.58       1.6  T
   4    -35.8035856 -0.770554E-06  0.336E-03    3.58       6.1  T
   5    -35.8035858 -0.137655E-06  0.139E-03    3.58      14.7  T
   6    -35.8035858 -0.664119E-08  0.502E-04    3.58      40.7  T
   7    -35.8035858 -0.967610E-09  0.171E-04    3.58     119.1  T
     SCC iter.                  ...        0 min,  0.869 sec
     gradient                   ...        0 min,  0.148 sec
 * total energy  :   -35.2831041 Eh     change       -0.3163133E-03 Eh
   gradient norm :     0.0131530 Eh/α   predicted    -0.2796815E-03 ( -11.58%)
   displ. norm   :     0.1074794 α      lambda       -0.1067436E-03
   maximum displ.:     0.0631874 α      in ANC's #2, #1, #5, ...

........................................................................
.............................. CYCLE   14 ..............................
........................................................................
   1    -35.8029205 -0.358029E+02  0.432E-02    3.58       0.0  T
   2    -35.8029217 -0.117908E-05  0.254E-02    3.58       1.0  T
   3    -35.8029215  0.211781E-06  0.542E-03    3.58       3.8  T
   4    -35.8029218 -0.304109E-06  0.155E-03    3.58      13.2  T
   5    -35.8029218 -0.323956E-07  0.497E-04    3.58      41.1  T
   6    -35.8029218 -0.574467E-09  0.193E-04    3.58     105.7  T
     SCC iter.                  ...        0 min,  0.733 sec
     gradient                   ...        0 min,  0.148 sec
 * total energy  :   -35.2831610 Eh     change       -0.5681570E-04 Eh
   gradient norm :     0.0127093 Eh/α   predicted    -0.5400148E-04 (  -4.95%)
   displ. norm   :     0.0895463 α      lambda       -0.7551270E-04
   maximum displ.:     0.0493432 α      in ANC's #1, #2, #5, ...

........................................................................
.............................. CYCLE   15 ..............................
........................................................................
   1    -35.8034374 -0.358034E+02  0.343E-02    3.59       0.0  T
   2    -35.8034379 -0.526855E-06  0.200E-02    3.59       1.0  T
   3    -35.8034376  0.343235E-06  0.579E-03    3.59       3.5  T
   4    -35.8034381 -0.452781E-06  0.104E-03    3.59      19.6  T
   5    -35.8034381 -0.949523E-08  0.412E-04    3.59      49.5  T
   6    -35.8034381 -0.274156E-09  0.152E-04    3.59     134.7  T
     SCC iter.                  ...        0 min,  0.680 sec
     gradient                   ...        0 min,  0.152 sec
 * total energy  :   -35.2832069 Eh     change       -0.4590082E-04 Eh
   gradient norm :     0.0076575 Eh/α   predicted    -0.3806374E-04 ( -17.07%)
   displ. norm   :     0.0348507 α      lambda       -0.3753448E-04
   maximum displ.:     0.0185410 α      in ANC's #1, #12, #9, ...

........................................................................
.............................. CYCLE   16 ..............................
........................................................................
   1    -35.8045768 -0.358046E+02  0.188E-02    3.59       0.0  T
   2    -35.8045770 -0.213744E-06  0.110E-02    3.59       1.9  T
   3    -35.8045770  0.866709E-07  0.296E-03    3.59       6.9  T
   4    -35.8045771 -0.124218E-06  0.819E-04    3.59      24.9  T
   5    -35.8045771 -0.782276E-08  0.333E-04    3.59      61.3  T
     SCC iter.                  ...        0 min,  0.568 sec
     gradient                   ...        0 min,  0.146 sec
 * total energy  :   -35.2832293 Eh     change       -0.2245104E-04 Eh
   gradient norm :     0.0052640 Eh/α   predicted    -0.1880763E-04 ( -16.23%)
   displ. norm   :     0.0209580 α      lambda       -0.1340726E-04
   maximum displ.:     0.0154121 α      in ANC's #3, #6, #12, ...

........................................................................
.............................. CYCLE   17 ..............................
........................................................................
   1    -35.8043483 -0.358043E+02  0.101E-02    3.59       0.0  T
   2    -35.8043484 -0.156709E-06  0.585E-03    3.59       3.5  T
   3    -35.8043484  0.864663E-08  0.174E-03    3.59      11.8  T
   4    -35.8043485 -0.166119E-07  0.470E-04    3.59      43.4  T
   5    -35.8043485 -0.575073E-08  0.168E-04    3.59     121.7  T
     SCC iter.                  ...        0 min,  0.554 sec
     gradient                   ...        0 min,  0.193 sec
 * total energy  :   -35.2832376 Eh     change       -0.8247500E-05 Eh
   gradient norm :     0.0040721 Eh/α   predicted    -0.6711323E-05 ( -18.63%)
   displ. norm   :     0.0274749 α      lambda       -0.1015648E-04
   maximum displ.:     0.0130582 α      in ANC's #1, #5, #3, ...

........................................................................
.............................. CYCLE   18 ..............................
........................................................................
   1    -35.8042458 -0.358042E+02  0.136E-02    3.59       0.0  T
   2    -35.8042458 -0.600822E-07  0.803E-03    3.59       2.5  T
   3    -35.8042458  0.379138E-07  0.137E-03    3.59      14.8  T
   4    -35.8042458 -0.467183E-07  0.413E-04    3.59      49.5  T
   5    -35.8042458 -0.391042E-08  0.162E-04    3.59     126.0  T
     SCC iter.                  ...        0 min,  0.581 sec
     gradient                   ...        0 min,  0.152 sec
 * total energy  :   -35.2832433 Eh     change       -0.5738990E-05 Eh
   gradient norm :     0.0014958 Eh/α   predicted    -0.5085878E-05 ( -11.38%)
   displ. norm   :     0.0318566 α      lambda       -0.3666120E-05
   maximum displ.:     0.0274170 α      in ANC's #1, #2, #5, ...

........................................................................
.............................. CYCLE   19 ..............................
........................................................................
   1    -35.8039093 -0.358039E+02  0.139E-02    3.59       0.0  T
   2    -35.8039093 -0.287841E-07  0.809E-03    3.59       2.5  T
   3    -35.8039093  0.185722E-07  0.128E-03    3.59      16.0  T
   4    -35.8039093 -0.251448E-07  0.271E-04    3.59      75.4  T
   5    -35.8039093 -0.558863E-09  0.114E-04    3.59     178.6  T
     SCC iter.                  ...        0 min,  0.605 sec
     gradient                   ...        0 min,  0.152 sec
 * total energy  :   -35.2832461 Eh     change       -0.2812048E-05 Eh
   gradient norm :     0.0026821 Eh/α   predicted    -0.1839956E-05 ( -34.57%)
   displ. norm   :     0.0117465 α      lambda       -0.1922179E-05
   maximum displ.:     0.0098521 α      in ANC's #1, #2, #3, ...

........................................................................
.............................. CYCLE   20 ..............................
........................................................................
   1    -35.8038030 -0.358038E+02  0.464E-03    3.59       0.0  T
   2    -35.8038030 -0.103208E-07  0.273E-03    3.59       7.5  T
   3    -35.8038030  0.879652E-09  0.379E-04    3.59      53.8  T
   4    -35.8038030 -0.174509E-08  0.117E-04    3.59     174.4  T
     SCC iter.                  ...        0 min,  0.525 sec
     gradient                   ...        0 min,  0.160 sec
 * total energy  :   -35.2832476 Eh     change       -0.1466271E-05 Eh
   gradient norm :     0.0009680 Eh/α   predicted    -0.9624077E-06 ( -34.36%)
   displ. norm   :     0.0234627 α      lambda       -0.1955106E-05
   maximum displ.:     0.0173135 α      in ANC's #1, #2, #5, ...

   *** GEOMETRY OPTIMIZATION CONVERGED AFTER 20 ITERATIONS ***

------------------------------------------------------------------------
 total energy gain   :        -0.0288625 Eh      -18.1115 kcal/mol
 total RMSD          :         0.6128462 a0        0.3243 Å
 total power (kW/mol):        -3.7889278 (step)   -3.7528 (real)
------------------------------------------------------------------------

 ANCopt (total)                0 d,  0 h,  0 min, 20.192 sec
 optimizer setup                ...        0 min,  0.000 sec (  0.001%)
 model hessian                  ...        0 min,  0.008 sec (  0.038%)
 ANC generation                 ...        0 min,  0.018 sec (  0.090%)
 coordinate transformation      ...        0 min,  0.001 sec (  0.004%)
 single point calculation       ...        0 min, 19.881 sec ( 98.456%)
 optimization log               ...        0 min,  0.004 sec (  0.020%)
 hessian update                 ...        0 min,  0.236 sec (  1.169%)
 rational function              ...        0 min,  0.042 sec (  0.207%)

================
 final structure:
================
24
 xtb: 6.5.0 (97a52f5)
C           -0.70260011644532       -0.35254154649669        0.24178179389082
N            0.31957093733473       -0.41032723144122        1.21434466423212
C            1.54060008969245        0.22009200209323        1.12778702193067
C            2.32826097378338        0.16844771639746       -0.17513415914895
C           -0.10100711829202       -0.67200583451078        2.58586960919747
O            2.07535672399663        0.64785161308201        2.13320604884486
C           -1.97718186678319        0.08802712084964        0.60299670900548
C           -2.74351224491732       -0.13126276424864       -1.66304465817886
C           -2.98408636452585        0.18861463158185       -0.33829412426418
C           -1.48206538612375       -0.56178511432793       -2.03210430022375
C           -0.46899521062069       -0.66824189115627       -1.09543330959884
H            0.70401954741100       -1.20703260050722        3.08862446956975
H           -1.00175582883863       -1.27995713893551        2.57502371207214
H           -0.28533563364863        0.25111099502337        3.14251181992698
N            3.63133816508301        0.79912368722912       -0.07442363983732
H            1.79040221981031        0.64425273208506       -1.00242370052123
H            2.48212487878175       -0.87848824086438       -0.45579785666100
H           -2.18662939340907        0.37506049969035        1.62109762142621
H           -3.96129597913333        0.53154826946643       -0.03185008417587
H           -1.27861584989509       -0.82308056616089       -3.05996628697398
H            0.48400225321246       -1.05921107707850       -1.40596766882097
H            3.50527969165851        1.74468540559243        0.28345077687763
H           -3.53018746835273       -0.04843650029138       -2.39704841482307
H            4.15229798022203        0.34055483292808        0.67199097625356

 Bond Distances (Angstroems)
 ---------------------------
C1-N2=1.4121         C1-C7=1.3961         C1-C11=1.3937        N2-C1=1.4121         N2-C3=1.3769         N2-C5=1.4582         
C3-N2=1.3769         C3-C4=1.5234         C3-O6=1.2165         C4-C3=1.5234         C4-N15=1.4512        C4-H16=1.0955        
C4-H17=1.0948        C5-N2=1.4582         C5-H12=1.0895        C5-H13=1.0868        C5-H14=1.0936        O6-C3=1.2165         
C7-C1=1.3961         C7-C9=1.3820         C7-H18=1.0783        C8-C9=1.3839         C8-C10=1.3830        C8-H23=1.0791        
C9-C7=1.3820         C9-C8=1.3839         C9-H19=1.0800        C10-C8=1.3830        C10-C11=1.3838       C10-H20=1.0799       
C11-C1=1.3937        C11-C10=1.3838       C11-H21=1.0759       H12-C5=1.0895        H13-C5=1.0868        H14-C5=1.0936        
N15-C4=1.4512        N15-H22=1.0188       N15-H24=1.0192       H16-C4=1.0955        H17-C4=1.0948        H18-C7=1.0783        
H19-C9=1.0800        H20-C10=1.0799       H21-C11=1.0759       H22-N15=1.0188       H23-C8=1.0791        H24-N15=1.0192       
 C  H  Rav=1.0853 sigma=0.0072  Rmin=1.0759  Rmax=1.0955    10
 C  C  Rav=1.4066 sigma=0.0480  Rmin=1.3820  Rmax=1.5234     7
 N  H  Rav=1.0190 sigma=0.0002  Rmin=1.0188  Rmax=1.0192     2
 N  C  Rav=1.4246 sigma=0.0327  Rmin=1.3769  Rmax=1.4582     4
 O  C  Rav=1.2165 sigma=0.0000  Rmin=1.2165  Rmax=1.2165     1

 selected bond angles (degree)
 --------------------
C7-C1-N2=119.71                C11-C1-N2=122.02               C11-C1-C7=118.21               C3-N2-C1=125.44                
C5-N2-C1=116.51                C5-N2-C3=113.39                C4-C3-N2=119.79                O6-C3-N2=119.93                
O6-C3-C4=119.44                N15-C4-C3=112.97               H16-C4-C3=112.17               H16-C4-N15=107.73              
H17-C4-C3=108.93               H17-C4-N15=107.89              H17-C4-H16=106.90              H12-C5-N2=108.00               
H13-C5-N2=109.27               H13-C5-H12=110.02              H14-C5-N2=112.08               H14-C5-H12=107.71              
H14-C5-H13=109.73              C9-C7-C1=120.79                H18-C7-C1=120.37               H18-C7-C9=118.83               
C10-C8-C9=119.07               H23-C8-C9=120.44               H23-C8-C10=120.48              C8-C9-C7=120.56                
H19-C9-C7=119.28               H19-C9-C8=120.15               C11-C10-C8=120.73              H20-C10-C8=120.08              
H20-C10-C11=119.19             

 selected dihedral angles (degree)
 ---------------------------------
C3-N2-C1-C7=236.16            C3-N2-C1-C11= 53.31           C5-N2-C1-C7= 30.28            C5-N2-C1-C11=207.42           
C4-C3-N2-C1=315.17            C4-C3-N2-C5=160.37            O6-C3-N2-C1=145.77            O6-C3-N2-C5=350.96            
N15-C4-C3-N2=184.06           N15-C4-C3-O6=353.51           H16-C4-C3-N2= 62.07           H16-C4-C3-O6=231.52           
H17-C4-C3-N2=303.93           H17-C4-C3-O6=113.38           H12-C5-N2-C1=149.70           H12-C5-N2-C3=306.90           
H13-C5-N2-C1= 30.04           H13-C5-N2-C3=187.24           H14-C5-N2-C1=268.19           H14-C5-N2-C3= 65.38           
C9-C7-C1-N2=178.20            C9-C7-C1-C11=  0.94           H18-C7-C1-N2=359.43           H18-C7-C1-C11=182.18          
C8-C9-C7-C1=359.24            C8-C9-C7-H18=178.02           H19-C9-C7-C1=179.95           H19-C9-C7-H18=358.74          
C7-C9-C8-C10=  0.40           C7-C9-C8-H23=180.23           H19-C9-C8-C10=179.68          H19-C9-C8-H23=359.51          
C11-C10-C8-C9=359.75          C11-C10-C8-H23=179.92         H20-C10-C8-C9=179.52          H20-C10-C8-H23=359.69         
           -------------------------------------------------
          |                Final Singlepoint                |
           -------------------------------------------------

          ...................................................
          :                      SETUP                      :
          :.................................................:
          :  # basis functions                  60          :
          :  # atomic orbitals                  60          :
          :  # shells                           36          :
          :  # electrons                        64          :
          :  max. iterations                   250          :
          :  Hamiltonian                  GFN2-xTB          :
          :  restarted?                      false          :
          :  GBSA solvation                  false          :
          :  PC potential                    false          :
          :  electronic temp.          300.0000000     K    :
          :  accuracy                    1.0000000          :
          :  -> integral cutoff          0.2500000E+02      :
          :  -> integral neglect         0.1000000E-07      :
          :  -> SCF convergence          0.1000000E-05 Eh   :
          :  -> wf. convergence          0.1000000E-03 e    :
          :  Broyden damping             0.4000000          :
          ...................................................

 iter      E             dE          RMSdq      gap      omega  full diag
   1    -35.8038030 -0.358038E+02  0.514E-05    3.59       0.0  T
   2    -35.8038030 -0.893152E-11  0.299E-05    3.59     682.9  T
   3    -35.8038030 -0.384404E-11  0.184E-05    3.59    1109.9  T

   *** convergence criteria satisfied after 3 iterations ***

         #    Occupation            Energy/Eh            Energy/eV
      -------------------------------------------------------------
         1        2.0000           -0.7060585             -19.2128
       ...           ...                  ...                  ...
        26        2.0000           -0.4438352             -12.0774
        27        2.0000           -0.4405913             -11.9891
        28        2.0000           -0.4297101             -11.6930
        29        2.0000           -0.4162596             -11.3270
        30        2.0000           -0.4118248             -11.2063
        31        2.0000           -0.3847060             -10.4684
        32        2.0000           -0.3730176             -10.1503 (HOMO)
        33                         -0.2410972              -6.5606 (LUMO)
        34                         -0.2346799              -6.3860
        35                         -0.2155047              -5.8642
        36                         -0.1041575              -2.8343
        37                         -0.0127271              -0.3463
       ...                                ...                  ...
        60                          0.6574248              17.8894
      -------------------------------------------------------------
                  HL-Gap            0.1319205 Eh            3.5897 eV
             Fermi-level           -0.3070574 Eh           -8.3555 eV

 SCC (total)                   0 d,  0 h,  0 min,  0.612 sec
 SCC setup                      ...        0 min,  0.006 sec (  1.043%)
 Dispersion                     ...        0 min,  0.024 sec (  4.001%)
 classical contributions        ...        0 min,  0.015 sec (  2.427%)
 integral evaluation            ...        0 min,  0.039 sec (  6.385%)
 iterations                     ...        0 min,  0.370 sec ( 60.418%)
 molecular gradient             ...        0 min,  0.157 sec ( 25.647%)
 printout                       ...        0 min,  0.000 sec (  0.026%)

         :::::::::::::::::::::::::::::::::::::::::::::::::::::
         ::                     SUMMARY                     ::
         :::::::::::::::::::::::::::::::::::::::::::::::::::::
         :: total energy             -35.283247577874 Eh    ::
         :: gradient norm              0.000968621955 Eh/a0 ::
         :: HOMO-LUMO gap              3.589738546563 eV    ::
         ::.................................................::
         :: SCC energy               -35.803802968639 Eh    ::
         :: -> isotropic ES            0.045590288601 Eh    ::
         :: -> anisotropic ES          0.003869076589 Eh    ::
         :: -> anisotropic XC          0.020271516495 Eh    ::
         :: -> dispersion             -0.020910899365 Eh    ::
         :: repulsion energy           0.520388355568 Eh    ::
         :: add. restraining           0.000053135257 Eh    ::
         :: total charge              -0.000000000000 e     ::
         :::::::::::::::::::::::::::::::::::::::::::::::::::::

           -------------------------------------------------
          |                Property Printout                |
           -------------------------------------------------

    * Orbital Energies and Occupations

         #    Occupation            Energy/Eh            Energy/eV
      -------------------------------------------------------------
         1        2.0000           -0.7060585             -19.2128
       ...           ...                  ...                  ...
        20        2.0000           -0.4958833             -13.4937
        21        2.0000           -0.4903745             -13.3438
        22        2.0000           -0.4894627             -13.3190
        23        2.0000           -0.4852450             -13.2042
        24        2.0000           -0.4756382             -12.9428
        25        2.0000           -0.4511125             -12.2754
        26        2.0000           -0.4438352             -12.0774
        27        2.0000           -0.4405913             -11.9891
        28        2.0000           -0.4297101             -11.6930
        29        2.0000           -0.4162596             -11.3270
        30        2.0000           -0.4118248             -11.2063
        31        2.0000           -0.3847060             -10.4684
        32        2.0000           -0.3730176             -10.1503 (HOMO)
        33                         -0.2410972              -6.5606 (LUMO)
        34                         -0.2346799              -6.3860
        35                         -0.2155047              -5.8642
        36                         -0.1041575              -2.8343
        37                         -0.0127271              -0.3463
        38                          0.0644204               1.7530
        39                          0.0852466               2.3197
        40                          0.1074336               2.9234
        41                          0.1148398               3.1249
        42                          0.1361444               3.7047
        43                          0.1437770               3.9124
       ...                                ...                  ...
        60                          0.6574248              17.8894
      -------------------------------------------------------------
                  HL-Gap            0.1319205 Eh            3.5897 eV
             Fermi-level           -0.3070574 Eh           -8.3555 eV

     #   Z          covCN         q      C6AA      α(0)
     1   6 C        2.912     0.064    26.565     8.452
     2   7 N        2.736    -0.107    23.346     7.176
     3   6 C        2.772     0.256    22.693     7.802
     4   6 C        3.732    -0.005    20.767     6.504
     5   6 C        3.714    -0.036    21.338     6.600
     6   8 O        0.859    -0.425    22.179     6.314
     7   6 C        2.924    -0.048    29.183     8.859
     8   6 C        2.918    -0.035    28.863     8.810
     9   6 C        2.920    -0.028    28.707     8.786
    10   6 C        2.921    -0.028    28.691     8.784
    11   6 C        2.923    -0.053    29.308     8.878
    12   1 H        0.925     0.065     2.143     2.289
    13   1 H        0.925     0.053     2.280     2.361
    14   1 H        0.924     0.057     2.239     2.340
    15   7 N        2.628    -0.335    28.633     7.947
    16   1 H        0.924     0.053     2.280     2.361
    17   1 H        0.924     0.054     2.272     2.357
    18   1 H        0.926     0.042     2.427     2.436
    19   1 H        0.926     0.037     2.490     2.468
    20   1 H        0.926     0.038     2.477     2.461
    21   1 H        0.926     0.041     2.436     2.441
    22   1 H        0.860     0.151     1.392     1.848
    23   1 H        0.926     0.036     2.499     2.472
    24   1 H        0.860     0.152     1.387     1.845

 Mol. C6AA /au·bohr⁶  :       6153.514447
 Mol. C8AA /au·bohr⁸  :     142302.536894
 Mol. α(0) /au        :        122.592659


Wiberg/Mayer (AO) data.
largest (>0.10) Wiberg bond orders for each atom

 ---------------------------------------------------------------------------
     #   Z sym  total        # sym  WBO       # sym  WBO       # sym  WBO
 ---------------------------------------------------------------------------
     1   6 C    3.964 --    11 C    1.381     7 C    1.375     2 N    1.042
                             8 C    0.101
     2   7 N    3.481 --     3 C    1.169     1 C    1.042     5 C    0.988
                             6 O    0.159
     3   6 C    3.941 --     6 O    1.709     2 N    1.169     4 C    0.959
     4   6 C    3.991 --    15 N    1.039     3 C    0.959    16 H    0.954
                            17 H    0.951
     5   6 C    3.968 --     2 N    0.988    13 H    0.982    12 H    0.978
                            14 H    0.975
     6   8 O    2.013 --     3 C    1.709     2 N    0.159
     7   6 C    3.990 --     9 C    1.453     1 C    1.375    18 H    0.966
                            10 C    0.108
     8   6 C    3.985 --    10 C    1.437     9 C    1.432    23 H    0.971
                             1 C    0.101
     9   6 C    3.991 --     7 C    1.453     8 C    1.432    19 H    0.970
                            11 C    0.107
    10   6 C    3.991 --    11 C    1.447     8 C    1.437    20 H    0.971
                             7 C    0.108
    11   6 C    3.991 --    10 C    1.447     1 C    1.381    21 H    0.964
                             9 C    0.107
    12   1 H    0.995 --     5 C    0.978
    13   1 H    0.997 --     5 C    0.982
    14   1 H    0.996 --     5 C    0.975
    15   7 N    3.006 --     4 C    1.039    24 H    0.960    22 H    0.960
    16   1 H    0.997 --     4 C    0.954
    17   1 H    0.997 --     4 C    0.951
    18   1 H    0.998 --     7 C    0.966
    19   1 H    0.998 --     9 C    0.970
    20   1 H    0.998 --    10 C    0.971
    21   1 H    0.998 --    11 C    0.964
    22   1 H    0.977 --    15 N    0.960
    23   1 H    0.999 --     8 C    0.971
    24   1 H    0.977 --    15 N    0.960
 ---------------------------------------------------------------------------

Topologies differ in total number of bonds
Writing topology from bond orders to xtbtopo.mol

molecular dipole:
                 x           y           z       tot (Debye)
 q only:       -0.907      -0.505      -0.485
   full:       -1.147      -0.489      -0.257       3.236
molecular quadrupole (traceless):
                xx          xy          yy          xz          yz          zz
 q only:       -1.078      -2.425       1.180      -5.197      -3.013      -0.102
  q+dip:       -2.527      -5.302       1.068      -2.936      -1.396       1.459
   full:       -3.427      -4.310       3.346      -2.808      -2.419       0.080

           -------------------------------------------------
          |                Geometry Summary                 |
           -------------------------------------------------

      molecular mass/u    :      164.2047234
   center of mass at/Å    :        0.0625264      -0.0382177       0.2691479
  moments of inertia/u·Å² :        0.2890334E+03   0.8226073E+03   0.1043838E+04
rotational constants/cm⁻¹ :        0.5832416E-01   0.2049293E-01   0.1614966E-01

 * 23 selected distances

     #   Z          #   Z                                           value/Å
     1   6 C        2   7 N                                       1.4121090
     2   7 N        3   6 C                                       1.3768926
     2   7 N        5   6 C                                       1.4582327 (max)
     3   6 C        6   8 O                                       1.2164747
     1   6 C        7   6 C                                       1.3961146
     7   6 C        9   6 C                                       1.3820287
     8   6 C        9   6 C                                       1.3838937
     8   6 C       10   6 C                                       1.3830412
     1   6 C       11   6 C                                       1.3936939
    10   6 C       11   6 C                                       1.3838342
     5   6 C       12   1 H                                       1.0895340
     5   6 C       13   1 H                                       1.0867709
     5   6 C       14   1 H                                       1.0936053
     4   6 C       15   7 N                                       1.4511738
     4   6 C       16   1 H                                       1.0954865
     4   6 C       17   1 H                                       1.0947700
     7   6 C       18   1 H                                       1.0783256
     9   6 C       19   1 H                                       1.0800233
    10   6 C       20   1 H                                       1.0798924
    11   6 C       21   1 H                                       1.0758684
    15   7 N       22   1 H                                       1.0188484 (min)
     8   6 C       23   1 H                                       1.0791107
    15   7 N       24   1 H                                       1.0192249

 * 5 distinct bonds (by element types)

   Z      Z             #   av. dist./Å        max./Å        min./Å
   1 H    6 C          10     1.0853387     1.0954865     1.0758684
   6 C    6 C           6     1.3871010     1.3961146     1.3820287
   1 H    7 N           2     1.0190367     1.0192249     1.0188484
   6 C    7 N           4     1.4246020     1.4582327     1.3768926
   6 C    8 O           1     1.2164747     1.2164747     1.2164747


optimized geometry written to: xtbopt.xyz


           -------------------------------------------------
          | TOTAL ENERGY              -35.283247577874 Eh   |
          | GRADIENT NORM               0.000968621955 Eh/α |
          | HOMO-LUMO GAP               3.589738546563 eV   |
           -------------------------------------------------
########################################################################
[WARNING] Runtime exception occurred
-1- restart_readRestart: Number of electron missmatch in restart file.
########################################################################

------------------------------------------------------------------------
 * finished run on 2023/11/18 at 08:27:50.821     
------------------------------------------------------------------------
 total:
 * wall-time:     0 d,  0 h,  0 min, 22.197 sec
 *  cpu-time:     0 d,  0 h, 15 min,  1.657 sec
 * ratio c/w:    40.622 speedup
 SCF:
 * wall-time:     0 d,  0 h,  0 min,  1.234 sec
 *  cpu-time:     0 d,  0 h,  0 min, 51.923 sec
 * ratio c/w:    42.082 speedup
 ANC optimizer:
 * wall-time:     0 d,  0 h,  0 min, 20.811 sec
 *  cpu-time:     0 d,  0 h, 14 min,  4.196 sec
 * ratio c/w:    40.566 speedup

