      -----------------------------------------------------------      
     |                   =====================                   |     
     |                           x T B                           |     
     |                   =====================                   |     
     |                         S. Grimme                         |     
     |          Mulliken Center for Theoretical Chemistry        |     
     |                    University of Bonn                     |     
      -----------------------------------------------------------      

   * xtb version 6.5.0 (97a52f5) compiled by 'conda@d2599ee0d4f4' on 2022-05-15

   xtb is free software: you can redistribute it and/or modify it under
   the terms of the GNU Lesser General Public License as published by
   the Free Software Foundation, either version 3 of the License, or
   (at your option) any later version.
   
   xtb is distributed in the hope that it will be useful,
   but WITHOUT ANY WARRANTY; without even the implied warranty of
   MERCHANTABILITY or FITNESS FOR A PARTICULAR PURPOSE.  See the
   GNU Lesser General Public License for more details.
   
   Cite this work as:
   * C. Bannwarth, E. Caldeweyher, S. Ehlert, A. Hansen, P. Pracht,
     J. Seibert, S. Spicher, S. Grimme, WIREs Comput. Mol. Sci., 2020, 11,
     e01493. DOI: 10.1002/wcms.1493
   
   for GFN2-xTB:
   * C. Bannwarth, S. Ehlert and S. Grimme., J. Chem. Theory Comput., 2019,
     15, 1652-1671. DOI: 10.1021/acs.jctc.8b01176
   for GFN1-xTB:
   * S. Grimme, C. Bannwarth, P. Shushkov, J. Chem. Theory Comput., 2017,
     13, 1989-2009. DOI: 10.1021/acs.jctc.7b00118
   for GFN0-xTB:
   * P. Pracht, E. Caldeweyher, S. Ehlert, S. Grimme, ChemRxiv, 2019, preprint.
     DOI: 10.26434/chemrxiv.8326202.v1
   for GFN-FF:
   * S. Spicher and S. Grimme, Angew. Chem. Int. Ed., 2020, 59, 15665-15673.
     DOI: 10.1002/anie.202004239
   
   for ALPB and GBSA implicit solvation:
   * S. Ehlert, M. Stahn, S. Spicher, S. Grimme, J. Chem. Theory Comput.,
     2021, 17, 4250-4261. DOI: 10.1021/acs.jctc.1c00471
   
   for DFT-D4:
   * E. Caldeweyher, C. Bannwarth and S. Grimme, J. Chem. Phys., 2017,
     147, 034112. DOI: 10.1063/1.4993215
   * E. Caldeweyher, S. Ehlert, A. Hansen, H. Neugebauer, S. Spicher,
     C. Bannwarth and S. Grimme, J. Chem. Phys., 2019, 150, 154122.
     DOI: 10.1063/1.5090222
   * E. Caldeweyher, J.-M. Mewes, S. Ehlert and S. Grimme, Phys. Chem. Chem. Phys.
     2020, 22, 8499-8512. DOI: 10.1039/D0CP00502A
   
   for sTDA-xTB:
   * S. Grimme and C. Bannwarth, J. Chem. Phys., 2016, 145, 054103.
     DOI: 10.1063/1.4959605
   
   in the mass-spec context:
   * V. Asgeirsson, C. Bauer and S. Grimme, Chem. Sci., 2017, 8, 4879.
     DOI: 10.1039/c7sc00601b
   * J. Koopman and S. Grimme, ACS Omega 2019, 4, 12, 15120-15133.
     DOI: 10.1021/acsomega.9b02011
   
   for metadynamics refer to:
   * S. Grimme, J. Chem. Theory Comput., 2019, 155, 2847-2862
     DOI: 10.1021/acs.jctc.9b00143
   
   for SPH calculations refer to:
   * S. Spicher and S. Grimme, J. Chem. Theory Comput., 2021, 17, 1701-1714
     DOI: 10.1021/acs.jctc.0c01306
   
   with help from (in alphabetical order)
   P. Atkinson, C. Bannwarth, F. Bohle, G. Brandenburg, E. Caldeweyher
   M. Checinski, S. Dohm, S. Ehlert, S. Ehrlich, I. Gerasimov, C. Hölzer
   A. Katbashev, J. Koopman, C. Lavigne, S. Lehtola, F. März, M. Müller,
   F. Musil, H. Neugebauer, J. Pisarek, C. Plett, P. Pracht, F. Pultar,
   J. Seibert, P. Shushkov, S. Spicher, M. Stahn, M. Steiner, T. Strunk,
   J. Stückrath, T. Rose, and J. Unsleber
   
 * started run on 2023/11/18 at 08:28:52.507     

           -------------------------------------------------
          |                Calculation Setup                |
           -------------------------------------------------

          program call               : /home/liuchw/anaconda3/envs/xtbenv/bin/xtb --gfn 2 --chrg 0 --uhf 0 3_25_Index_0_GrowFragment_3-opt-2-3-119_preQMOPTprefit_xyzformat.xyz --opt --input xtb-opt-2-3-119_constr.txt
          hostname                   : node165.bme.utexas.edu
          coordinate file            : 3_25_Index_0_GrowFragment_3-opt-2-3-119_preQMOPTprefit_xyzformat.xyz
          omp threads                :                    64

   ID    Z sym.   atoms
    1    6 C      1, 3-5, 7-11
    2    7 N      2, 15
    3    8 O      6
    4    1 H      12-14, 16-24
constraining angle 1 2 3 4 to  118.9953585°, actual value:  118.9953585°
constraining angle 11 1 2 3 to   53.0453809°, actual value:   53.0453809°
constraining angle 2 3 4 15 to  184.0118403°, actual value: -175.9881597°
constraining angle 1 2 5 13 to   29.9853362°, actual value:   29.9853362°
constraining angle 16 4 15 22 to   71.0210750°, actual value:   71.0210750°
constraining angle 17 4 15 22 to  186.0272919°, actual value: -173.9727081°
constraining angle 16 4 15 24 to  181.9805175°, actual value: -178.0194825°
constraining angle 17 4 15 24 to  296.9867345°, actual value:  -63.0132655°

           -------------------------------------------------
          |                 G F N 2 - x T B                 |
           -------------------------------------------------

        Reference                      10.1021/acs.jctc.8b01176
      * Hamiltonian:
        H0-scaling (s, p, d)           1.850000    2.230000    2.230000
        zeta-weighting                 0.500000
      * Dispersion:
        s8                             2.700000
        a1                             0.520000
        a2                             5.000000
        s9                             5.000000
      * Repulsion:
        kExp                           1.500000    1.000000
        rExp                           1.000000
      * Coulomb:
        alpha                          2.000000
        third order                    shell-resolved
        anisotropic                    true
        a3                             3.000000
        a5                             4.000000
        cn-shift                       1.200000
        cn-exp                         4.000000
        max-rad                        5.000000

q/qsh data taken from xtbrestart
CAMM data taken from xtbrestart

          ...................................................
          :                      SETUP                      :
          :.................................................:
          :  # basis functions                  60          :
          :  # atomic orbitals                  60          :
          :  # shells                           36          :
          :  # electrons                        64          :
          :  max. iterations                   250          :
          :  Hamiltonian                  GFN2-xTB          :
          :  restarted?                       true          :
          :  GBSA solvation                  false          :
          :  PC potential                    false          :
          :  electronic temp.          300.0000000     K    :
          :  accuracy                    1.0000000          :
          :  -> integral cutoff          0.2500000E+02      :
          :  -> integral neglect         0.1000000E-07      :
          :  -> SCF convergence          0.1000000E-05 Eh   :
          :  -> wf. convergence          0.1000000E-03 e    :
          :  Broyden damping             0.4000000          :
          ...................................................

 iter      E             dE          RMSdq      gap      omega  full diag
   1    -35.6862411 -0.356862E+02  0.243E+00    2.40       0.0  T
   2    -35.6933707 -0.712967E-02  0.140E+00    1.95       1.0  T
   3    -35.6887850  0.458575E-02  0.551E-01    1.77       1.0  T
   4    -35.6944872 -0.570223E-02  0.150E-01    1.78       1.0  T
   5    -35.6948954 -0.408190E-03  0.415E-02    1.79       1.0  T
   6    -35.6948952  0.194738E-06  0.224E-02    1.79       1.0  T
   7    -35.6949002 -0.501489E-05  0.664E-03    1.79       3.1  T
   8    -35.6949004 -0.147717E-06  0.327E-03    1.79       6.2  T
   9    -35.6949004 -0.503046E-07  0.165E-03    1.79      12.4  T
  10    -35.6949004 -0.228842E-07  0.424E-04    1.79      48.1  T
  11    -35.6949004 -0.247397E-09  0.174E-04    1.79     117.2  T

   *** convergence criteria satisfied after 11 iterations ***

         #    Occupation            Energy/Eh            Energy/eV
      -------------------------------------------------------------
         1        2.0000           -0.7154509             -19.4684
       ...           ...                  ...                  ...
        26        2.0000           -0.4400955             -11.9756
        27        2.0000           -0.4333299             -11.7915
        28        2.0000           -0.4264161             -11.6034
        29        2.0000           -0.4076785             -11.0935
        30        2.0000           -0.4066628             -11.0659
        31        2.0000           -0.3841316             -10.4528
        32        2.0000           -0.3570814              -9.7167 (HOMO)
        33                         -0.2914180              -7.9299 (LUMO)
        34                         -0.2334123              -6.3515
        35                         -0.2329300              -6.3383
        36                         -0.1116329              -3.0377
        37                         -0.0335671              -0.9134
       ...                                ...                  ...
        60                          0.6012588              16.3611
      -------------------------------------------------------------
                  HL-Gap            0.0656634 Eh            1.7868 eV
             Fermi-level           -0.3242497 Eh           -8.8233 eV

 SCC (total)                   0 d,  0 h,  0 min,  1.514 sec
 SCC setup                      ...        0 min,  0.015 sec (  0.965%)
 Dispersion                     ...        0 min,  0.047 sec (  3.087%)
 classical contributions        ...        0 min,  0.022 sec (  1.427%)
 integral evaluation            ...        0 min,  0.037 sec (  2.470%)
 iterations                     ...        0 min,  1.240 sec ( 81.928%)
 molecular gradient             ...        0 min,  0.153 sec ( 10.094%)
 printout                       ...        0 min,  0.000 sec (  0.014%)

         :::::::::::::::::::::::::::::::::::::::::::::::::::::
         ::                     SUMMARY                     ::
         :::::::::::::::::::::::::::::::::::::::::::::::::::::
         :: total energy             -35.227487228896 Eh    ::
         :: gradient norm              0.127125062869 Eh/a0 ::
         :: HOMO-LUMO gap              1.786793075849 eV    ::
         ::.................................................::
         :: SCC energy               -35.694900448115 Eh    ::
         :: -> isotropic ES            0.042788570755 Eh    ::
         :: -> anisotropic ES          0.004650117248 Eh    ::
         :: -> anisotropic XC          0.022398124236 Eh    ::
         :: -> dispersion             -0.020258641501 Eh    ::
         :: repulsion energy           0.467285117759 Eh    ::
         :: add. restraining           0.000000000000 Eh    ::
         :: total charge               0.000000000000 e     ::
         :::::::::::::::::::::::::::::::::::::::::::::::::::::

      ----------------------------------------------------------- 
     |                   =====================                   |
     |                        A N C O P T                        |
     |                   =====================                   |
     |               Approximate Normal Coordinate               |
     |                Rational Function Optimizer                |
      ----------------------------------------------------------- 

          ...................................................
          :                      SETUP                      :
          :.................................................:
          :   optimization level            normal          :
          :   max. optcycles                   200          :
          :   ANC micro-cycles                  20          :
          :   degrees of freedom                66          :
          :.................................................:
          :   RF solver                   davidson          :
          :   write xtbopt.log                true          :
          :   linear?                        false          :
          :   energy convergence         0.5000000E-05 Eh   :
          :   grad. convergence          0.1000000E-02 Eh/α :
          :   maximium RF displ.         1.0000000          :
          :   Hlow (freq-cutoff)         0.1000000E-01      :
          :   Hmax (freq-cutoff)         5.0000000          :
          :   S6 in model hess.         20.0000000          :
          ...................................................

generating ANC from model Hessian ...
Using Lindh-Hessian (1995)
 Shifting diagonal of input Hessian by    8.2672400046254237E-003
 Lowest  eigenvalues of input Hessian
    0.000000    0.000000    0.000000    0.000000    0.000000    0.000000
    0.010000    0.011453    0.012928    0.016055    0.018587    0.019283
    0.021625    0.024663    0.027401    0.030310    0.037013    0.039696
 Highest eigenvalues
    3.883875    5.989793    7.054788    9.273421   11.405234   13.660516


........................................................................
.............................. CYCLE    1 ..............................
........................................................................
   1    -35.6949004 -0.356949E+02  0.660E-05    1.79       0.0  T
   2    -35.6949004 -0.401599E-10  0.432E-05    1.79     472.4  T
   3    -35.6949004 -0.382343E-10  0.195E-05    1.79    1046.8  T
     SCC iter.                  ...        0 min,  0.339 sec
     gradient                   ...        0 min,  0.144 sec
 * total energy  :   -35.2274872 Eh     change       -0.3035154E-09 Eh
   gradient norm :     0.1271244 Eh/α   predicted     0.0000000E+00 (-100.00%)
   displ. norm   :     0.4199627 α      lambda       -0.2528518E-01
   maximum displ.:     0.2267043 α      in ANC's #14, #13, #31, ...

........................................................................
.............................. CYCLE    2 ..............................
........................................................................
   1    -35.7410730 -0.357411E+02  0.439E-01    2.15       0.0  T
   2    -35.7411555 -0.825019E-04  0.257E-01    2.10       1.0  T
   3    -35.7410009  0.154646E-03  0.100E-01    2.10       1.0  T
   4    -35.7411950 -0.194087E-03  0.120E-02    2.08       1.7  T
   5    -35.7411963 -0.129581E-05  0.596E-03    2.08       3.4  T
   6    -35.7411964 -0.111765E-06  0.292E-03    2.08       7.0  T
   7    -35.7411965 -0.876395E-07  0.705E-04    2.08      29.0  T
   8    -35.7411965 -0.207449E-08  0.334E-04    2.08      61.0  T
     SCC iter.                  ...        0 min,  0.938 sec
     gradient                   ...        0 min,  0.145 sec
 * total energy  :   -35.2445205 Eh     change       -0.1703330E-01 Eh
   gradient norm :     0.0704444 Eh/α   predicted    -0.1487237E-01 ( -12.69%)
   displ. norm   :     0.3798441 α      lambda       -0.1019333E-01
   maximum displ.:     0.1793165 α      in ANC's #14, #13, #12, ...

........................................................................
.............................. CYCLE    3 ..............................
........................................................................
   1    -35.7664029 -0.357664E+02  0.319E-01    2.34       0.0  T
   2    -35.7664339 -0.309445E-04  0.190E-01    2.29       1.0  T
   3    -35.7663726  0.612392E-04  0.558E-02    2.29       1.0  T
   4    -35.7664466 -0.739447E-04  0.745E-03    2.28       2.7  T
   5    -35.7664468 -0.224515E-06  0.378E-03    2.28       5.4  T
   6    -35.7664469 -0.716593E-07  0.175E-03    2.28      11.7  T
   7    -35.7664469 -0.264471E-07  0.552E-04    2.28      37.0  T
   8    -35.7664469 -0.160070E-08  0.197E-04    2.28     103.7  T
     SCC iter.                  ...        0 min,  0.968 sec
     gradient                   ...        0 min,  0.136 sec
 * total energy  :   -35.2512782 Eh     change       -0.6757647E-02 Eh
   gradient norm :     0.0724422 Eh/α   predicted    -0.5832028E-02 ( -13.70%)
   displ. norm   :     0.3327629 α      lambda       -0.5617202E-02
   maximum displ.:     0.1383615 α      in ANC's #13, #12, #3, ...

........................................................................
.............................. CYCLE    4 ..............................
........................................................................
   1    -35.7778900 -0.357779E+02  0.237E-01    2.57       0.0  T
   2    -35.7779424 -0.524280E-04  0.139E-01    2.50       1.0  T
   3    -35.7779327  0.973697E-05  0.314E-02    2.49       1.0  T
   4    -35.7779464 -0.137395E-04  0.894E-03    2.49       2.3  T
   5    -35.7779478 -0.137538E-05  0.328E-03    2.49       6.2  T
   6    -35.7779479 -0.120361E-06  0.136E-03    2.49      15.0  T
   7    -35.7779479 -0.685811E-08  0.561E-04    2.49      36.4  T
   8    -35.7779479 -0.334109E-08  0.195E-04    2.49     104.7  T
     SCC iter.                  ...        0 min,  0.997 sec
     gradient                   ...        0 min,  0.211 sec
 * total energy  :   -35.2547246 Eh     change       -0.3446469E-02 Eh
   gradient norm :     0.0710327 Eh/α   predicted    -0.3121568E-02 (  -9.43%)
   displ. norm   :     0.3417281 α      lambda       -0.3896180E-02
   maximum displ.:     0.2143373 α      in ANC's #13, #3, #11, ...

........................................................................
.............................. CYCLE    5 ..............................
........................................................................
   1    -35.7740605 -0.357741E+02  0.281E-01    2.54       0.0  T
   2    -35.7740689 -0.839938E-05  0.167E-01    2.55       1.0  T
   3    -35.7740608  0.805222E-05  0.225E-02    2.54       1.0  T
   4    -35.7740720 -0.111795E-04  0.572E-03    2.55       3.6  T
   5    -35.7740721 -0.108951E-06  0.216E-03    2.55       9.5  T
   6    -35.7740722 -0.291299E-07  0.933E-04    2.55      21.9  T
   7    -35.7740722 -0.561610E-08  0.377E-04    2.55      54.1  T
     SCC iter.                  ...        0 min,  0.823 sec
     gradient                   ...        0 min,  0.155 sec
 * total energy  :   -35.2572010 Eh     change       -0.2476351E-02 Eh
   gradient norm :     0.0535919 Eh/α   predicted    -0.2175585E-02 ( -12.15%)
   displ. norm   :     0.3040638 α      lambda       -0.2774911E-02
   maximum displ.:     0.1544137 α      in ANC's #3, #13, #8, ...

........................................................................
.............................. CYCLE    6 ..............................
........................................................................
   1    -35.7744191 -0.357744E+02  0.208E-01    2.72       0.0  T
   2    -35.7744650 -0.458904E-04  0.122E-01    2.67       1.0  T
   3    -35.7744497  0.152385E-04  0.384E-02    2.67       1.0  T
   4    -35.7744698 -0.200828E-04  0.102E-02    2.67       2.0  T
   5    -35.7744716 -0.174643E-05  0.295E-03    2.67       6.9  T
   6    -35.7744716 -0.503213E-07  0.130E-03    2.67      15.7  T
   7    -35.7744716 -0.569824E-08  0.626E-04    2.67      32.6  T
   8    -35.7744716 -0.249354E-08  0.245E-04    2.67      83.3  T
     SCC iter.                  ...        0 min,  0.958 sec
     gradient                   ...        0 min,  0.163 sec
 * total energy  :   -35.2587930 Eh     change       -0.1591979E-02 Eh
   gradient norm :     0.0558032 Eh/α   predicted    -0.1515923E-02 (  -4.78%)
   displ. norm   :     0.4001495 α      lambda       -0.2390599E-02
   maximum displ.:     0.2629721 α      in ANC's #13, #3, #8, ...

........................................................................
.............................. CYCLE    7 ..............................
........................................................................
   1    -35.7640936 -0.357641E+02  0.326E-01    2.44       0.0  T
   2    -35.7642859 -0.192305E-03  0.196E-01    2.58       1.0  T
   3    -35.7642694  0.164715E-04  0.572E-02    2.58       1.0  T
   4    -35.7642954 -0.259888E-04  0.144E-02    2.60       1.4  T
   5    -35.7642995 -0.404367E-05  0.500E-03    2.59       4.1  T
   6    -35.7642996 -0.187727E-06  0.210E-03    2.59       9.7  T
   7    -35.7642997 -0.107720E-07  0.973E-04    2.59      21.0  T
   8    -35.7642997 -0.635737E-08  0.454E-04    2.59      44.9  T
     SCC iter.                  ...        0 min,  1.053 sec
     gradient                   ...        0 min,  0.180 sec
 * total energy  :   -35.2591232 Eh     change       -0.3302035E-03 Eh
   gradient norm :     0.0542475 Eh/α   predicted    -0.1386707E-02 ( 319.96%)
   displ. norm   :     0.1308662 α      lambda       -0.2530302E-02
   maximum displ.:     0.0571157 α      in ANC's #1, #13, #14, ...

........................................................................
.............................. CYCLE    8 ..............................
........................................................................
   1    -35.7791134 -0.357791E+02  0.125E-01    2.91       0.0  T
   2    -35.7793052 -0.191821E-03  0.778E-02    2.79       1.0  T
   3    -35.7793148 -0.966060E-05  0.452E-02    2.78       1.0  T
   4    -35.7793147  0.163851E-06  0.136E-02    2.77       1.5  T
   5    -35.7793165 -0.186046E-05  0.441E-03    2.77       4.6  T
   6    -35.7793169 -0.333662E-06  0.158E-03    2.77      12.9  T
   7    -35.7793169 -0.116053E-07  0.752E-04    2.77      27.2  T
   8    -35.7793169 -0.461591E-08  0.390E-04    2.77      52.4  T
     SCC iter.                  ...        0 min,  1.032 sec
     gradient                   ...        0 min,  0.175 sec
 * total energy  :   -35.2595894 Eh     change       -0.4662038E-03 Eh
   gradient norm :     0.1057626 Eh/α   predicted    -0.1286819E-02 ( 176.02%)
   displ. norm   :     0.0879797 α      lambda       -0.1794850E-02
   maximum displ.:     0.0542709 α      in ANC's #1, #5, #2, ...

........................................................................
.............................. CYCLE    9 ..............................
........................................................................
   1    -35.7801087 -0.357801E+02  0.645E-02    2.69       0.0  T
   2    -35.7801331 -0.243867E-04  0.390E-02    2.73       1.0  T
   3    -35.7801334 -0.328892E-06  0.182E-02    2.74       1.1  T
   4    -35.7801337 -0.274834E-06  0.690E-03    2.74       3.0  T
   5    -35.7801347 -0.958192E-06  0.156E-03    2.74      13.1  T
   6    -35.7801347 -0.305585E-07  0.562E-04    2.74      36.3  T
   7    -35.7801347 -0.133671E-08  0.258E-04    2.74      79.1  T
     SCC iter.                  ...        0 min,  0.842 sec
     gradient                   ...        0 min,  0.162 sec
 * total energy  :   -35.2602418 Eh     change       -0.6523820E-03 Eh
   gradient norm :     0.0488239 Eh/α   predicted    -0.9043837E-03 (  38.63%)
   displ. norm   :     0.1229464 α      lambda       -0.5681482E-03
   maximum displ.:     0.0681919 α      in ANC's #13, #1, #6, ...

........................................................................
.............................. CYCLE   10 ..............................
........................................................................
   1    -35.7779713 -0.357780E+02  0.943E-02    2.69       0.0  T
   2    -35.7779879 -0.165549E-04  0.567E-02    2.73       1.0  T
   3    -35.7779863  0.157062E-05  0.160E-02    2.73       1.3  T
   4    -35.7779882 -0.188437E-05  0.515E-03    2.73       4.0  T
   5    -35.7779889 -0.736980E-06  0.136E-03    2.73      15.1  T
   6    -35.7779890 -0.240359E-07  0.647E-04    2.73      31.6  T
   7    -35.7779890 -0.185701E-08  0.278E-04    2.73      73.5  T
     SCC iter.                  ...        0 min,  0.768 sec
     gradient                   ...        0 min,  0.150 sec
 * total energy  :   -35.2605338 Eh     change       -0.2919928E-03 Eh
   gradient norm :     0.0246312 Eh/α   predicted    -0.2883751E-03 (  -1.24%)
   displ. norm   :     0.1183251 α      lambda       -0.2714607E-03
   maximum displ.:     0.0822627 α      in ANC's #1, #13, #12, ...

........................................................................
.............................. CYCLE   11 ..............................
........................................................................
   1    -35.7779169 -0.357779E+02  0.765E-02    2.73       0.0  T
   2    -35.7779216 -0.469428E-05  0.452E-02    2.75       1.0  T
   3    -35.7779201  0.148024E-05  0.984E-03    2.75       2.1  T
   4    -35.7779217 -0.159173E-05  0.365E-03    2.75       5.6  T
   5    -35.7779221 -0.376949E-06  0.890E-04    2.75      22.9  T
   6    -35.7779221 -0.134123E-08  0.400E-04    2.75      51.0  T
     SCC iter.                  ...        0 min,  0.716 sec
     gradient                   ...        0 min,  0.160 sec
 * total energy  :   -35.2606989 Eh     change       -0.1651300E-03 Eh
   gradient norm :     0.0220007 Eh/α   predicted    -0.1376419E-03 ( -16.65%)
   displ. norm   :     0.1821579 α      lambda       -0.3413274E-03
   maximum displ.:     0.1360496 α      in ANC's #1, #12, #3, ...

........................................................................
.............................. CYCLE   12 ..............................
........................................................................
   1    -35.7805000 -0.357805E+02  0.101E-01    2.78       0.0  T
   2    -35.7805069 -0.680285E-05  0.591E-02    2.80       1.0  T
   3    -35.7805017  0.515632E-05  0.174E-02    2.80       1.2  T
   4    -35.7805080 -0.635528E-05  0.374E-03    2.80       5.5  T
   5    -35.7805083 -0.280683E-06  0.135E-03    2.80      15.2  T
   6    -35.7805083 -0.326905E-08  0.715E-04    2.80      28.6  T
   7    -35.7805083 -0.378355E-08  0.175E-04    2.80     116.8  T
     SCC iter.                  ...        0 min,  0.876 sec
     gradient                   ...        0 min,  0.189 sec
 * total energy  :   -35.2609681 Eh     change       -0.2692426E-03 Eh
   gradient norm :     0.0199420 Eh/α   predicted    -0.1763454E-03 ( -34.50%)
   displ. norm   :     0.4572806 α      lambda       -0.6777275E-03
   maximum displ.:     0.2978181 α      in ANC's #1, #3, #2, ...

........................................................................
.............................. CYCLE   13 ..............................
........................................................................
   1    -35.7809165 -0.357809E+02  0.254E-01    2.79       0.0  T
   2    -35.7810514 -0.134946E-03  0.146E-01    2.88       1.0  T
   3    -35.7810325  0.189068E-04  0.534E-02    2.88       1.0  T
   4    -35.7810564 -0.238695E-04  0.179E-02    2.89       1.1  T
   5    -35.7810647 -0.828005E-05  0.380E-03    2.89       5.4  T
   6    -35.7810647 -0.326840E-07  0.177E-03    2.88      11.5  T
   7    -35.7810647 -0.129142E-07  0.626E-04    2.88      32.6  T
   8    -35.7810647 -0.268741E-08  0.252E-04    2.88      81.1  T
     SCC iter.                  ...        0 min,  1.014 sec
     gradient                   ...        0 min,  0.156 sec
 * total energy  :   -35.2615815 Eh     change       -0.6134090E-03 Eh
   gradient norm :     0.0155894 Eh/α   predicted    -0.4097292E-03 ( -33.20%)
   displ. norm   :     0.8278760 α      lambda       -0.1395520E-02
   maximum displ.:     0.4799674 α      in ANC's #3, #1, #2, ...

........................................................................
.............................. CYCLE   14 ..............................
........................................................................
   1    -35.7731368 -0.357731E+02  0.445E-01    2.85       0.0  T
   2    -35.7738467 -0.709933E-03  0.247E-01    3.03       1.0  T
   3    -35.7738399  0.683885E-05  0.116E-01    3.00       1.0  T
   4    -35.7738941 -0.542602E-04  0.370E-02    3.02       1.0  T
   5    -35.7739279 -0.338168E-04  0.794E-03    3.02       2.6  T
   6    -35.7739281 -0.201448E-06  0.374E-03    3.02       5.5  T
   7    -35.7739282 -0.684908E-07  0.131E-03    3.02      15.5  T
   8    -35.7739282 -0.128674E-07  0.463E-04    3.02      44.1  T
   9    -35.7739282 -0.721073E-09  0.216E-04    3.02      94.4  T
     SCC iter.                  ...        0 min,  1.138 sec
     gradient                   ...        0 min,  0.194 sec
 * total energy  :   -35.2624689 Eh     change       -0.8873376E-03 Eh
   gradient norm :     0.0664933 Eh/α   predicted    -0.1175998E-02 (  32.53%)
   displ. norm   :     0.3161657 α      lambda       -0.1549535E-02
   maximum displ.:     0.2644592 α      in ANC's #3, #4, #2, ...

........................................................................
.............................. CYCLE   15 ..............................
........................................................................
   1    -35.7795758 -0.357796E+02  0.123E-01    3.17       0.0  T
   2    -35.7796137 -0.378453E-04  0.734E-02    3.13       1.0  T
   3    -35.7796106  0.303826E-05  0.294E-02    3.14       1.0  T
   4    -35.7796185 -0.789882E-05  0.746E-03    3.13       2.7  T
   5    -35.7796192 -0.686571E-06  0.328E-03    3.13       6.2  T
   6    -35.7796193 -0.813789E-07  0.137E-03    3.13      14.9  T
   7    -35.7796193 -0.716678E-08  0.512E-04    3.13      39.9  T
   8    -35.7796193 -0.160999E-08  0.191E-04    3.13     106.6  T
     SCC iter.                  ...        0 min,  1.035 sec
     gradient                   ...        0 min,  0.210 sec
 * total energy  :   -35.2633652 Eh     change       -0.8963237E-03 Eh
   gradient norm :     0.0942337 Eh/α   predicted    -0.8522147E-03 (  -4.92%)
   displ. norm   :     0.3543886 α      lambda       -0.2760987E-02
   maximum displ.:     0.2753893 α      in ANC's #3, #4, #1, ...

........................................................................
.............................. CYCLE   16 ..............................
........................................................................
   1    -35.7874489 -0.357874E+02  0.152E-01    3.16       0.0  T
   2    -35.7874941 -0.451984E-04  0.817E-02    3.20       1.0  T
   3    -35.7874910  0.310987E-05  0.335E-02    3.19       1.0  T
   4    -35.7874974 -0.638083E-05  0.994E-03    3.20       2.1  T
   5    -35.7874993 -0.193502E-05  0.299E-03    3.20       6.8  T
   6    -35.7874993 -0.966850E-08  0.862E-04    3.20      23.7  T
   7    -35.7874993 -0.715339E-08  0.259E-04    3.20      78.8  T
     SCC iter.                  ...        0 min,  0.872 sec
     gradient                   ...        0 min,  0.189 sec
 * total energy  :   -35.2654964 Eh     change       -0.2131164E-02 Eh
   gradient norm :     0.0513523 Eh/α   predicted    -0.1553872E-02 ( -27.09%)
   displ. norm   :     0.7260873 α      lambda       -0.3632701E-02
   maximum displ.:     0.5713682 α      in ANC's #3, #4, #2, ...

........................................................................
.............................. CYCLE   17 ..............................
........................................................................
   1    -35.7826458 -0.357826E+02  0.323E-01    3.18       0.0  T
   2    -35.7830485 -0.402677E-03  0.171E-01    3.28       1.0  T
   3    -35.7830577 -0.920874E-05  0.865E-02    3.26       1.0  T
   4    -35.7830836 -0.259155E-04  0.280E-02    3.27       1.0  T
   5    -35.7831007 -0.170985E-04  0.660E-03    3.28       3.1  T
   6    -35.7831008 -0.832051E-07  0.277E-03    3.27       7.4  T
   7    -35.7831008 -0.424339E-07  0.844E-04    3.27      24.2  T
   8    -35.7831008 -0.537740E-08  0.342E-04    3.27      59.6  T
     SCC iter.                  ...        0 min,  0.903 sec
     gradient                   ...        0 min,  0.169 sec
 * total energy  :   -35.2682624 Eh     change       -0.2766004E-02 Eh
   gradient norm :     0.0506952 Eh/α   predicted    -0.2773940E-02 (   0.29%)
   displ. norm   :     0.5619952 α      lambda       -0.5162692E-02
   maximum displ.:     0.3058978 α      in ANC's #1, #3, #4, ...

........................................................................
.............................. CYCLE   18 ..............................
........................................................................
   1    -35.7885549 -0.357886E+02  0.277E-01    3.30       0.0  T
   2    -35.7886625 -0.107648E-03  0.158E-01    3.31       1.0  T
   3    -35.7886502  0.123656E-04  0.511E-02    3.31       1.0  T
   4    -35.7886696 -0.194084E-04  0.171E-02    3.31       1.2  T
   5    -35.7886746 -0.502374E-05  0.520E-03    3.31       3.9  T
   6    -35.7886746 -0.318918E-08  0.198E-03    3.31      10.3  T
   7    -35.7886747 -0.393853E-07  0.514E-04    3.31      39.7  T
   8    -35.7886747 -0.287670E-08  0.216E-04    3.31      94.3  T
     SCC iter.                  ...        0 min,  1.067 sec
     gradient                   ...        0 min,  0.198 sec
 * total energy  :   -35.2687311 Eh     change       -0.4687301E-03 Eh
   gradient norm :     0.1855928 Eh/α   predicted    -0.3396638E-02 ( 624.65%)
   displ. norm   :     0.4462597 α      lambda       -0.6298790E-02
   maximum displ.:     0.3607292 α      in ANC's #3, #4, #2, ...

........................................................................
.............................. CYCLE   19 ..............................
........................................................................
   1    -35.7839350 -0.357839E+02  0.181E-01    3.36       0.0  T
   2    -35.7839729 -0.379799E-04  0.103E-01    3.38       1.0  T
   3    -35.7839493  0.236614E-04  0.465E-02    3.38       1.0  T
   4    -35.7839850 -0.357357E-04  0.983E-03    3.38       2.1  T
   5    -35.7839862 -0.115616E-05  0.370E-03    3.38       5.5  T
   6    -35.7839862  0.808448E-09  0.114E-03    3.38      17.9  T
   7    -35.7839862 -0.160276E-07  0.346E-04    3.38      59.0  T
   8    -35.7839862 -0.409621E-09  0.143E-04    3.38     142.9  T
     SCC iter.                  ...        0 min,  1.076 sec
     gradient                   ...        0 min,  0.204 sec
 * total energy  :   -35.2725919 Eh     change       -0.3860774E-02 Eh
   gradient norm :     0.0432565 Eh/α   predicted    -0.3776591E-02 (  -2.18%)
   displ. norm   :     0.4139304 α      lambda       -0.2537088E-02
   maximum displ.:     0.2785261 α      in ANC's #3, #1, #4, ...

........................................................................
.............................. CYCLE   20 ..............................
........................................................................
   1    -35.7877403 -0.357877E+02  0.144E-01    3.39       0.0  T
   2    -35.7877864 -0.460668E-04  0.837E-02    3.41       1.0  T
   3    -35.7877789  0.751207E-05  0.405E-02    3.41       1.0  T
   4    -35.7877959 -0.169634E-04  0.108E-02    3.41       1.9  T
   5    -35.7877979 -0.208390E-05  0.221E-03    3.41       9.3  T
   6    -35.7877979 -0.465881E-08  0.108E-03    3.41      18.9  T
   7    -35.7877980 -0.908618E-08  0.214E-04    3.41      95.4  T
   8    -35.7877980 -0.204658E-09  0.105E-04    3.41     194.5  T
     SCC iter.                  ...        0 min,  1.012 sec
     gradient                   ...        0 min,  0.162 sec
 * total energy  :   -35.2745111 Eh     change       -0.1919240E-02 Eh
   gradient norm :     0.0335083 Eh/α   predicted    -0.1485899E-02 ( -22.58%)
   displ. norm   :     0.5169695 α      lambda       -0.2552447E-02
   maximum displ.:     0.2905948 α      in ANC's #3, #1, #2, ...
 * RMSD in coord.:     0.7404542 α      energy gain  -0.4702388E-01 Eh

generating ANC from model Hessian ...
Using Lindh-Hessian (1995)
 Shifting diagonal of input Hessian by    7.8728093897975863E-003
 Lowest  eigenvalues of input Hessian
    0.000000    0.000000    0.000000    0.000000    0.000000    0.000000
    0.010000    0.011850    0.013644    0.016899    0.018548    0.021418
    0.023974    0.027482    0.031438    0.035335    0.038642    0.044581
 Highest eigenvalues
    4.366641    4.551250    7.175787    9.478364   11.774772   15.313798


........................................................................
.............................. CYCLE   21 ..............................
........................................................................
   1    -35.7932136 -0.357932E+02  0.173E-01    3.45       0.0  T
   2    -35.7932408 -0.271905E-04  0.998E-02    3.44       1.0  T
   3    -35.7932279  0.128519E-04  0.359E-02    3.45       1.0  T
   4    -35.7932461 -0.181396E-04  0.811E-03    3.44       2.5  T
   5    -35.7932470 -0.900752E-06  0.279E-03    3.44       7.3  T
   6    -35.7932470 -0.933023E-08  0.124E-03    3.44      16.4  T
   7    -35.7932470 -0.156397E-07  0.250E-04    3.44      81.7  T
   8    -35.7932470 -0.132353E-09  0.113E-04    3.44     181.3  T
     SCC iter.                  ...        0 min,  1.018 sec
     gradient                   ...        0 min,  0.172 sec
 * total energy  :   -35.2762733 Eh     change       -0.1762217E-02 Eh
   gradient norm :     0.0298338 Eh/α   predicted     0.0000000E+00 (-100.00%)
   displ. norm   :     0.1915064 α      lambda       -0.1116164E-02
   maximum displ.:     0.1042874 α      in ANC's #3, #1, #2, ...

........................................................................
.............................. CYCLE   22 ..............................
........................................................................
   1    -35.7972965 -0.357973E+02  0.899E-02    3.45       0.0  T
   2    -35.7973007 -0.423668E-05  0.518E-02    3.44       1.0  T
   3    -35.7972988  0.194350E-05  0.119E-02    3.44       1.7  T
   4    -35.7973014 -0.261358E-05  0.296E-03    3.44       6.9  T
   5    -35.7973015 -0.131333E-06  0.123E-03    3.44      16.7  T
   6    -35.7973015 -0.251603E-08  0.504E-04    3.44      40.5  T
   7    -35.7973015 -0.226702E-08  0.132E-04    3.44     154.9  T
     SCC iter.                  ...        0 min,  0.834 sec
     gradient                   ...        0 min,  0.158 sec
 * total energy  :   -35.2770598 Eh     change       -0.7864849E-03 Eh
   gradient norm :     0.0228892 Eh/α   predicted    -0.5787036E-03 ( -26.42%)
   displ. norm   :     0.3431592 α      lambda       -0.1026769E-02
   maximum displ.:     0.1849089 α      in ANC's #3, #2, #1, ...

........................................................................
.............................. CYCLE   23 ..............................
........................................................................
   1    -35.7998377 -0.357998E+02  0.140E-01    3.45       0.0  T
   2    -35.7998464 -0.868119E-05  0.810E-02    3.44       1.0  T
   3    -35.7998415  0.485136E-05  0.181E-02    3.44       1.1  T
   4    -35.7998479 -0.639687E-05  0.411E-03    3.44       5.0  T
   5    -35.7998481 -0.228276E-06  0.164E-03    3.44      12.4  T
   6    -35.7998481 -0.726963E-08  0.687E-04    3.44      29.7  T
   7    -35.7998481 -0.322071E-08  0.187E-04    3.44     109.1  T
     SCC iter.                  ...        0 min,  0.784 sec
     gradient                   ...        0 min,  0.152 sec
 * total energy  :   -35.2776670 Eh     change       -0.6071561E-03 Eh
   gradient norm :     0.0325345 Eh/α   predicted    -0.5738587E-03 (  -5.48%)
   displ. norm   :     0.3195204 α      lambda       -0.6021562E-03
   maximum displ.:     0.1720591 α      in ANC's #2, #3, #1, ...

........................................................................
.............................. CYCLE   24 ..............................
........................................................................
   1    -35.7979231 -0.357979E+02  0.118E-01    3.45       0.0  T
   2    -35.7979274 -0.431380E-05  0.685E-02    3.44       1.0  T
   3    -35.7979254  0.204681E-05  0.130E-02    3.44       1.6  T
   4    -35.7979283 -0.297524E-05  0.339E-03    3.44       6.0  T
   5    -35.7979284 -0.857727E-07  0.132E-03    3.44      15.4  T
   6    -35.7979284 -0.197606E-08  0.461E-04    3.44      44.3  T
   7    -35.7979284 -0.221441E-08  0.135E-04    3.44     151.3  T
     SCC iter.                  ...        0 min,  0.769 sec
     gradient                   ...        0 min,  0.148 sec
 * total energy  :   -35.2779284 Eh     change       -0.2614015E-03 Eh
   gradient norm :     0.0444585 Eh/α   predicted    -0.3318277E-03 (  26.94%)
   displ. norm   :     0.1642015 α      lambda       -0.3665897E-03
   maximum displ.:     0.0965808 α      in ANC's #2, #1, #4, ...

........................................................................
.............................. CYCLE   25 ..............................
........................................................................
   1    -35.7971415 -0.357971E+02  0.566E-02    3.45       0.0  T
   2    -35.7971423 -0.840689E-06  0.330E-02    3.45       1.0  T
   3    -35.7971418  0.467302E-06  0.624E-03    3.45       3.3  T
   4    -35.7971425 -0.675794E-06  0.168E-03    3.44      12.1  T
   5    -35.7971425 -0.196007E-07  0.707E-04    3.45      28.9  T
   6    -35.7971425 -0.984357E-09  0.241E-04    3.45      84.8  T
     SCC iter.                  ...        0 min,  0.632 sec
     gradient                   ...        0 min,  0.151 sec
 * total energy  :   -35.2780570 Eh     change       -0.1286156E-03 Eh
   gradient norm :     0.0246814 Eh/α   predicted    -0.1882654E-03 (  46.38%)
   displ. norm   :     0.0510587 α      lambda       -0.1226282E-03
   maximum displ.:     0.0395373 α      in ANC's #3, #8, #5, ...

........................................................................
.............................. CYCLE   26 ..............................
........................................................................
   1    -35.7987286 -0.357987E+02  0.233E-02    3.44       0.0  T
   2    -35.7987295 -0.952252E-06  0.133E-02    3.44       1.5  T
   3    -35.7987293  0.199601E-06  0.536E-03    3.44       3.8  T
   4    -35.7987297 -0.328380E-06  0.147E-03    3.44      13.9  T
   5    -35.7987297 -0.456086E-07  0.452E-04    3.44      45.2  T
   6    -35.7987297 -0.373781E-09  0.213E-04    3.44      95.9  T
     SCC iter.                  ...        0 min,  0.701 sec
     gradient                   ...        0 min,  0.204 sec
 * total energy  :   -35.2781316 Eh     change       -0.7463266E-04 Eh
   gradient norm :     0.0061445 Eh/α   predicted    -0.6147688E-04 ( -17.63%)
   displ. norm   :     0.0671477 α      lambda       -0.4020388E-04
   maximum displ.:     0.0403730 α      in ANC's #2, #1, #4, ...

........................................................................
.............................. CYCLE   27 ..............................
........................................................................
   1    -35.7988372 -0.357988E+02  0.270E-02    3.44       0.0  T
   2    -35.7988377 -0.507996E-06  0.156E-02    3.44       1.3  T
   3    -35.7988374  0.271678E-06  0.460E-03    3.44       4.4  T
   4    -35.7988377 -0.350278E-06  0.116E-03    3.44      17.6  T
   5    -35.7988378 -0.254588E-07  0.361E-04    3.44      56.6  T
   6    -35.7988378 -0.996465E-10  0.147E-04    3.44     138.5  T
     SCC iter.                  ...        0 min,  0.766 sec
     gradient                   ...        0 min,  0.168 sec
 * total energy  :   -35.2781578 Eh     change       -0.2618325E-04 Eh
   gradient norm :     0.0050807 Eh/α   predicted    -0.2020969E-04 ( -22.81%)
   displ. norm   :     0.0596618 α      lambda       -0.1958819E-04
   maximum displ.:     0.0406254 α      in ANC's #1, #2, #4, ...

........................................................................
.............................. CYCLE   28 ..............................
........................................................................
   1    -35.7989079 -0.357989E+02  0.241E-02    3.43       0.0  T
   2    -35.7989081 -0.185734E-06  0.140E-02    3.43       1.5  T
   3    -35.7989079  0.104179E-06  0.275E-03    3.43       7.4  T
   4    -35.7989081 -0.137717E-06  0.718E-04    3.43      28.4  T
   5    -35.7989081 -0.752640E-08  0.280E-04    3.43      73.0  T
     SCC iter.                  ...        0 min,  0.607 sec
     gradient                   ...        0 min,  0.176 sec
 * total energy  :   -35.2781685 Eh     change       -0.1067234E-04 Eh
   gradient norm :     0.0055967 Eh/α   predicted    -0.9830359E-05 (  -7.89%)
   displ. norm   :     0.0312447 α      lambda       -0.8293317E-05
   maximum displ.:     0.0247129 α      in ANC's #1, #2, #3, ...

........................................................................
.............................. CYCLE   29 ..............................
........................................................................
   1    -35.7988524 -0.357989E+02  0.129E-02    3.43       0.0  T
   2    -35.7988524 -0.139003E-07  0.757E-03    3.43       2.7  T
   3    -35.7988524  0.106160E-07  0.844E-04    3.43      24.2  T
   4    -35.7988524 -0.161453E-07  0.215E-04    3.43      94.8  T
     SCC iter.                  ...        0 min,  0.557 sec
     gradient                   ...        0 min,  0.174 sec
 * total energy  :   -35.2781727 Eh     change       -0.4189907E-05 Eh
   gradient norm :     0.0026576 Eh/α   predicted    -0.4152656E-05 (  -0.89%)
   displ. norm   :     0.0110144 α      lambda       -0.2507173E-05
   maximum displ.:     0.0103509 α      in ANC's #1, #8, #4, ...

........................................................................
.............................. CYCLE   30 ..............................
........................................................................
   1    -35.7987889 -0.357988E+02  0.529E-03    3.43       0.0  T
   2    -35.7987890 -0.346322E-07  0.306E-03    3.43       6.7  T
   3    -35.7987890  0.804771E-08  0.974E-04    3.43      21.0  T
   4    -35.7987890 -0.100918E-07  0.280E-04    3.43      73.0  T
     SCC iter.                  ...        0 min,  0.508 sec
     gradient                   ...        0 min,  0.194 sec
 * total energy  :   -35.2781745 Eh     change       -0.1805379E-05 Eh
   gradient norm :     0.0008155 Eh/α   predicted    -0.1267765E-05 ( -29.78%)
   displ. norm   :     0.0182451 α      lambda       -0.1445605E-05
   maximum displ.:     0.0141337 α      in ANC's #1, #2, #4, ...

   *** GEOMETRY OPTIMIZATION CONVERGED AFTER 30 ITERATIONS ***

------------------------------------------------------------------------
 total energy gain   :        -0.0506872 Eh      -31.8067 kcal/mol
 total RMSD          :         0.8818061 a0        0.4666 Å
 total power (kW/mol):        -4.4359776 (step)   -3.8534 (real)
------------------------------------------------------------------------

 ANCopt (total)                0 d,  0 h,  0 min, 34.535 sec
 optimizer setup                ...        0 min,  0.000 sec (  0.001%)
 model hessian                  ...        0 min,  0.026 sec (  0.074%)
 ANC generation                 ...        0 min,  0.163 sec (  0.472%)
 coordinate transformation      ...        0 min,  0.001 sec (  0.003%)
 single point calculation       ...        0 min, 33.817 sec ( 97.920%)
 optimization log               ...        0 min,  0.007 sec (  0.020%)
 hessian update                 ...        0 min,  0.406 sec (  1.174%)
 rational function              ...        0 min,  0.112 sec (  0.323%)

================
 final structure:
================
24
 xtb: 6.5.0 (97a52f5)
C           -0.73842321677186       -0.44886358616634       -0.09916393875137
N            0.45974533737407       -0.90297849937511        0.49989982404694
C            1.64162487762482       -0.25804564928365        0.16451268760037
C            2.40838072858701        0.41883271700241        1.30105443817087
C            0.36113452858265       -1.53128825441219        1.80401028390359
O            1.98724628503348       -0.09107603622212       -0.98386536610722
C           -1.83616331453710       -0.08421327999590        0.67548114503832
C           -3.06860035005424        0.48200303594815       -1.30986219177004
C           -2.99206076925033        0.37198249407157        0.06706159019678
C           -1.97363518472982        0.13094636393743       -2.08126816492306
C           -0.81878614060644       -0.33931816101756       -1.48550454496190
H            1.14792562520902       -2.27950957899204        1.89551051195539
H           -0.60808662171033       -2.01951680810683        1.88008057156859
H            0.44662085014308       -0.82414013519057        2.63630806398590
N            3.57850638149722        1.14561162963285        0.85053287486449
H            2.73452291011822       -0.29176011988052        2.06779651625363
H            1.72755338291311        1.12153983895646        1.79484372377491
H           -1.79589851926562       -0.13410352864844        1.75264854085379
H           -3.83578149429236        0.65226230636116        0.68095184422284
H           -2.02015188784179        0.21335700311996       -3.15691918339336
H            0.03326372286823       -0.61150774670492       -2.08593902363942
H            4.16031167857585        0.51120889060494        0.30595573637430
H           -3.97329500226153        0.84119669218411       -1.77658308008695
H            3.28403718279482        1.83438144217648        0.15965116082367

 Bond Distances (Angstroems)
 ---------------------------
C1-N2=1.4145         C1-C7=1.3921         C1-C11=1.3930        N2-C1=1.4145         N2-C3=1.3875         N2-C5=1.4509         
C3-N2=1.3875         C3-C4=1.5290         C3-O6=1.2108         C4-C3=1.5290         C4-N15=1.4493        C4-H16=1.0951        
C4-H17=1.0960        C5-N2=1.4509         C5-H12=1.0896        C5-H13=1.0879        C5-H14=1.0955        O6-C3=1.2108         
C7-C1=1.3921         C7-C9=1.3836         C7-H18=1.0791        C8-C9=1.3834         C8-C10=1.3847        C8-H23=1.0795        
C9-C7=1.3836         C9-C8=1.3834         C9-H19=1.0804        C10-C8=1.3847        C10-C11=1.3819       C10-H20=1.0798       
C11-C1=1.3930        C11-C10=1.3819       C11-H21=1.0773       H12-C5=1.0896        H13-C5=1.0879        H14-C5=1.0955        
N15-C4=1.4493        N15-H22=1.0186       N15-H24=1.0190       H16-C4=1.0951        H17-C4=1.0960        H18-C7=1.0791        
H19-C9=1.0804        H20-C10=1.0798       H21-C11=1.0773       H22-N15=1.0186       H23-C8=1.0795        H24-N15=1.0190       
 C  H  Rav=1.0860 sigma=0.0072  Rmin=1.0773  Rmax=1.0960    10
 C  C  Rav=1.4068 sigma=0.0500  Rmin=1.3819  Rmax=1.5290     7
 N  H  Rav=1.0188 sigma=0.0002  Rmin=1.0186  Rmax=1.0190     2
 N  C  Rav=1.4255 sigma=0.0263  Rmin=1.3875  Rmax=1.4509     4
 O  C  Rav=1.2108 sigma=0.0000  Rmin=1.2108  Rmax=1.2108     1

 selected bond angles (degree)
 --------------------
C7-C1-N2=121.09                C11-C1-N2=119.71               C11-C1-C7=119.19               C3-N2-C1=118.03                
C5-N2-C1=117.52                C5-N2-C3=118.45                C4-C3-N2=116.95                O6-C3-N2=122.44                
O6-C3-C4=120.05                N15-C4-C3=113.32               H16-C4-C3=112.49               H16-C4-N15=107.61              
H17-C4-C3=107.89               H17-C4-N15=108.67              H17-C4-H16=106.59              H12-C5-N2=108.89               
H13-C5-N2=108.53               H13-C5-H12=109.22              H14-C5-N2=113.46               H14-C5-H12=108.85              
H14-C5-H13=107.82              C9-C7-C1=120.03                H18-C7-C1=120.93               H18-C7-C9=119.04               
C10-C8-C9=119.38               H23-C8-C9=120.21               H23-C8-C10=120.41              C8-C9-C7=120.67                
H19-C9-C7=119.21               H19-C9-C8=120.11               C11-C10-C8=120.46              H20-C10-C8=120.10              
H20-C10-C11=119.43             

 selected dihedral angles (degree)
 ---------------------------------
C3-N2-C1-C7=234.24            C3-N2-C1-C11= 53.05           C5-N2-C1-C7= 26.62            C5-N2-C1-C11=205.43           
C4-C3-N2-C1=119.25            C4-C3-N2-C5=327.13            O6-C3-N2-C1=307.77            O6-C3-N2-C5=155.65            
N15-C4-C3-N2=184.04           N15-C4-C3-O6=355.74           H16-C4-C3-N2= 61.69           H16-C4-C3-O6=233.39           
H17-C4-C3-N2=304.40           H17-C4-C3-O6=116.10           H12-C5-N2-C1=148.85           H12-C5-N2-C3=301.11           
H13-C5-N2-C1= 30.05           H13-C5-N2-C3=182.32           H14-C5-N2-C1=270.23           H14-C5-N2-C3= 62.49           
C9-C7-C1-N2=179.24            C9-C7-C1-C11=  0.43           H18-C7-C1-N2=  0.37           H18-C7-C1-C11=181.56          
C8-C9-C7-C1=359.46            C8-C9-C7-H18=178.34           H19-C9-C7-C1=180.05           H19-C9-C7-H18=358.94          
C7-C9-C8-C10=359.97           C7-C9-C8-H23=180.16           H19-C9-C8-C10=179.37          H19-C9-C8-H23=359.55          
C11-C10-C8-C9=  0.71          C11-C10-C8-H23=180.53         H20-C10-C8-C9=180.07          H20-C10-C8-H23=359.89         
           -------------------------------------------------
          |                Final Singlepoint                |
           -------------------------------------------------

          ...................................................
          :                      SETUP                      :
          :.................................................:
          :  # basis functions                  60          :
          :  # atomic orbitals                  60          :
          :  # shells                           36          :
          :  # electrons                        64          :
          :  max. iterations                   250          :
          :  Hamiltonian                  GFN2-xTB          :
          :  restarted?                      false          :
          :  GBSA solvation                  false          :
          :  PC potential                    false          :
          :  electronic temp.          300.0000000     K    :
          :  accuracy                    1.0000000          :
          :  -> integral cutoff          0.2500000E+02      :
          :  -> integral neglect         0.1000000E-07      :
          :  -> SCF convergence          0.1000000E-05 Eh   :
          :  -> wf. convergence          0.1000000E-03 e    :
          :  Broyden damping             0.4000000          :
          ...................................................

 iter      E             dE          RMSdq      gap      omega  full diag
   1    -35.7987890 -0.357988E+02  0.647E-05    3.43       0.0  T
   2    -35.7987890 -0.113261E-10  0.368E-05    3.43     554.3  T
   3    -35.7987890 -0.149214E-12  0.215E-05    3.43     948.5  T

   *** convergence criteria satisfied after 3 iterations ***

         #    Occupation            Energy/Eh            Energy/eV
      -------------------------------------------------------------
         1        2.0000           -0.7131459             -19.4057
       ...           ...                  ...                  ...
        26        2.0000           -0.4393641             -11.9557
        27        2.0000           -0.4342332             -11.8161
        28        2.0000           -0.4249922             -11.5646
        29        2.0000           -0.4108488             -11.1798
        30        2.0000           -0.4063197             -11.0565
        31        2.0000           -0.3879027             -10.5554
        32        2.0000           -0.3675091             -10.0004 (HOMO)
        33                         -0.2414209              -6.5694 (LUMO)
        34                         -0.2247265              -6.1151
        35                         -0.2197625              -5.9800
        36                         -0.0941210              -2.5612
        37                         -0.0052163              -0.1419
       ...                                ...                  ...
        60                          0.6651018              18.0983
      -------------------------------------------------------------
                  HL-Gap            0.1260882 Eh            3.4310 eV
             Fermi-level           -0.3044650 Eh           -8.2849 eV

 SCC (total)                   0 d,  0 h,  0 min,  0.628 sec
 SCC setup                      ...        0 min,  0.010 sec (  1.637%)
 Dispersion                     ...        0 min,  0.026 sec (  4.159%)
 classical contributions        ...        0 min,  0.011 sec (  1.695%)
 integral evaluation            ...        0 min,  0.053 sec (  8.466%)
 iterations                     ...        0 min,  0.363 sec ( 57.785%)
 molecular gradient             ...        0 min,  0.165 sec ( 26.199%)
 printout                       ...        0 min,  0.000 sec (  0.025%)

         :::::::::::::::::::::::::::::::::::::::::::::::::::::
         ::                     SUMMARY                     ::
         :::::::::::::::::::::::::::::::::::::::::::::::::::::
         :: total energy             -35.278174469580 Eh    ::
         :: gradient norm              0.000816663597 Eh/a0 ::
         :: HOMO-LUMO gap              3.431033257456 eV    ::
         ::.................................................::
         :: SCC energy               -35.798788982931 Eh    ::
         :: -> isotropic ES            0.043160684145 Eh    ::
         :: -> anisotropic ES          0.004006720882 Eh    ::
         :: -> anisotropic XC          0.020561806971 Eh    ::
         :: -> dispersion             -0.020876726021 Eh    ::
         :: repulsion energy           0.520432545906 Eh    ::
         :: add. restraining           0.000061837447 Eh    ::
         :: total charge              -0.000000000000 e     ::
         :::::::::::::::::::::::::::::::::::::::::::::::::::::

           -------------------------------------------------
          |                Property Printout                |
           -------------------------------------------------

    * Orbital Energies and Occupations

         #    Occupation            Energy/Eh            Energy/eV
      -------------------------------------------------------------
         1        2.0000           -0.7131459             -19.4057
       ...           ...                  ...                  ...
        20        2.0000           -0.4947288             -13.4623
        21        2.0000           -0.4915763             -13.3765
        22        2.0000           -0.4814114             -13.0999
        23        2.0000           -0.4794110             -13.0454
        24        2.0000           -0.4767668             -12.9735
        25        2.0000           -0.4556001             -12.3975
        26        2.0000           -0.4393641             -11.9557
        27        2.0000           -0.4342332             -11.8161
        28        2.0000           -0.4249922             -11.5646
        29        2.0000           -0.4108488             -11.1798
        30        2.0000           -0.4063197             -11.0565
        31        2.0000           -0.3879027             -10.5554
        32        2.0000           -0.3675091             -10.0004 (HOMO)
        33                         -0.2414209              -6.5694 (LUMO)
        34                         -0.2247265              -6.1151
        35                         -0.2197625              -5.9800
        36                         -0.0941210              -2.5612
        37                         -0.0052163              -0.1419
        38                          0.0610777               1.6620
        39                          0.0792121               2.1555
        40                          0.1076626               2.9296
        41                          0.1180216               3.2115
        42                          0.1364451               3.7129
        43                          0.1390214               3.7830
       ...                                ...                  ...
        60                          0.6651018              18.0983
      -------------------------------------------------------------
                  HL-Gap            0.1260882 Eh            3.4310 eV
             Fermi-level           -0.3044650 Eh           -8.2849 eV

     #   Z          covCN         q      C6AA      α(0)
     1   6 C        2.925     0.069    26.450     8.434
     2   7 N        2.736    -0.120    23.606     7.216
     3   6 C        2.767     0.263    22.562     7.779
     4   6 C        3.732    -0.008    20.808     6.511
     5   6 C        3.699    -0.045    21.553     6.640
     6   8 O        0.858    -0.398    21.631     6.236
     7   6 C        2.921    -0.054    29.337     8.882
     8   6 C        2.918    -0.037    28.916     8.818
     9   6 C        2.921    -0.030    28.757     8.794
    10   6 C        2.921    -0.028    28.694     8.784
    11   6 C        2.923    -0.045    29.125     8.850
    12   1 H        0.925     0.053     2.278     2.360
    13   1 H        0.925     0.066     2.135     2.285
    14   1 H        0.924     0.039     2.458     2.452
    15   7 N        2.628    -0.334    28.595     7.942
    16   1 H        0.924     0.054     2.276     2.359
    17   1 H        0.924     0.052     2.294     2.368
    18   1 H        0.926     0.031     2.577     2.510
    19   1 H        0.926     0.032     2.561     2.503
    20   1 H        0.926     0.037     2.492     2.469
    21   1 H        0.926     0.065     2.136     2.285
    22   1 H        0.860     0.153     1.379     1.840
    23   1 H        0.926     0.032     2.555     2.500
    24   1 H        0.860     0.152     1.390     1.847

 Mol. C6AA /au·bohr⁶  :       6159.469543
 Mol. C8AA /au·bohr⁸  :     142393.700818
 Mol. α(0) /au        :        122.664339


Wiberg/Mayer (AO) data.
largest (>0.10) Wiberg bond orders for each atom

 ---------------------------------------------------------------------------
     #   Z sym  total        # sym  WBO       # sym  WBO       # sym  WBO
 ---------------------------------------------------------------------------
     1   6 C    3.960 --     7 C    1.380    11 C    1.379     2 N    1.025
     2   7 N    3.432 --     3 C    1.127     1 C    1.025     5 C    1.001
                             6 O    0.140
     3   6 C    3.937 --     6 O    1.754     2 N    1.127     4 C    0.952
     4   6 C    3.990 --    15 N    1.041    16 H    0.957     3 C    0.952
                            17 H    0.950
     5   6 C    3.975 --     2 N    1.001    12 H    0.980    13 H    0.979
                            14 H    0.974
     6   8 O    2.051 --     3 C    1.754     2 N    0.140
     7   6 C    3.988 --     9 C    1.445     1 C    1.380    18 H    0.967
                            10 C    0.107
     8   6 C    3.989 --     9 C    1.437    10 C    1.432    23 H    0.971
     9   6 C    3.992 --     7 C    1.445     8 C    1.437    19 H    0.971
                            11 C    0.109
    10   6 C    3.992 --    11 C    1.453     8 C    1.432    20 H    0.971
                             7 C    0.107
    11   6 C    3.988 --    10 C    1.453     1 C    1.379    21 H    0.963
                             9 C    0.109
    12   1 H    0.996 --     5 C    0.980
    13   1 H    0.996 --     5 C    0.979
    14   1 H    0.998 --     5 C    0.974
    15   7 N    3.010 --     4 C    1.041    24 H    0.961    22 H    0.959
    16   1 H    0.997 --     4 C    0.957
    17   1 H    0.997 --     4 C    0.950
    18   1 H    0.999 --     7 C    0.967
    19   1 H    0.998 --     9 C    0.971
    20   1 H    0.998 --    10 C    0.971
    21   1 H    0.996 --    11 C    0.963
    22   1 H    0.976 --    15 N    0.959
    23   1 H    0.999 --     8 C    0.971
    24   1 H    0.977 --    15 N    0.961
 ---------------------------------------------------------------------------

Topologies differ in total number of bonds
Writing topology from bond orders to xtbtopo.mol

molecular dipole:
                 x           y           z       tot (Debye)
 q only:       -0.502      -0.301       0.937
   full:       -0.702      -0.374       0.937       3.123
molecular quadrupole (traceless):
                xx          xy          yy          xz          yz          zz
 q only:       -2.425      -1.161       0.581       3.299      -3.162       1.844
  q+dip:       -3.412      -5.618      -0.725       0.579      -4.275       4.137
   full:       -4.053      -4.672       1.593       0.576      -4.697       2.460

           -------------------------------------------------
          |                Geometry Summary                 |
           -------------------------------------------------

      molecular mass/u    :      164.2047234
   center of mass at/Å    :        0.0328555      -0.0862471      -0.0133825
  moments of inertia/u·Å² :        0.2646998E+03   0.8781389E+03   0.1001022E+04
rotational constants/cm⁻¹ :        0.6368585E-01   0.1919700E-01   0.1684042E-01

 * 23 selected distances

     #   Z          #   Z                                           value/Å
     1   6 C        2   7 N                                       1.4144631
     2   7 N        3   6 C                                       1.3875383
     2   7 N        5   6 C                                       1.4509313 (max)
     3   6 C        6   8 O                                       1.2108284
     1   6 C        7   6 C                                       1.3921489
     7   6 C        9   6 C                                       1.3836142
     8   6 C        9   6 C                                       1.3834313
     8   6 C       10   6 C                                       1.3846505
     1   6 C       11   6 C                                       1.3929821
    10   6 C       11   6 C                                       1.3819405
     5   6 C       12   1 H                                       1.0896091
     5   6 C       13   1 H                                       1.0879079
     5   6 C       14   1 H                                       1.0954845
     4   6 C       15   7 N                                       1.4492659
     4   6 C       16   1 H                                       1.0950820
     4   6 C       17   1 H                                       1.0959705
     7   6 C       18   1 H                                       1.0790737
     9   6 C       19   1 H                                       1.0804087
    10   6 C       20   1 H                                       1.0798058
    11   6 C       21   1 H                                       1.0773105
    15   7 N       22   1 H                                       1.0185915 (min)
     8   6 C       23   1 H                                       1.0795004
    15   7 N       24   1 H                                       1.0190357

 * 5 distinct bonds (by element types)

   Z      Z             #   av. dist./Å        max./Å        min./Å
   1 H    6 C          10     1.0860153     1.0959705     1.0773105
   6 C    6 C           6     1.3864613     1.3929821     1.3819405
   1 H    7 N           2     1.0188136     1.0190357     1.0185915
   6 C    7 N           4     1.4255497     1.4509313     1.3875383
   6 C    8 O           1     1.2108284     1.2108284     1.2108284


optimized geometry written to: xtbopt.xyz


           -------------------------------------------------
          | TOTAL ENERGY              -35.278174469580 Eh   |
          | GRADIENT NORM               0.000816663597 Eh/α |
          | HOMO-LUMO GAP               3.431033257456 eV   |
           -------------------------------------------------
########################################################################
[WARNING] Runtime exception occurred
-1- restart_readRestart: Number of electron missmatch in restart file.
########################################################################

------------------------------------------------------------------------
 * finished run on 2023/11/18 at 08:29:29.347     
------------------------------------------------------------------------
 total:
 * wall-time:     0 d,  0 h,  0 min, 36.839 sec
 *  cpu-time:     0 d,  0 h, 23 min, 24.920 sec
 * ratio c/w:    38.136 speedup
 SCF:
 * wall-time:     0 d,  0 h,  0 min,  1.514 sec
 *  cpu-time:     0 d,  0 h,  1 min,  2.533 sec
 * ratio c/w:    41.308 speedup
 ANC optimizer:
 * wall-time:     0 d,  0 h,  0 min, 35.167 sec
 *  cpu-time:     0 d,  0 h, 22 min, 17.125 sec
 * ratio c/w:    38.022 speedup

