24
 energy: -35.287058598631 gnorm: 0.000455348940 xtb: 6.5.0 (97a52f5)
C           -0.78115878841632       -0.34710866864364       -0.09319019093805
N            0.43269957463867       -0.67842741389391        0.56063865086804
C            1.58438259475271       -0.02582939490862        0.20296851944098
C            2.61161973807806        0.20781184036025        1.31180779638963
C            0.33204499793379       -1.35243669552267        1.83821034715818
O            1.76994691559160        0.43753322366366       -0.90361376658673
C           -1.90355234064049        0.01103156906136        0.64764020728852
C           -3.15236379309709        0.33347832195224       -1.37865644826688
C           -3.08080630499066        0.34519307056532        0.00354377174692
C           -2.03579386699280       -0.01955871978294       -2.11637695298439
C           -0.85682017773241       -0.36699286473926       -1.48208448192427
H            1.18067816863059       -2.02443368445762        1.96343533941721
H           -0.57949220082186       -1.94765014699702        1.84210017620535
H            0.30771588833508       -0.66210692320864        2.68731164950378
N            3.75468996357582        0.98352780456427        0.87064887296481
H            2.98759620014970       -0.73535100165922        1.72256040292984
H            2.13077135280999        0.74112061096331        2.13880343796456
H           -1.86130050572025        0.04615512569745        1.72559894622722
H           -3.94477363631778        0.62368845416850        0.58911715992814
H           -2.08248267634908       -0.03413270773037       -3.19501923289276
H            0.00978642011356       -0.64388461107155       -2.05809062399814
H            4.14036700441996        0.53852477991483        0.03918635403499
H           -4.07309882737585        0.59870006988401       -1.87611043974596
H            3.41933527942463        1.87814896181966        0.51676550526963
