
    -----------------------------------------------------------------------
          Psi4: An Open-Source Ab Initio Electronic Structure Package
                               Psi4 1.6 release

                         Git: Rev {HEAD} 77475b5 


    D. G. A. Smith, L. A. Burns, A. C. Simmonett, R. M. Parrish,
    M. C. Schieber, R. Galvelis, P. Kraus, H. Kruse, R. Di Remigio,
    A. Alenaizan, A. M. James, S. Lehtola, J. P. Misiewicz, M. Scheurer,
    R. A. Shaw, J. B. Schriber, Y. Xie, Z. L. Glick, D. A. Sirianni,
    J. S. O'Brien, J. M. Waldrop, A. Kumar, E. G. Hohenstein,
    B. P. Pritchard, B. R. Brooks, H. F. Schaefer III, A. Yu. Sokolov,
    K. Patkowski, A. E. DePrince III, U. Bozkaya, R. A. King,
    F. A. Evangelista, J. M. Turney, T. D. Crawford, C. D. Sherrill,
    J. Chem. Phys. 152(18) 184108 (2020). https://doi.org/10.1063/5.0006002

                            Additional Code Authors
    E. T. Seidl, C. L. Janssen, E. F. Valeev, M. L. Leininger,
    J. F. Gonthier, R. M. Richard, H. R. McAlexander, M. Saitow, X. Wang,
    P. Verma, M. H. Lechner, and A. Jiang

             Previous Authors, Complete List of Code Contributors,
                       and Citations for Specific Modules
    https://github.com/psi4/psi4/blob/master/codemeta.json
    https://github.com/psi4/psi4/graphs/contributors
    http://psicode.org/psi4manual/master/introduction.html#citing-psifour

    -----------------------------------------------------------------------


    Psi4 started on: Saturday, 18 November 2023 08:36AM

    Process ID: 1130755
    Host:       node165.bme.utexas.edu
    PSIDATADIR: /home/liuchw/anaconda3/envs/poltype2022/share/psi4
    Memory:     500.0 MiB
    Threads:    1
    
  ==> Input File <==

--------------------------------------------------------------------------
molecule { 
0 1
 C   -0.641898   -0.302755    0.285195
 N    0.462493   -0.854211    1.003193
 C    1.729921   -0.441164    0.646873
 C    1.960373    1.050594    0.865755
 C    0.289212   -2.280200    1.267388
 O    2.654321   -1.197150    0.432816
 C   -1.717620    0.227944    0.984152
 C   -2.842346    0.669166   -1.088966
 C   -2.815032    0.712777    0.295121
 C   -1.770678    0.136656   -1.785713
 C   -0.673677   -0.357141   -1.102450
 H    1.270349   -2.747213    1.321952
 H   -0.303258   -2.766789    0.490166
 H   -0.226417   -2.396274    2.222201
 N    3.253016    1.528267    0.414051
 H    1.890619    1.227969    1.945116
 H    1.171925    1.655526    0.406209
 H   -1.684081    0.258257    2.062270
 H   -3.650709    1.126472    0.839604
 H   -1.790337    0.098845   -2.864715
 H    0.165375   -0.778829   -1.637665
 H    3.961474    0.888956    0.773782
 H   -3.699309    1.048326   -1.624808
 H    3.316277    1.398973   -0.594334
}
memory 20GB
set_num_threads(5)
psi4_io.set_default_path("/scratch/liuchw/Psi4-3_25_Index_0_GrowFragment_3-farH_in17")
set freeze_core True
E, wfn = energy('wb97x-d/6-311+G*',return_wfn=True)
oeprop(wfn,"WIBERG_LOWDIN_INDICES")
clean()
--------------------------------------------------------------------------

  Memory set to  18.626 GiB by Python driver.
  Threads set to 5 by Python driver.

Scratch directory: /scratch/liuchw/Psi4-3_25_Index_0_GrowFragment_3-farH_in17/

*** tstart() called on node165.bme.utexas.edu
*** at Sat Nov 18 08:36:28 2023

   => Loading Basis Set <=

    Name: 6-311+G*
    Role: ORBITAL
    Keyword: BASIS
    atoms 1, 3-5, 7-11 entry C          line   130 file /home/liuchw/anaconda3/envs/poltype2022/share/psi4/basis/6-311pgs.gbs 
    atoms 2, 15        entry N          line   151 file /home/liuchw/anaconda3/envs/poltype2022/share/psi4/basis/6-311pgs.gbs 
    atoms 6            entry O          line   172 file /home/liuchw/anaconda3/envs/poltype2022/share/psi4/basis/6-311pgs.gbs 
    atoms 12-14, 16-24 entry H          line    47 file /home/liuchw/anaconda3/envs/poltype2022/share/psi4/basis/6-311pgs.gbs 

   => WB97X-D: Empirical Dispersion <=

    Chai and Head-Gordon Dispersion Correction
    Chai, J.-D.; Head-Gordon, M. (2010), J. Chem. Phys., 132: 6615-6620

        s6 =       1.000000


         ---------------------------------------------------------
                                   SCF
               by Justin Turney, Rob Parrish, Andy Simmonett
                          and Daniel G. A. Smith
                              RKS Reference
                        5 Threads,  19073 MiB Core
         ---------------------------------------------------------

  ==> Geometry <==

    Molecular point group: c1
    Full point group: C1

    Geometry (in Angstrom), charge = 0, multiplicity = 1:

       Center              X                  Y                   Z               Mass       
    ------------   -----------------  -----------------  -----------------  -----------------
         C           -0.746279355698    -0.194814899778     0.074690065442    12.000000000000
         N            0.358111644302    -0.746270899778     0.792688065442    14.003074004430
         C            1.625539644302    -0.333223899778     0.436368065442    12.000000000000
         C            1.855991644302     1.158534100222     0.655250065442    12.000000000000
         C            0.184830644302    -2.172259899778     1.056883065442    12.000000000000
         O            2.549939644302    -1.089209899778     0.222311065442    15.994914619570
         C           -1.822001355698     0.335884100222     0.773647065442    12.000000000000
         C           -2.946727355698     0.777106100222    -1.299470934558    12.000000000000
         C           -2.919413355698     0.820717100222     0.084616065442    12.000000000000
         C           -1.875059355698     0.244596100222    -1.996217934558    12.000000000000
         C           -0.778058355698    -0.249200899778    -1.312954934558    12.000000000000
         H            1.165967644302    -2.639272899778     1.111447065442     1.007825032230
         H           -0.407639355698    -2.658848899778     0.279661065442     1.007825032230
         H           -0.330798355698    -2.288333899778     2.011696065442     1.007825032230
         N            3.148634644302     1.636207100222     0.203546065442    14.003074004430
         H            1.786237644302     1.335909100222     1.734611065442     1.007825032230
         H            1.067543644302     1.763466100222     0.195704065442     1.007825032230
         H           -1.788462355698     0.366197100222     1.851765065442     1.007825032230
         H           -3.755090355698     1.234412100222     0.629099065442     1.007825032230
         H           -1.894718355698     0.206785100222    -3.075219934558     1.007825032230
         H            0.060993644302    -0.670888899778    -1.848169934558     1.007825032230
         H            3.857092644302     0.996896100222     0.563277065442     1.007825032230
         H           -3.803690355698     1.156266100222    -1.835312934558     1.007825032230
         H            3.211895644302     1.506913100222    -0.804838934558     1.007825032230

  Running in c1 symmetry.

  Rotational constants: A =      0.05479  B =      0.02032  C =      0.01818 [cm^-1]
  Rotational constants: A =   1642.59687  B =    609.07774  C =    544.90516 [MHz]
  Nuclear repulsion =  690.366632549769975

  Charge       = 0
  Multiplicity = 1
  Electrons    = 88
  Nalpha       = 44
  Nbeta        = 44

  ==> Algorithm <==

  SCF Algorithm Type is DF.
  DIIS enabled.
  MOM disabled.
  Fractional occupation disabled.
  Guess Type is SAD.
  Energy threshold   = 1.00e-06
  Density threshold  = 1.00e-06
  Integral threshold = 1.00e-12

  ==> Primary Basis <==

  Basis Set: 6-311+G*
    Blend: 6-311+G*
    Number of shells: 156
    Number of basis functions: 300
    Number of Cartesian functions: 312
    Spherical Harmonics?: true
    Max angular momentum: 2

  ==> DFT Potential <==

   => LibXC <=

    Version 5.1.5
    S. Lehtola, C. Steigemann, M. J. Oliveira, and M. A. Marques, SoftwareX 7, 1 (2018) (10.1016/j.softx.2017.11.002)

   => Composite Functional: WB97X-D <= 

    wB97X-D Hyb-GGA Exchange-Correlation Functional

    J.-D. Chai and M. Head-Gordon, Phys. Chem. Chem. Phys. 10, 6615 (2008) (10.1039/B810189B)

    Deriv               =              1
    GGA                 =           TRUE
    Meta                =          FALSE

    Exchange Hybrid     =           TRUE
    MP2 Hybrid          =          FALSE

   => Exchange-Correlation Functionals <=

    1.0000   wB97X-D range-separated functional

   => Exact (HF) Exchange <=

    0.7780            HF,LR [omega = 0.2000]
    0.2220               HF 

   => LibXC Density Thresholds  <==

    XC_HYB_GGA_XC_WB97X_D:  1.00E-14 

   => Molecular Quadrature <=

    Radial Scheme          =       TREUTLER
    Pruning Scheme         =           NONE
    Nuclear Scheme         =       TREUTLER

    Blocking Scheme        =         OCTREE
    BS radius alpha        =              1
    Pruning alpha          =              1
    Radial Points          =             75
    Spherical Points       =            302
    Total Points           =         503134
    Total Blocks           =           3626
    Max Points             =            256
    Max Functions          =            265
    Weights Tolerance      =       1.00E-15

   => Loading Basis Set <=

    Name: (6-311+G* AUX)
    Role: JKFIT
    Keyword: DF_BASIS_SCF
    atoms 1, 3-5, 7-11 entry C          line   200 file /home/liuchw/anaconda3/envs/poltype2022/share/psi4/basis/heavy-aug-cc-pvtz-jkfit.gbs 
    atoms 2, 15        entry N          line   262 file /home/liuchw/anaconda3/envs/poltype2022/share/psi4/basis/heavy-aug-cc-pvtz-jkfit.gbs 
    atoms 6            entry O          line   324 file /home/liuchw/anaconda3/envs/poltype2022/share/psi4/basis/heavy-aug-cc-pvtz-jkfit.gbs 
    atoms 12-14, 16-24 entry H          line   116 file /home/liuchw/anaconda3/envs/poltype2022/share/psi4/basis/heavy-aug-cc-pvtz-jkfit.gbs 

  ==> Integral Setup <==

  DFHelper Memory: AOs need 2.975 GiB; user supplied 11.122 GiB. Using in-core AOs.

  ==> MemDFJK: Density-Fitted J/K Matrices <==

    J tasked:                   Yes
    K tasked:                   Yes
    wK tasked:                  Yes
    Omega:                2.000E-01
    OpenMP threads:               5
    Memory [MiB]:             11388
    Algorithm:                 Core
    Schwarz Cutoff:           1E-12
    Mask sparsity (%):       9.2844
    Fitting Condition:        1E-10

   => Auxiliary Basis Set <=

  Basis Set: (6-311+G* AUX)
    Blend: HEAVY-AUG-CC-PVTZ-JKFIT
    Number of shells: 480
    Number of basis functions: 1608
    Number of Cartesian functions: 1992
    Spherical Harmonics?: true
    Max angular momentum: 4

  Cached 100.0% of DFT collocation blocks in 2.848 [GiB].

  Minimum eigenvalue in the overlap matrix is 1.1675134064E-06.
  Reciprocal condition number of the overlap matrix is 7.9201935872E-08.
    Using symmetric orthogonalization.

  ==> Pre-Iterations <==

  SCF Guess: Superposition of Atomic Densities via on-the-fly atomic UHF (no occupation information).

   -------------------------
    Irrep   Nso     Nmo    
   -------------------------
     A        300     300 
   -------------------------
    Total     300     300
   -------------------------

  ==> Iterations <==

                           Total Energy        Delta E     RMS |[F,P]|

   @DF-RKS iter SAD:  -534.26593611306669   -5.34266e+02   0.00000e+00 
   @DF-RKS iter   1:  -534.25621700643694    9.71911e-03   3.74063e-03 ADIIS/DIIS
   @DF-RKS iter   2:  -534.46702627254308   -2.10809e-01   3.23765e-03 ADIIS/DIIS
   @DF-RKS iter   3:  -534.84009791304732   -3.73072e-01   5.90689e-04 ADIIS/DIIS
   @DF-RKS iter   4:  -534.85035378637747   -1.02559e-02   2.29484e-04 ADIIS/DIIS
   @DF-RKS iter   5:  -534.85209701271560   -1.74323e-03   6.78280e-05 DIIS
   @DF-RKS iter   6:  -534.85226451205347   -1.67499e-04   1.63847e-05 DIIS
   @DF-RKS iter   7:  -534.85227617055443   -1.16585e-05   3.29790e-06 DIIS
   @DF-RKS iter   8:  -534.85227679019624   -6.19642e-07   1.81968e-06 DIIS
   @DF-RKS iter   9:  -534.85227697037817   -1.80182e-07   4.74692e-07 DIIS
  Energy and wave function converged.


  ==> Post-Iterations <==

   Electrons on quadrature grid:
      Ntotal   =   87.9999594193 ; deviation = -4.058e-05 

    Orbital Energies [Eh]
    ---------------------

    Doubly Occupied:                                                      

       1A    -19.231687     2A    -14.464077     3A    -14.409409  
       4A    -10.391191     5A    -10.340730     6A    -10.314451  
       7A    -10.309261     8A    -10.304169     9A    -10.303458  
      10A    -10.303401    11A    -10.301705    12A    -10.301450  
      13A     -1.162741    14A     -1.060910    15A     -0.987929  
      16A     -0.973260    17A     -0.869895    18A     -0.862519  
      19A     -0.832240    20A     -0.766860    21A     -0.730162  
      22A     -0.720655    23A     -0.660992    24A     -0.620105  
      25A     -0.601416    26A     -0.593253    27A     -0.575717  
      28A     -0.566786    29A     -0.548304    30A     -0.537747  
      31A     -0.527642    32A     -0.511501    33A     -0.500592  
      34A     -0.488739    35A     -0.486747    36A     -0.472090  
      37A     -0.454527    38A     -0.449555    39A     -0.440665  
      40A     -0.372492    41A     -0.350844    42A     -0.347646  
      43A     -0.336941    44A     -0.324594  

    Virtual:                                                              

      45A      0.036289    46A      0.037673    47A      0.051003  
      48A      0.065445    49A      0.069308    50A      0.074330  
      51A      0.082272    52A      0.089159    53A      0.091747  
      54A      0.100005    55A      0.106924    56A      0.112843  
      57A      0.116805    58A      0.121316    59A      0.127694  
      60A      0.145568    61A      0.147346    62A      0.149572  
      63A      0.155589    64A      0.161333    65A      0.172477  
      66A      0.176657    67A      0.180680    68A      0.185025  
      69A      0.194644    70A      0.201376    71A      0.208450  
      72A      0.210723    73A      0.212104    74A      0.218405  
      75A      0.221245    76A      0.224309    77A      0.227926  
      78A      0.239134    79A      0.241859    80A      0.246533  
      81A      0.250557    82A      0.252119    83A      0.258059  
      84A      0.265392    85A      0.268377    86A      0.268537  
      87A      0.274976    88A      0.281411    89A      0.284263  
      90A      0.288660    91A      0.295334    92A      0.301583  
      93A      0.306334    94A      0.311202    95A      0.318232  
      96A      0.321431    97A      0.332348    98A      0.334905  
      99A      0.340735   100A      0.352169   101A      0.356401  
     102A      0.366897   103A      0.374618   104A      0.380542  
     105A      0.383948   106A      0.391684   107A      0.401976  
     108A      0.405318   109A      0.408778   110A      0.419670  
     111A      0.428283   112A      0.433315   113A      0.453966  
     114A      0.461173   115A      0.474233   116A      0.487848  
     117A      0.501829   118A      0.531197   119A      0.545304  
     120A      0.564662   121A      0.573029   122A      0.583051  
     123A      0.594077   124A      0.602162   125A      0.607426  
     126A      0.619887   127A      0.627495   128A      0.634775  
     129A      0.649727   130A      0.650079   131A      0.652995  
     132A      0.660206   133A      0.663948   134A      0.688764  
     135A      0.689467   136A      0.705701   137A      0.729521  
     138A      0.741217   139A      0.743815   140A      0.755629  
     141A      0.763817   142A      0.776876   143A      0.779130  
     144A      0.784776   145A      0.798468   146A      0.803470  
     147A      0.809231   148A      0.815594   149A      0.822764  
     150A      0.838031   151A      0.849327   152A      0.851548  
     153A      0.871258   154A      0.889882   155A      0.911000  
     156A      0.917874   157A      0.926717   158A      0.929876  
     159A      0.943395   160A      0.950288   161A      0.970001  
     162A      0.974713   163A      0.994553   164A      0.998450  
     165A      1.012860   166A      1.051759   167A      1.065712  
     168A      1.078938   169A      1.098446   170A      1.115087  
     171A      1.133294   172A      1.155447   173A      1.192330  
     174A      1.214961   175A      1.225079   176A      1.261497  
     177A      1.270955   178A      1.296380   179A      1.314318  
     180A      1.319799   181A      1.331062   182A      1.353033  
     183A      1.388391   184A      1.399361   185A      1.421259  
     186A      1.446877   187A      1.517753   188A      1.560287  
     189A      1.572779   190A      1.577384   191A      1.597491  
     192A      1.618638   193A      1.643454   194A      1.648686  
     195A      1.659478   196A      1.669428   197A      1.720000  
     198A      1.743399   199A      1.774120   200A      1.796300  
     201A      1.815582   202A      1.845068   203A      1.857410  
     204A      1.869446   205A      1.880525   206A      1.894687  
     207A      1.901013   208A      1.920677   209A      1.951733  
     210A      1.971897   211A      2.002658   212A      2.021489  
     213A      2.046100   214A      2.058291   215A      2.077172  
     216A      2.079887   217A      2.138505   218A      2.145917  
     219A      2.155950   220A      2.183191   221A      2.279831  
     222A      2.289742   223A      2.324868   224A      2.369215  
     225A      2.384810   226A      2.395983   227A      2.439942  
     228A      2.473457   229A      2.490184   230A      2.494465  
     231A      2.505872   232A      2.525019   233A      2.587265  
     234A      2.626947   235A      2.667987   236A      2.690565  
     237A      2.697500   238A      2.743406   239A      2.757189  
     240A      2.762693   241A      2.792660   242A      2.853601  
     243A      2.872822   244A      2.891211   245A      2.897083  
     246A      2.923440   247A      2.946613   248A      2.961758  
     249A      2.985506   250A      3.009629   251A      3.020194  
     252A      3.032207   253A      3.049960   254A      3.103213  
     255A      3.183864   256A      3.218973   257A      3.271133  
     258A      3.298549   259A      3.312010   260A      3.382853  
     261A      3.412037   262A      3.417102   263A      3.425152  
     264A      3.433989   265A      3.457257   266A      3.479254  
     267A      3.500578   268A      3.511195   269A      3.592729  
     270A      3.633034   271A      3.662060   272A      3.729694  
     273A      3.752930   274A      3.865307   275A      3.963195  
     276A      4.082387   277A      4.112776   278A      4.122976  
     279A      4.165951   280A      4.182437   281A      4.302190  
     282A      4.693766   283A      4.882863   284A      4.894454  
     285A      5.075063   286A      5.217029   287A      5.340151  
     288A      5.884384   289A     23.479699   290A     23.733856  
     291A     23.788346   292A     23.984811   293A     23.994083  
     294A     24.026430   295A     24.187237   296A     24.199579  
     297A     24.306007   298A     35.575302   299A     35.717783  
     300A     50.157080  

    Final Occupation by Irrep:
              A 
    DOCC [    44 ]

  @DF-RKS Final Energy:  -534.85227697037817

   => Energetics <=

    Nuclear Repulsion Energy =            690.3666325497699745
    One-Electron Energy =               -2093.5709240713990766
    Two-Electron Energy =                 920.5732403131064530
    DFT Exchange-Correlation Energy =     -52.2065082984135032
    Empirical Dispersion Energy =          -0.0147174634420711
    VV10 Nonlocal Energy =                  0.0000000000000000
    Total Energy =                       -534.8522769703781705

Computation Completed


Properties will be evaluated at   0.000000,   0.000000,   0.000000 [a0]

Properties computed using the SCF density matrix


 Multipole Moments:

 ------------------------------------------------------------------------------------
     Multipole            Electronic (a.u.)      Nuclear  (a.u.)        Total (a.u.)
 ------------------------------------------------------------------------------------

 L = 1.  Multiply by 2.5417464519 to convert [e a0] to [Debye]
 Dipole X            :         -0.6072577           -0.7766591           -1.3839168
 Dipole Y            :         -0.4251988            0.2823285           -0.1428703
 Dipole Z            :         -0.9243980            0.7610112           -0.1633869
 Magnitude           :                                                    1.4008330

 ------------------------------------------------------------------------------------

*** tstop() called on node165.bme.utexas.edu at Sat Nov 18 08:36:46 2023
Module time:
	user time   =      79.56 seconds =       1.33 minutes
	system time =       4.35 seconds =       0.07 minutes
	total time  =         18 seconds =       0.30 minutes
Total time:
	user time   =      79.56 seconds =       1.33 minutes
	system time =       4.35 seconds =       0.07 minutes
	total time  =         18 seconds =       0.30 minutes


Properties will be evaluated at   0.000000,   0.000000,   0.000000 [a0]
OEProp: No title given, name of density matrix used for the following properties is 'SCF density'


  Wiberg Bond Indices using Orthogonal Lowdin Orbitals:

  Irrep: 1 Size: 24 x 24

                 1                   2                   3                   4                   5

    1     0.00000000000000     1.11452910313335     0.11507976239944     0.04367387967765     0.11896086898273
    2     1.11452910313335     0.00000000000000     1.30225738451309     0.12797473686957     1.14965598500080
    3     0.11507976239944     1.30225738451309     0.00000000000000     1.02294340766721     0.11394379749491
    4     0.04367387967765     0.12797473686957     1.02294340766721     0.00000000000000     0.02241532290301
    5     0.11896086898273     1.14965598500080     0.11394379749491     0.02241532290301     0.00000000000000
    6     0.03378904594246     0.21898585052908     2.24944597278883     0.15152783537150     0.07680782592666
    7     1.41898647806792     0.12937910201969     0.02323704002338     0.01628487575597     0.03888500296755
    8     0.13861539341264     0.00927212351703     0.00429623896530     0.00198083493799     0.00648231018772
    9     0.13893807763344     0.01665346620052     0.00366629917270     0.00270387633679     0.00472457722867
   10     0.13753523001150     0.01641027950688     0.00542325215009     0.00352906933870     0.00563399669258
   11     1.41027502913118     0.11989190532361     0.04700073128545     0.02244789118579     0.04226146253730
   12     0.00984631937638     0.04359318328912     0.02208906265653     0.00181314163661     0.86747017255466
   13     0.02241643237578     0.04519022632122     0.01223240337144     0.00151818875371     0.87420794375467
   14     0.00919399745491     0.05390051321285     0.01373490849601     0.00073385931374     0.88922294096622
   15     0.00464371663346     0.01772039021554     0.11911689898755     1.33994625854805     0.00411503949841
   16     0.00383209787091     0.01795961599795     0.04895314765949     0.83103571698124     0.00148526721211
   17     0.01309939308878     0.01103869914244     0.04559036058339     0.82887804049542     0.00072437842391
   18     0.05687356773561     0.01852745495255     0.00225146119910     0.00146906768096     0.00520695756851
   19     0.01083838771794     0.00087230987571     0.00030416385617     0.00007351340519     0.00023121786819
   20     0.01073007069572     0.00095686428435     0.00037476388226     0.00009525738251     0.00026780320694
   21     0.05638305185681     0.01686593639270     0.01087624628727     0.00318090121532     0.00535877871121
   22     0.00068806893872     0.00078074171937     0.01139215335148     0.03959044620003     0.00030307079312
   23     0.00303300480058     0.00022574170219     0.00006911303241     0.00002425635953     0.00005770060559
   24     0.00050997562987     0.00074871126839     0.01018547756297     0.03945412895727     0.00026542345139

                 6                   7                   8                   9                  10

    1     0.03378904594246     1.41898647806792     0.13861539341264     0.13893807763344     0.13753523001150
    2     0.21898585052908     0.12937910201969     0.00927212351703     0.01665346620052     0.01641027950688
    3     2.24944597278883     0.02323704002338     0.00429623896530     0.00366629917270     0.00542325215009
    4     0.15152783537150     0.01628487575597     0.00198083493799     0.00270387633679     0.00352906933870
    5     0.07680782592666     0.03888500296755     0.00648231018772     0.00472457722867     0.00563399669258
    6     0.00000000000000     0.00560775370750     0.00140760635844     0.00090141458518     0.00117141647870
    7     0.00560775370750     0.00000000000000     0.14071026880912     1.52191570646707     0.14547803796302
    8     0.00140760635844     0.14071026880912     0.00000000000000     1.51870075910061     1.52009509459102
    9     0.00090141458518     1.52191570646707     1.51870075910061     0.00000000000000     0.13948398209509
   10     0.00117141647870     0.14547803796302     1.52009509459102     0.13948398209509     0.00000000000000
   11     0.01296618285705     0.13071409438784     0.14107154067549     0.14480225202926     1.51884102852260
   12     0.02374274159309     0.00174607824762     0.00058822310476     0.00030138552034     0.00020982406041
   13     0.00165911701895     0.00583342426117     0.00063995658829     0.00063327104473     0.00126575946879
   14     0.00262971820644     0.00444368616391     0.00017956548410     0.00055371634277     0.00040968274350
   15     0.06912298113648     0.00123858791716     0.00017038854982     0.00037121664569     0.00021310119770
   16     0.01598990589493     0.00111715916563     0.00008564120442     0.00011645718193     0.00018950666198
   17     0.01194772499356     0.00526681006634     0.00079016627671     0.00088648413493     0.00105291725302
   18     0.00037859185792     0.81072876265136     0.01087882360335     0.05679256982508     0.00245721081460
   19     0.00008735337730     0.06102659981478     0.05972433154212     0.83162064546683     0.01135594606538
   20     0.00023098443951     0.00246488685761     0.05968667929375     0.01141082616987     0.83106314467181
   21     0.00168964527629     0.00910577335594     0.01049292172113     0.00230996061559     0.05532443679217
   22     0.01318321901787     0.00034739358283     0.00007348212021     0.00009106263798     0.00006606992866
   23     0.00004391696719     0.01134556299633     0.83314841572938     0.05975259781009     0.05984265845714
   24     0.00435052872811     0.00013230096528     0.00002051344982     0.00001284694894     0.00001899612820

                11                  12                  13                  14                  15

    1     1.41027502913118     0.00984631937638     0.02241643237578     0.00919399745491     0.00464371663346
    2     0.11989190532361     0.04359318328912     0.04519022632122     0.05390051321285     0.01772039021554
    3     0.04700073128545     0.02208906265653     0.01223240337144     0.01373490849601     0.11911689898755
    4     0.02244789118579     0.00181314163661     0.00151818875371     0.00073385931374     1.33994625854805
    5     0.04226146253730     0.86747017255466     0.87420794375467     0.88922294096622     0.00411503949841
    6     0.01296618285705     0.02374274159309     0.00165911701895     0.00262971820644     0.06912298113648
    7     0.13071409438784     0.00174607824762     0.00583342426117     0.00444368616391     0.00123858791716
    8     0.14107154067549     0.00058822310476     0.00063995658829     0.00017956548410     0.00017038854982
    9     0.14480225202926     0.00030138552034     0.00063327104473     0.00055371634277     0.00037121664569
   10     1.51884102852260     0.00020982406041     0.00126575946879     0.00040968274350     0.00021310119770
   11     0.00000000000000     0.00163748949039     0.00985353804839     0.00141641941220     0.00182017731138
   12     0.00163748949039     0.00000000000000     0.00929415283936     0.00913248538511     0.00032486196780
   13     0.00985353804839     0.00929415283936     0.00000000000000     0.00736943487188     0.00031326485930
   14     0.00141641941220     0.00913248538511     0.00736943487188     0.00000000000000     0.00014661339121
   15     0.00182017731138     0.00032486196780     0.00031326485930     0.00014661339121     0.00000000000000
   16     0.00055396065794     0.00000969797489     0.00018940535409     0.00026005432612     0.04203227461618
   17     0.00639909484158     0.00009300500255     0.00018445482825     0.00006031156270     0.04079527703910
   18     0.00943823254046     0.00000541154840     0.00003496088273     0.00023324573069     0.00003844294483
   19     0.00248838783882     0.00000540398165     0.00000793553212     0.00001998164207     0.00000952175176
   20     0.06110567096438     0.00000590729477     0.00003676548248     0.00000772724901     0.00001056260254
   21     0.80100323975244     0.00012607067804     0.00041286821943     0.00001607686078     0.00009846964984
   22     0.00029106488237     0.00008108670916     0.00004690241314     0.00002001985862     0.87860265317134
   23     0.01134598832160     0.00001184881556     0.00000724839958     0.00001044160955     0.00000451494673
   24     0.00021604875980     0.00006838470945     0.00001528147298     0.00002837072668     0.88600019351946

                16                  17                  18                  19                  20

    1     0.00383209787091     0.01309939308878     0.05687356773561     0.01083838771794     0.01073007069572
    2     0.01795961599795     0.01103869914244     0.01852745495255     0.00087230987571     0.00095686428435
    3     0.04895314765949     0.04559036058339     0.00225146119910     0.00030416385617     0.00037476388226
    4     0.83103571698124     0.82887804049542     0.00146906768096     0.00007351340519     0.00009525738251
    5     0.00148526721211     0.00072437842391     0.00520695756851     0.00023121786819     0.00026780320694
    6     0.01598990589493     0.01194772499356     0.00037859185792     0.00008735337730     0.00023098443951
    7     0.00111715916563     0.00526681006634     0.81072876265136     0.06102659981478     0.00246488685761
    8     0.00008564120442     0.00079016627671     0.01087882360335     0.05972433154212     0.05968667929375
    9     0.00011645718193     0.00088648413493     0.05679256982508     0.83162064546683     0.01141082616987
   10     0.00018950666198     0.00105291725302     0.00245721081460     0.01135594606538     0.83106314467181
   11     0.00055396065794     0.00639909484158     0.00943823254046     0.00248838783882     0.06110567096438
   12     0.00000969797489     0.00009300500255     0.00000541154840     0.00000540398165     0.00000590729477
   13     0.00018940535409     0.00018445482825     0.00003496088273     0.00000793553212     0.00003676548248
   14     0.00026005432612     0.00006031156270     0.00023324573069     0.00001998164207     0.00000772724901
   15     0.04203227461618     0.04079527703910     0.00003844294483     0.00000952175176     0.00001056260254
   16     0.00000000000000     0.00701634363273     0.00005112648383     0.00000862054228     0.00000458601801
   17     0.00701634363273     0.00000000000000     0.00016205557648     0.00000156624004     0.00000146017993
   18     0.00005112648383     0.00016205557648     0.00000000000000     0.00529224345399     0.00023956120369
   19     0.00000862054228     0.00000156624004     0.00529224345399     0.00000000000000     0.00026059583599
   20     0.00000458601801     0.00000146017993     0.00023956120369     0.00026059583599     0.00000000000000
   21     0.00004863275025     0.00041258602142     0.00039634346988     0.00023854316283     0.00529145248970
   22     0.00354626253532     0.00984907755532     0.00000416147035     0.00000089889551     0.00000054507617
   23     0.00000628410451     0.00000136157556     0.00022604564804     0.00540028812426     0.00539832908701
   24     0.00972012166756     0.00444244059140     0.00000226816200     0.00000214342104     0.00000223531623

                21                  22                  23                  24

    1     0.05638305185681     0.00068806893872     0.00303300480058     0.00050997562987
    2     0.01686593639270     0.00078074171937     0.00022574170219     0.00074871126839
    3     0.01087624628727     0.01139215335148     0.00006911303241     0.01018547756297
    4     0.00318090121532     0.03959044620003     0.00002425635953     0.03945412895727
    5     0.00535877871121     0.00030307079312     0.00005770060559     0.00026542345139
    6     0.00168964527629     0.01318321901787     0.00004391696719     0.00435052872811
    7     0.00910577335594     0.00034739358283     0.01134556299633     0.00013230096528
    8     0.01049292172113     0.00007348212021     0.83314841572938     0.00002051344982
    9     0.00230996061559     0.00009106263798     0.05975259781009     0.00001284694894
   10     0.05532443679217     0.00006606992866     0.05984265845714     0.00001899612820
   11     0.80100323975244     0.00029106488237     0.01134598832160     0.00021604875980
   12     0.00012607067804     0.00008108670916     0.00001184881556     0.00006838470945
   13     0.00041286821943     0.00004690241314     0.00000724839958     0.00001528147298
   14     0.00001607686078     0.00002001985862     0.00001044160955     0.00002837072668
   15     0.00009846964984     0.87860265317134     0.00000451494673     0.88600019351946
   16     0.00004863275025     0.00354626253532     0.00000628410451     0.00972012166756
   17     0.00041258602142     0.00984907755532     0.00000136157556     0.00444244059140
   18     0.00039634346988     0.00000416147035     0.00022604564804     0.00000226816200
   19     0.00023854316283     0.00000089889551     0.00540028812426     0.00000214342104
   20     0.00529145248970     0.00000054507617     0.00539832908701     0.00000223531623
   21     0.00000000000000     0.00000315852565     0.00022099218018     0.00001088550930
   22     0.00000315852565     0.00000000000000     0.00000020367976     0.00781897905947
   23     0.00022099218018     0.00000020367976     0.00000000000000     0.00000253192468
   24     0.00001088550930     0.00781897905947     0.00000253192468     0.00000000000000



  Atomic Valences: 

 #  #
 Irrep: 1
      1:    4.872470952567761
      2:    4.433390324988010
      3:    5.184464047386494
      4:    4.503294506973779
      5:    4.228687844536848
      6:    2.897667333053036
      7:    4.485995386215037
      8:    4.459111279223232
      9:    4.457343451194104
     10:    4.457070641593528
     11:    4.497841430757335
     12:    0.992195938436647
     13:    0.993362936162482
     14:    0.993723771011071
     15:    3.406855407101334
     16:    0.984211886494324
     17:    0.988694009105559
     18:    0.981688567004411
     19:    0.989870599411974
     20:    0.989646679684227
     21:    0.979866971494176
     22:    0.966780722122457
     23:    0.990179046877463
     24:    0.964028787930315


    Psi4 stopped on: Saturday, 18 November 2023 08:36AM
    Psi4 wall time for execution: 0:00:18.38

*** Psi4 exiting successfully. Buy a developer a beer!
