24
 energy: -35.275353505472 gnorm: 0.070913382387 xtb: 6.5.0 (97a52f5)
C           -0.68126322000000       -0.41747717000000        0.23623415000000
N            0.48911947000000       -0.99260676000000        0.89788671000000
C            1.76647789000000       -0.40346814000000        0.89003513000000
C            1.97605303000000        1.02050949000000        0.29131088000000
C            0.30528245000000       -2.36074844000000        1.44009673000000
O            2.78778735000000       -1.06689020000000        1.10166862000000
C           -1.84289683000000       -0.13108147000000        0.99704768000000
C           -2.91849370000000        0.82410854000000       -0.96631629000000
C           -2.94854079000000        0.48009326000000        0.39038261000000
C           -1.77069515000000        0.55604511000000       -1.72171339000000
C           -0.65346406000000       -0.05277671000000       -1.13368482000000
H            1.25614878000000       -2.89525791000000        1.41642888000000
H           -0.42171564000000       -2.92249843000000        0.85251288000000
H           -0.03002344000000       -2.30548004000000        2.47584195000000
N            3.37382586000000        1.46825902000000        0.26882230000000
H            1.38202898000000        1.75042846000000        0.86349123000000
H            1.61259866000000        1.05579496000000       -0.74398347000000
H           -1.87928412000000       -0.37370656000000        2.06110122000000
H           -3.83695226000000        0.69351609000000        0.98752281000000
H           -1.74168838000000        0.81789700000000       -2.78109548000000
H            0.21930670000000       -0.27638904000000       -1.75066298000000
H            3.75032246000000        1.34250001000000        1.21005891000000
H           -3.78332431000000        1.29978531000000       -1.43245249000000
H            3.89937927000000        0.79644663000000       -0.29333876000000
24
 energy: -35.286656067551 gnorm: 0.049291464739 xtb: 6.5.0 (97a52f5)
C           -0.67243433500633       -0.40202365268930        0.23164585479337
N            0.48798908239932       -0.97967003208841        0.85327192070826
C            1.74785580168626       -0.41867176218246        0.84784928638767
C            1.94915899749673        1.00571922035149        0.28765515077171
C            0.31884801527335       -2.32407366099157        1.41896167301070
O            2.73483889330216       -1.05950897332718        1.20529113316186
C           -1.82221755642567       -0.13713843581025        0.98311149817181
C           -2.89849243839967        0.81215672875898       -0.95287368004115
C           -2.92457981627720        0.46280976146086        0.38893010441731
C           -1.76039988154922        0.55376198898815       -1.70115806966137
C           -0.64624991342472       -0.02696907798373       -1.11292704861577
H            1.27074697054730       -2.85442742129920        1.38433691136572
H           -0.43383060778335       -2.87087707063508        0.85152796741396
H           -0.01004439755658       -2.26866341821665        2.45939121532280
N            3.34235420799637        1.43425602449744        0.26615916805864
H            1.36187866155555        1.73953325929267        0.85295269963330
H            1.59725824725528        1.04157699039482       -0.74474249653866
H           -1.85519622389266       -0.38793357531844        2.03575083287857
H           -3.80565432580908        0.67443537008888        0.98345902949015
H           -1.73414090140875        0.81178940438647       -2.75314070209478
H            0.21220174780992       -0.26793353985223       -1.72709704990327
H            3.73227050144772        1.31759060033948        1.20113619374451
H           -3.75798954056638        1.28446463331375       -1.41322864530900
H            3.87581781132956        0.76679964852154       -0.28906793716634
24
 energy: -35.288544475827 gnorm: 0.168758221374 xtb: 6.5.0 (97a52f5)
C           -0.65717605917108       -0.38836880849040        0.22919987380686
N            0.48789745972935       -0.95845292795649        0.83695486855652
C            1.73560043388752       -0.42336991731992        0.84604573611459
C            1.92705381198885        0.98459975010901        0.28163868423290
C            0.31767909123550       -2.28455584739389        1.41037845210455
O            2.69516266337545       -1.05830670089493        1.25515421064468
C           -1.80176161679645       -0.14580859787698        0.97636545741877
C           -2.87960172312196        0.80734390281588       -0.94386020986414
C           -2.90380728828289        0.44862751362836        0.39090540222991
C           -1.74545878320652        0.55861394896412       -1.69308162518363
C           -0.63614769585267       -0.02033563500157       -1.10885700843980
H            1.27338671798866       -2.80457534985405        1.36313544975327
H           -0.44014762718856       -2.82739816525786        0.84676081525795
H            0.00253650334615       -2.22974979435085        2.45620528905378
N            3.31432037433392        1.40790373667188        0.26081838594060
H            1.34698834343100        1.71357071857377        0.85598006581037
H            1.56738351377064        1.03546156740566       -0.74612554978350
H           -1.83158049536087       -0.41218631078438        2.02097201073936
H           -3.78470913416725        0.64390684337803        0.98329824149168
H           -1.72143920721909        0.81718315526715       -2.74026513113388
H            0.22470246685813       -0.25041859213453       -1.71522863561221
H            3.71282630207301        1.27813961590298        1.19137027971351
H           -3.74096818952539        1.26904802847056       -1.40039261759582
H            3.84724913787436        0.74613087612848       -0.30017743525621
24
 energy: -35.287509467537 gnorm: 0.271251300937 xtb: 6.5.0 (97a52f5)
C           -0.64433958714611       -0.38313382327309        0.21981420051392
N            0.48657602441349       -0.93934038711410        0.83860615214971
C            1.73061161824140       -0.42471890159557        0.84302880802488
C            1.91627315794353        0.97368588388942        0.27423056679653
C            0.31227613115534       -2.25890088283132        1.40835390022713
O            2.67186976076507       -1.04547096317014        1.30392118252167
C           -1.78811846980281       -0.15664800033963        0.97153035708530
C           -2.87014253182785        0.80420102160822       -0.93806407301140
C           -2.89308784171168        0.43394004762356        0.39317400115092
C           -1.73704923537698        0.56618092378246       -1.69244053011141
C           -0.62835142258171       -0.01558492365025       -1.11445401324636
H            1.26867890559110       -2.77295142231586        1.35253198090031
H           -0.44767363308780       -2.79960944306648        0.84739280771270
H            0.00909560688184       -2.20141773471041        2.45925365541540
N            3.30291019887615        1.38757073586846        0.25718115138334
H            1.33994397475370        1.69439359676768        0.85874732894616
H            1.54733848367061        1.03653791330189       -0.75017421996385
H           -1.81208147956543       -0.43699299924870        2.01157327039516
H           -3.77456906114501        0.61364291270757        0.98653088794050
H           -1.71528180181269        0.83070233181452       -2.73618285227675
H            0.23618814303496       -0.23552279776545       -1.71695763900512
H            3.70212549108917        1.24256197296869        1.18405717763763
H           -3.73376341797550        1.26222773607061       -1.38903567094232
H            3.83055998561681        0.73165021267803       -0.31542342024388
24
 energy: -35.289631104380 gnorm: 0.041194869429 xtb: 6.5.0 (97a52f5)
C           -0.64764195753849       -0.38279567340176        0.21832682182292
N            0.48895548457417       -0.95431226313623        0.83309871049246
C            1.73818088972617       -0.42453283406970        0.84006130157829
C            1.92736374108417        0.98201556887557        0.27427707632918
C            0.30870087314359       -2.27252916374085        1.41727060961295
O            2.68971159651522       -1.03932316204163        1.30238834289124
C           -1.79480440818829       -0.15739966475542        0.97220594723410
C           -2.87976500440049        0.80410289740752       -0.94184818445551
C           -2.90294143597642        0.43252576250721        0.39188598502004
C           -1.74370519357422        0.57036887508591       -1.69822923299286
C           -0.62947189765317       -0.00918801828420       -1.12094696293601
H            1.26223784009600       -2.79561450174443        1.36465610746525
H           -0.45483666511379       -2.81577908059161        0.86176422290688
H            0.00783465666920       -2.20410960280372        2.46619825110124
N            3.31765796780936        1.39495550190747        0.25815489384481
H            1.34627066794545        1.69994411728818        0.86124873553751
H            1.55870173023162        1.04460101608672       -0.74999853962017
H           -1.81627322985701       -0.43636264301892        2.01487054026622
H           -3.78527452458076        0.61289096285216        0.98739444414810
H           -1.72241234182674        0.83729207570928       -2.74373354639639
H            0.23351850621525       -0.23454102703137       -1.72836688050458
H            3.71081069357650        1.24878537450096        1.18664352532940
H           -3.74389174670937        1.26706676162012       -1.39199916512719
H            3.84106275783150        0.73894173077884       -0.31812799354771
24
 energy: -35.289757608836 gnorm: 0.041947709789 xtb: 6.5.0 (97a52f5)
C           -0.64745682259808       -0.38285365791013        0.21341648154928
N            0.48969684434915       -0.95637058181392        0.82944908605465
C            1.74102268569866       -0.42600989665145        0.83876239057110
C            1.93519799061904        0.98107778997996        0.27537261205244
C            0.30582819969826       -2.27110923045191        1.42496094499003
O            2.68950369583571       -1.03969508233190        1.29440392290986
C           -1.79609795452617       -0.16217707264431        0.96776035226712
C           -2.88349491853296        0.80273567718159       -0.94299817667836
C           -2.90642723608552        0.42601478528488        0.38915912271376
C           -1.74707522446950        0.57388451004070       -1.70023192916653
C           -0.63124353889036       -0.00655569646684       -1.12598956559252
H            1.25578743626521       -2.80179992043723        1.37531618323276
H           -0.46149452290175       -2.81524616304947        0.87591322715051
H            0.00787741017743       -2.19342656837061        2.47356562332797
N            3.32474251803064        1.39926923893855        0.25851283579019
H            1.35689515280851        1.69836972555971        0.86983239938265
H            1.56292865545342        1.05492870848098       -0.74699026584702
H           -1.81463115924406       -0.44354632298979        2.00988593981074
H           -3.78995513416086        0.60087690466639        0.98518349709766
H           -1.72635199281127        0.84641926031543       -2.74478654255364
H            0.23166529329883       -0.22928192676691       -1.73523724995984
H            3.71693024093039        1.24139359614257        1.18673774000594
H           -3.74869508749085        1.26644879464882       -1.39146786207984
H            3.84483646854534        0.74365613864502       -0.32333575702870
24
 energy: -35.289932227968 gnorm: 0.009194690552 xtb: 6.5.0 (97a52f5)
C           -0.64539909435975       -0.38238422732088        0.20755136382327
N            0.49070446687960       -0.95500217923185        0.82374080918726
C            1.74270988919427       -0.42736201814061        0.83584776028793
C            1.93779616776268        0.98030666862576        0.27297569591170
C            0.30316181511801       -2.26436129337247        1.42995134539567
O            2.68649636681843       -1.03730333408970        1.30482141002927
C           -1.79462428981562       -0.16845144223197        0.96302707088598
C           -2.88518890698886        0.80149461596721       -0.94240406303009
C           -2.90713675214166        0.41828711538229        0.38776352491444
C           -1.74874559044342        0.57859178359152       -1.70127165448970
C           -0.63203460616914       -0.00409936470637       -1.13117699759749
H            1.25024618254063       -2.80023931472355        1.38003860243850
H           -0.46859981586325       -2.80912570371266        0.88803412699135
H            0.01110686920883       -2.17775998369897        2.47964170611350
N            3.32860722021507        1.39453965648901        0.25942838152532
H            1.36195735576385        1.69311430793753        0.87504475707012
H            1.56249346775341        1.06164214459274       -0.74755838724973
H           -1.81040075130890       -0.45476638351092        2.00374510503864
H           -3.79159382026253        0.58569991944057        0.98453166736732
H           -1.72926694151355        0.85668508502854       -2.74435569538553
H            0.23200024883676       -0.22036915092191       -1.74106410498112
H            3.72006418590868        1.22863753699092        1.18637354427148
H           -3.75201198798324        1.26445338261033       -1.38845600308536
H            3.84764732084869        0.74477518900558       -0.32903495543249
24
 energy: -35.290042525776 gnorm: 0.008581343935 xtb: 6.5.0 (97a52f5)
C           -0.64202648076655       -0.38127147649222        0.19584943806184
N            0.49278898847274       -0.95521546735059        0.81069346389125
C            1.74676223014372       -0.43133294213835        0.82780439841447
C            1.94509674926781        0.97860519864984        0.26970430685563
C            0.29770675721827       -2.25279665630480        1.44082496120505
O            2.68272917775753       -1.03439022635229        1.32407325188795
C           -1.79323972540793       -0.18148166136704        0.95329984764123
C           -2.89055990609946        0.79800572647748       -0.94214794754129
C           -2.91026155310337        0.40205097131286        0.38434266375772
C           -1.75324578173794        0.58807025738408       -1.70362516605960
C           -0.63327932222230        0.00362055196579       -1.14107631042283
H            1.23850073293019       -2.79999635343509        1.38966318720041
H           -0.48475470401539       -2.79902160437615        0.91566512238476
H            0.01929172504400       -2.14558655283395        2.49280959286207
N            3.33758345712748        1.38819477386859        0.26120980568092
H            1.37473670098771        1.68524102315180        0.88518425299281
H            1.56443782979589        1.07551036944569       -0.74732025526363
H           -1.80472419785556       -0.47717919750388        1.99142781772512
H           -3.79577099993634        0.55666586780143        0.98307571134256
H           -1.73656306766748        0.87667873455051       -2.74403896703384
H            0.23160391122365       -0.20193460052795       -1.75365292168574
H            3.72780119060829        1.20528902648984        1.18534782390546
H           -3.75996126230865        1.26122945558333       -1.38315189184927
H            3.85533655054215        0.74804779200131       -0.33876717595268
24
 energy: -35.290082423620 gnorm: 0.012639579150 xtb: 6.5.0 (97a52f5)
C           -0.63993251345855       -0.37905062634975        0.18934566640704
N            0.49435170031203       -0.95594170935518        0.80234545281791
C            1.74988876906993       -0.43423879938056        0.82241882268636
C            1.95152161429300        0.97781489094243        0.26925127245290
C            0.29381410350119       -2.24417796397526        1.45040328904070
O            2.68012375121822       -1.03704596462375        1.31894245920004
C           -1.79374437154035       -0.19052604590667        0.94639459405446
C           -2.89506222302934        0.79441664012223       -0.94322256272041
C           -2.91361447300199        0.38989432638437        0.38062407804039
C           -1.75627882233798        0.59435794807349       -1.70487294010243
C           -0.63337052486876        0.01145307796428       -1.14600120885599
H            1.22921758976447       -2.80062168349480        1.39818560304942
H           -0.49738040559194       -2.79033953172151        0.93866228719094
H            0.02647925941401       -2.12069177879243        2.50365097306974
N            3.34517870909992        1.38422723604095        0.26343105154426
H            1.38631474851977        1.67978641947534        0.89524562221383
H            1.56628224320837        1.08650275563195       -0.74405576346235
H           -1.80436464843704       -0.49308771531074        1.98239440483899
H           -3.80044637739993        0.53493866385265        0.97976262865431
H           -1.74124912237964        0.88940719991874       -2.74356692123428
H            0.23172594240917       -0.18682168800502       -1.76073150600220
H            3.73531657423247        1.18924797320591        1.18525277328067
H           -3.76636159717723        1.25658927845800       -1.38175317263999
H            3.86157907417823        0.75091010684564       -0.34491189352388
24
 energy: -35.290110888753 gnorm: 0.004498431129 xtb: 6.5.0 (97a52f5)
C           -0.63990896297262       -0.37837147946692        0.18705592489228
N            0.49478439612288       -0.95697446916452        0.79785327932621
C            1.75112334200001       -0.43574399062906        0.81869708100359
C            1.95504437725857        0.97743511900052        0.26940519094179
C            0.29241817324348       -2.24040234245347        1.45385206915848
O            2.68029182116549       -1.03940993883479        1.31947767855993
C           -1.79467309879738       -0.19435138298080        0.94375303016369
C           -2.89778145611330        0.79282839149993       -0.94377398275555
C           -2.91550479469716        0.38504803057196        0.37910228855771
C           -1.75813511858849        0.59711633685838       -1.70505704977940
C           -0.63396174433638        0.01535392908162       -1.14731190196507
H            1.22502922242977       -2.80100014554649        1.39976048821798
H           -0.50341311359154       -2.78563381299178        0.94917749883717
H            0.03161291930450       -2.10993801731348        2.50753476083301
N            3.34902940632130        1.38263126066850        0.26426925519147
H            1.39183981710936        1.67865245687754        0.89781266890690
H            1.56980770389301        1.09009510608097       -0.74287894598656
H           -1.80632155777198       -0.49988360314758        1.97879414864369
H           -3.80299890932672        0.52574118746793        0.97816314476592
H           -1.74371039796218        0.89430949804234       -2.74307599976151
H            0.23160816674175       -0.17821889740942       -1.76277321726663
H            3.73925529788455        1.18401304462086        1.18490105811002
H           -3.77033396548248        1.25311636541991       -1.38175103840148
H            3.86488747616335        0.75059036374819       -0.34579242019318
24
 energy: -35.290133801904 gnorm: 0.006573767467 xtb: 6.5.0 (97a52f5)
C           -0.64013574453373       -0.37614081529540        0.18630877529996
N            0.49496615637343       -0.95792368085292        0.79341222429329
C            1.75213151305433       -0.43729661833129        0.81424164233095
C            1.95867574775646        0.97722507626298        0.27058222135322
C            0.29108135402059       -2.23556568735439        1.45823993344013
O            2.68131980512008       -1.04542529068654        1.31098000696675
C           -1.79666486537248       -0.19813303455632        0.94150302930349
C           -2.90132572631677        0.78979707661973       -0.94523294790066
C           -2.91857075517133        0.37907591280166        0.37674438441171
C           -1.75960029499818        0.60035068848212       -1.70484667624603
C           -0.63391069695286        0.02178697239482       -1.14677512259368
H            1.22028486285413       -2.80110469030196        1.40056703783814
H           -0.51044597409358       -2.77982846143498        0.96255401869951
H            0.03956387552291       -2.09759523820834        2.51256157603039
N            3.35326679929694        1.37989677421887        0.26569323659891
H            1.39812522203256        1.67841766866105        0.90072271632518
H            1.57404243969780        1.09374941126385       -0.74151981093910
H           -1.81101324728692       -0.50669132601437        1.97551529503653
H           -3.80703914572053        0.51531542663208        0.97507815137479
H           -1.74500264942228        0.89922548266385       -2.74227085894878
H            0.23240313177996       -0.16664153129130       -1.76247675068829
H            3.74397964277041        1.17784748661208        1.18483663192487
H           -3.77521490571507        1.24708302812892       -1.38346984065458
H            3.86907245530163        0.74957837958617       -0.34575386325621
24
 energy: -35.290148472850 gnorm: 0.006232634580 xtb: 6.5.0 (97a52f5)
C           -0.64028824319352       -0.37354652644210        0.18604653501414
N            0.49527729010997       -0.95814550989780        0.78917501443548
C            1.75325631071239       -0.43846237644953        0.80990208412953
C            1.96226743545931        0.97726698276163        0.27153671278903
C            0.28958468068979       -2.23044831611587        1.46274887687086
O            2.68325356790511       -1.05186461518053        1.30058328483024
C           -1.79867747160067       -0.20173366999280        0.93965939610432
C           -2.90461207565472        0.78662990598766       -0.94675058123612
C           -2.92177256511219        0.37297083162866        0.37433798859538
C           -1.76056020362890        0.60395551011460       -1.70460857629950
C           -0.63368913225252        0.02846657030412       -1.14588959796640
H            1.21525837132951       -2.80143162430378        1.40080792792540
H           -0.51792516987592       -2.77371874516468        0.97613766702579
H            0.04779131775604       -2.08517031383635        2.51816591407760
N            3.35759968399825        1.37698221759886        0.26675350240534
H            1.40252808989474        1.67685671339953        0.90339537967104
H            1.57830161877790        1.09768252213798       -0.74033154999081
H           -1.81540799563634       -0.51309247802446        1.97279864680370
H           -3.81173352197294        0.50411423013243        0.97161586175905
H           -1.74522448780823        0.90486768682631       -2.74144161130462
H            0.23383900196237       -0.15492895313122       -1.76121861353996
H            3.74881577902375        1.17212536492419        1.18545264062861
H           -3.77997604643093        1.24038204101828       -1.38558839504841
H            3.87208276554498        0.74724556170526       -0.34609349767915
24
 energy: -35.290155048974 gnorm: 0.002451071720 xtb: 6.5.0 (97a52f5)
C           -0.64018885028089       -0.37180993404421        0.18604868155536
N            0.49536162019093       -0.95753142765370        0.78710061897123
C            1.75365596286484       -0.43889125787102        0.80793248143308
C            1.96389992711327        0.97736983865766        0.27198917843087
C            0.28857722711530       -2.22726836024053        1.46545375178187
O            2.68428214607713       -1.05532647145391        1.29336214422672
C           -1.79958495347908       -0.20363015596642        0.93878480927509
C           -2.90600640224749        0.78480112408862       -0.94751076035828
C           -2.92348955838521        0.36925076775066        0.37293170443939
C           -1.76069288101089        0.60624251610828       -1.70452064543785
C           -0.63351606276953        0.03199379000453       -1.14549005121494
H            1.21237715117270       -2.80132485786735        1.40123614174728
H           -0.52205159858725       -2.77009464038762        0.98349558183902
H            0.05180781703595       -2.07815351217428        2.52160514169693
N            3.35982348510020        1.37488380167123        0.26751811919436
H            1.40520531964248        1.67666794073865        0.90541295052552
H            1.57966534625038        1.10015533811533       -0.73999573116633
H           -1.81679210366059       -0.51653584412618        1.97148458266346
H           -3.81474509901827        0.49664578402495        0.96930403003251
H           -1.74466168472508        0.90880301917870       -2.74092400063922
H            0.23514994641159       -0.14880828656474       -1.75998667689958
H            3.75124277700628        1.16774831311224        1.18578752733280
H           -3.78232387738316        1.23624206414008       -1.38682484480534
H            3.87299334556346        0.74557346075945       -0.34699972462340
24
 energy: -35.290156627804 gnorm: 0.000402238280 xtb: 6.5.0 (97a52f5)
C           -0.64001560049934       -0.37068238178348        0.18638842063276
N            0.49524877473892       -0.95677759671329        0.78686684787723
C            1.75359475835937       -0.43889325658607        0.80758249336146
C            1.96440667001764        0.97744710731570        0.27196207971854
C            0.28821601940046       -2.22607774033799        1.46621645723521
O            2.68458937143910       -1.05616417113018        1.29108600908091
C           -1.79990472983196       -0.20412432812820        0.93871006769739
C           -2.90634708385514        0.78390251439930       -0.94770803301533
C           -2.92426832382881        0.36746662533516        0.37237154669958
C           -1.76045984326752        0.60731940092820       -1.70438406195357
C           -0.63329177497548        0.03344024842046       -1.14519599735659
H            1.21156392813859       -2.80079259026063        1.40155023450631
H           -0.52307554712073       -2.76882057291686        0.98527086208011
H            0.05250086526565       -2.07617998806732        2.52247587662753
N            3.36063995852625        1.37393859830771        0.26742941585465
H            1.40584988081602        1.67675246213052        0.90580855797527
H            1.57997487877615        1.10069687605957       -0.73986494743968
H           -1.81670219488516       -0.51757722454832        1.97125850812836
H           -3.81603347525626        0.49342902096275        0.96820827162616
H           -1.74404064609394        0.91077424677580       -2.74053062670249
H            0.23590989036501       -0.14716299231153       -1.75900201591537
H            3.75204983050779        1.16631534838383        1.18560817367827
H           -3.78284311516160        1.23484167492152       -1.38718396569156
H            3.87242650842200        0.74393172884377       -0.34772916470457
