DiMethylPhosphate0H Gaussian OPT Calculation on node37.bme.utexas.edu   
FOpt      RwB97XD                                                     6-31G(d)            
Number of atoms                            I               13
Info1-9                                    I   N=           9
          24          24           0           0           0         110
           2          18        -802
Charge                                     I               -1
Multiplicity                               I                1
Number of electrons                        I               66
Number of alpha electrons                  I               33
Number of beta electrons                   I               33
Number of basis functions                  I              121
Number of independent functions            I              121
Number of point charges in /Mol/           I                0
Number of translation vectors              I                0
Atomic numbers                             I   N=          13
          15           8           8           8           8           6
           6           1           1           1           1           1
           1
Nuclear charges                            R   N=          13
  1.50000000E+01  8.00000000E+00  8.00000000E+00  8.00000000E+00  8.00000000E+00
  6.00000000E+00  6.00000000E+00  1.00000000E+00  1.00000000E+00  1.00000000E+00
  1.00000000E+00  1.00000000E+00  1.00000000E+00
Current cartesian coordinates              R   N=          39
 -5.92444995E-05 -1.15686151E+00  8.34829393E-05 -1.79523268E+00  9.03741578E-01
  1.57613020E+00  1.79518968E+00  9.03782065E-01 -1.57619851E+00 -1.57124558E+00
 -2.43229469E+00 -1.95958897E+00  1.57153124E+00 -2.43203782E+00  1.95958283E+00
 -3.60752315E+00  2.20019874E+00  1.36320833E-01  3.60737865E+00  2.20025176E+00
 -1.36384298E-01 -2.74317370E+00  3.18501516E+00 -1.47666350E+00 -4.50648550E+00
  3.60745706E+00  1.36952786E+00 -5.04912054E+00  9.09591073E-01 -6.09026541E-01
  5.05017910E+00  9.10129211E-01  6.07390027E-01  2.74333407E+00  3.18356777E+00
  1.47761844E+00  4.50508094E+00  3.60893022E+00 -1.36912212E+00
Force Field                                I                0
Int Atom Types                             I   N=          13
           0           0           0           0           0           0
           0           0           0           0           0           0
           0
MM charges                                 R   N=          13
  0.00000000E+00  0.00000000E+00  0.00000000E+00  0.00000000E+00  0.00000000E+00
  0.00000000E+00  0.00000000E+00  0.00000000E+00  0.00000000E+00  0.00000000E+00
  0.00000000E+00  0.00000000E+00  0.00000000E+00
Integer atomic weights                     I   N=          13
          31          16          16          16          16          12
          12           1           1           1           1           1
           1
Real atomic weights                        R   N=          13
  3.09737634E+01  1.59949146E+01  1.59949146E+01  1.59949146E+01  1.59949146E+01
  1.20000000E+01  1.20000000E+01  1.00782504E+00  1.00782504E+00  1.00782504E+00
  1.00782504E+00  1.00782504E+00  1.00782504E+00
Atom fragment info                         I   N=          13
           0           0           0           0           0           0
           0           0           0           0           0           0
           0
Atom residue num                           I   N=          13
           0           0           0           0           0           0
           0           0           0           0           0           0
           0
Nuclear spins                              I   N=          13
           1           0           0           0           0           0
           0           1           1           1           1           1
           1
Nuclear ZEff                               R   N=          13
 -1.29400000E+01 -5.60000000E+00 -5.60000000E+00 -5.60000000E+00 -5.60000000E+00
 -3.60000000E+00 -3.60000000E+00 -1.00000000E+00 -1.00000000E+00 -1.00000000E+00
 -1.00000000E+00 -1.00000000E+00 -1.00000000E+00
Nuclear QMom                               R   N=          13
  0.00000000E+00  0.00000000E+00  0.00000000E+00  0.00000000E+00  0.00000000E+00
  0.00000000E+00  0.00000000E+00  0.00000000E+00  0.00000000E+00  0.00000000E+00
  0.00000000E+00  0.00000000E+00  0.00000000E+00
Nuclear GFac                               R   N=          13
  1.13160000E+00  0.00000000E+00  0.00000000E+00  0.00000000E+00  0.00000000E+00
  0.00000000E+00  0.00000000E+00  2.79284600E+00  2.79284600E+00  2.79284600E+00
  2.79284600E+00  2.79284600E+00  2.79284600E+00
MicOpt                                     I   N=          13
          -1          -1          -1          -1          -1          -1
          -1          -1          -1          -1          -1          -1
          -1
Number of contracted shells                I               41
Number of primitive shells                 I              107
Pure/Cartesian d shells                    I                1
Pure/Cartesian f shells                    I                0
Highest angular momentum                   I                2
Largest degree of contraction              I                6
Shell types                                I   N=          41
           0          -1          -1          -1           2           0
          -1          -1           2           0          -1          -1
           2           0          -1          -1           2           0
          -1          -1           2           0          -1          -1
           2           0          -1          -1           2           0
           0           0           0           0           0           0
           0           0           0           0           0
Number of primitives per shell             I   N=          41
           6           6           3           1           1           6
           3           1           1           6           3           1
           1           6           3           1           1           6
           3           1           1           6           3           1
           1           6           3           1           1           3
           1           3           1           3           1           3
           1           3           1           3           1
Shell to atom map                          I   N=          41
           1           1           1           1           1           2
           2           2           2           3           3           3
           3           4           4           4           4           5
           5           5           5           6           6           6
           6           7           7           7           7           8
           8           9           9          10          10          11
          11          12          12          13          13
Primitive exponents                        R   N=         107
  1.94133000E+04  2.90942000E+03  6.61364000E+02  1.85759000E+02  5.91943000E+01
  2.00310000E+01  3.39478000E+02  8.10101000E+01  2.58780000E+01  9.45221000E+00
  3.66566000E+00  1.46746000E+00  2.15623000E+00  7.48997000E-01  2.83145000E-01
  9.98317000E-02  5.50000000E-01  5.48467166E+03  8.25234946E+02  1.88046958E+02
  5.29645000E+01  1.68975704E+01  5.79963534E+00  1.55396162E+01  3.59993359E+00
  1.01376175E+00  2.70005823E-01  8.00000000E-01  5.48467166E+03  8.25234946E+02
  1.88046958E+02  5.29645000E+01  1.68975704E+01  5.79963534E+00  1.55396162E+01
  3.59993359E+00  1.01376175E+00  2.70005823E-01  8.00000000E-01  5.48467166E+03
  8.25234946E+02  1.88046958E+02  5.29645000E+01  1.68975704E+01  5.79963534E+00
  1.55396162E+01  3.59993359E+00  1.01376175E+00  2.70005823E-01  8.00000000E-01
  5.48467166E+03  8.25234946E+02  1.88046958E+02  5.29645000E+01  1.68975704E+01
  5.79963534E+00  1.55396162E+01  3.59993359E+00  1.01376175E+00  2.70005823E-01
  8.00000000E-01  3.04752488E+03  4.57369518E+02  1.03948685E+02  2.92101553E+01
  9.28666296E+00  3.16392696E+00  7.86827235E+00  1.88128854E+00  5.44249258E-01
  1.68714478E-01  8.00000000E-01  3.04752488E+03  4.57369518E+02  1.03948685E+02
  2.92101553E+01  9.28666296E+00  3.16392696E+00  7.86827235E+00  1.88128854E+00
  5.44249258E-01  1.68714478E-01  8.00000000E-01  1.87311370E+01  2.82539436E+00
  6.40121692E-01  1.61277759E-01  1.87311370E+01  2.82539436E+00  6.40121692E-01
  1.61277759E-01  1.87311370E+01  2.82539436E+00  6.40121692E-01  1.61277759E-01
  1.87311370E+01  2.82539436E+00  6.40121692E-01  1.61277759E-01  1.87311370E+01
  2.82539436E+00  6.40121692E-01  1.61277759E-01  1.87311370E+01  2.82539436E+00
  6.40121692E-01  1.61277759E-01
Contraction coefficients                   R   N=         107
  1.85159892E-03  1.42061917E-02  6.99994593E-02  2.40078860E-01  4.84761718E-01
  3.35199805E-01 -2.78217010E-03 -3.60499014E-02 -1.16631004E-01  9.68328036E-02
  6.14418023E-01  4.03798015E-01 -2.52924114E-01  3.28518447E-02  1.08125476E+00
  1.00000000E+00  1.00000000E+00  1.83107443E-03  1.39501722E-02  6.84450781E-02
  2.32714336E-01  4.70192898E-01  3.58520853E-01 -1.10777550E-01 -1.48026263E-01
  1.13076702E+00  1.00000000E+00  1.00000000E+00  1.83107443E-03  1.39501722E-02
  6.84450781E-02  2.32714336E-01  4.70192898E-01  3.58520853E-01 -1.10777550E-01
 -1.48026263E-01  1.13076702E+00  1.00000000E+00  1.00000000E+00  1.83107443E-03
  1.39501722E-02  6.84450781E-02  2.32714336E-01  4.70192898E-01  3.58520853E-01
 -1.10777550E-01 -1.48026263E-01  1.13076702E+00  1.00000000E+00  1.00000000E+00
  1.83107443E-03  1.39501722E-02  6.84450781E-02  2.32714336E-01  4.70192898E-01
  3.58520853E-01 -1.10777550E-01 -1.48026263E-01  1.13076702E+00  1.00000000E+00
  1.00000000E+00  1.83473713E-03  1.40373228E-02  6.88426223E-02  2.32184443E-01
  4.67941348E-01  3.62311985E-01 -1.19332420E-01 -1.60854152E-01  1.14345644E+00
  1.00000000E+00  1.00000000E+00  1.83473713E-03  1.40373228E-02  6.88426223E-02
  2.32184443E-01  4.67941348E-01  3.62311985E-01 -1.19332420E-01 -1.60854152E-01
  1.14345644E+00  1.00000000E+00  1.00000000E+00  3.34946043E-02  2.34726953E-01
  8.13757326E-01  1.00000000E+00  3.34946043E-02  2.34726953E-01  8.13757326E-01
  1.00000000E+00  3.34946043E-02  2.34726953E-01  8.13757326E-01  1.00000000E+00
  3.34946043E-02  2.34726953E-01  8.13757326E-01  1.00000000E+00  3.34946043E-02
  2.34726953E-01  8.13757326E-01  1.00000000E+00  3.34946043E-02  2.34726953E-01
  8.13757326E-01  1.00000000E+00
P(S=P) Contraction coefficients            R   N=         107
  0.00000000E+00  0.00000000E+00  0.00000000E+00  0.00000000E+00  0.00000000E+00
  0.00000000E+00  4.56461619E-03  3.36935719E-02  1.39754883E-01  3.39361717E-01
  4.50920624E-01  2.38585801E-01 -1.77653127E-02  2.74058196E-01  7.85421563E-01
  1.00000000E+00  0.00000000E+00  0.00000000E+00  0.00000000E+00  0.00000000E+00
  0.00000000E+00  0.00000000E+00  0.00000000E+00  7.08742682E-02  3.39752839E-01
  7.27158577E-01  1.00000000E+00  0.00000000E+00  0.00000000E+00  0.00000000E+00
  0.00000000E+00  0.00000000E+00  0.00000000E+00  0.00000000E+00  7.08742682E-02
  3.39752839E-01  7.27158577E-01  1.00000000E+00  0.00000000E+00  0.00000000E+00
  0.00000000E+00  0.00000000E+00  0.00000000E+00  0.00000000E+00  0.00000000E+00
  7.08742682E-02  3.39752839E-01  7.27158577E-01  1.00000000E+00  0.00000000E+00
  0.00000000E+00  0.00000000E+00  0.00000000E+00  0.00000000E+00  0.00000000E+00
  0.00000000E+00  7.08742682E-02  3.39752839E-01  7.27158577E-01  1.00000000E+00
  0.00000000E+00  0.00000000E+00  0.00000000E+00  0.00000000E+00  0.00000000E+00
  0.00000000E+00  0.00000000E+00  6.89990666E-02  3.16423961E-01  7.44308291E-01
  1.00000000E+00  0.00000000E+00  0.00000000E+00  0.00000000E+00  0.00000000E+00
  0.00000000E+00  0.00000000E+00  0.00000000E+00  6.89990666E-02  3.16423961E-01
  7.44308291E-01  1.00000000E+00  0.00000000E+00  0.00000000E+00  0.00000000E+00
  0.00000000E+00  0.00000000E+00  0.00000000E+00  0.00000000E+00  0.00000000E+00
  0.00000000E+00  0.00000000E+00  0.00000000E+00  0.00000000E+00  0.00000000E+00
  0.00000000E+00  0.00000000E+00  0.00000000E+00  0.00000000E+00  0.00000000E+00
  0.00000000E+00  0.00000000E+00  0.00000000E+00  0.00000000E+00  0.00000000E+00
  0.00000000E+00  0.00000000E+00
Coordinates of each shell                  R   N=         123
 -5.92444995E-05 -1.15686151E+00  8.34829393E-05 -5.92444995E-05 -1.15686151E+00
  8.34829393E-05 -5.92444995E-05 -1.15686151E+00  8.34829393E-05 -5.92444995E-05
 -1.15686151E+00  8.34829393E-05 -5.92444995E-05 -1.15686151E+00  8.34829393E-05
 -1.79523268E+00  9.03741578E-01  1.57613020E+00 -1.79523268E+00  9.03741578E-01
  1.57613020E+00 -1.79523268E+00  9.03741578E-01  1.57613020E+00 -1.79523268E+00
  9.03741578E-01  1.57613020E+00  1.79518968E+00  9.03782065E-01 -1.57619851E+00
  1.79518968E+00  9.03782065E-01 -1.57619851E+00  1.79518968E+00  9.03782065E-01
 -1.57619851E+00  1.79518968E+00  9.03782065E-01 -1.57619851E+00 -1.57124558E+00
 -2.43229469E+00 -1.95958897E+00 -1.57124558E+00 -2.43229469E+00 -1.95958897E+00
 -1.57124558E+00 -2.43229469E+00 -1.95958897E+00 -1.57124558E+00 -2.43229469E+00
 -1.95958897E+00  1.57153124E+00 -2.43203782E+00  1.95958283E+00  1.57153124E+00
 -2.43203782E+00  1.95958283E+00  1.57153124E+00 -2.43203782E+00  1.95958283E+00
  1.57153124E+00 -2.43203782E+00  1.95958283E+00 -3.60752315E+00  2.20019874E+00
  1.36320833E-01 -3.60752315E+00  2.20019874E+00  1.36320833E-01 -3.60752315E+00
  2.20019874E+00  1.36320833E-01 -3.60752315E+00  2.20019874E+00  1.36320833E-01
  3.60737865E+00  2.20025176E+00 -1.36384298E-01  3.60737865E+00  2.20025176E+00
 -1.36384298E-01  3.60737865E+00  2.20025176E+00 -1.36384298E-01  3.60737865E+00
  2.20025176E+00 -1.36384298E-01 -2.74317370E+00  3.18501516E+00 -1.47666350E+00
 -2.74317370E+00  3.18501516E+00 -1.47666350E+00 -4.50648550E+00  3.60745706E+00
  1.36952786E+00 -4.50648550E+00  3.60745706E+00  1.36952786E+00 -5.04912054E+00
  9.09591073E-01 -6.09026541E-01 -5.04912054E+00  9.09591073E-01 -6.09026541E-01
  5.05017910E+00  9.10129211E-01  6.07390027E-01  5.05017910E+00  9.10129211E-01
  6.07390027E-01  2.74333407E+00  3.18356777E+00  1.47761844E+00  2.74333407E+00
  3.18356777E+00  1.47761844E+00  4.50508094E+00  3.60893022E+00 -1.36912212E+00
  4.50508094E+00  3.60893022E+00 -1.36912212E+00
Constraint Structure                       R   N=          39
 -2.79637106E-04 -1.07118017E+00  1.69649549E-04 -1.74739593E+00  9.31545299E-01
  1.54861621E+00  1.74796318E+00  9.31966817E-01 -1.54872254E+00 -1.64497351E+00
 -2.45199420E+00 -1.87296288E+00  1.64518146E+00 -2.45118605E+00  1.87300943E+00
 -3.67269564E+00  2.13351520E+00  1.51255914E-01  3.67240082E+00  2.13313997E+00
 -1.51876620E-01 -2.92592293E+00  2.93928577E+00 -1.59899430E+00 -4.45964759E+00
  3.66410566E+00  1.29445960E+00 -5.18303457E+00  7.89929302E-01 -2.76554780E-01
  5.18429553E+00  7.89697903E-01  2.75631574E-01  2.92592304E+00  2.93776332E+00
  1.60007508E+00  4.45814836E+00  3.66433469E+00 -1.29295942E+00
Num ILSW                                   I              100
ILSW                                       I   N=         100
           0           1           0           0           2           0
           0           0           0           0        4639 13421772800
           0           0           0           0           0           0
           0           0           0           0           1           0
           0           0           1           0           0           0
           0           0      100000           0          -1           0
           0           0           0           0           0           0
           0           0           0           1           0           0
           0           0           1           0           0           0
           0           0           2          40           0           0
           0           0          58           0           0           0
           0           0           0           0           0           0
           0           0           0           0           0           0
           0           0           0           0           0           0
           0           0           0           0           0           0
           0           0           0           0           0           0
           0           0           0           0
Num RLSW                                   I               40
RLSW                                       R   N=          40
  1.00000000E+00  1.00000000E+00  1.00000000E+00  1.00000000E+00  1.00000000E+00
  0.00000000E+00  2.00000000E-01  2.22036000E-01  0.00000000E+00  7.77964000E-01
  0.00000000E+00  2.00000000E-01  0.00000000E+00  0.00000000E+00  1.00000000E+00
  0.00000000E+00  0.00000000E+00  1.00000000E+00  0.00000000E+00  0.00000000E+00
  0.00000000E+00  0.00000000E+00  1.00000000E+00  0.00000000E+00  0.00000000E+00
  0.00000000E+00  0.00000000E+00  1.00000000E+00  0.00000000E+00  0.00000000E+00
  0.00000000E+00  0.00000000E+00  0.00000000E+00  0.00000000E+00  0.00000000E+00
  0.00000000E+00  0.00000000E+00  0.00000000E+00  1.00000000E+00  1.00000000E+00
MxBond                                     I                4
NBond                                      I   N=          13
           4           2           2           1           1           4
           4           1           1           1           1           1
           1
IBond                                      I   N=          52
           2           3           4           5           1           6
           0           0           1           7           0           0
           1           0           0           0           1           0
           0           0           2           8           9          10
           3          11          12          13           6           0
           0           0           6           0           0           0
           6           0           0           0           7           0
           0           0           7           0           0           0
           7           0           0           0
RBond                                      R   N=          52
  1.00000000E+00  1.00000000E+00  2.00000000E+00  2.00000000E+00  1.00000000E+00
  1.00000000E+00  0.00000000E+00  0.00000000E+00  1.00000000E+00  1.00000000E+00
  0.00000000E+00  0.00000000E+00  2.00000000E+00  0.00000000E+00  0.00000000E+00
  0.00000000E+00  2.00000000E+00  0.00000000E+00  0.00000000E+00  0.00000000E+00
  1.00000000E+00  1.00000000E+00  1.00000000E+00  1.00000000E+00  1.00000000E+00
  1.00000000E+00  1.00000000E+00  1.00000000E+00  1.00000000E+00  0.00000000E+00
  0.00000000E+00  0.00000000E+00  1.00000000E+00  0.00000000E+00  0.00000000E+00
  0.00000000E+00  1.00000000E+00  0.00000000E+00  0.00000000E+00  0.00000000E+00
  1.00000000E+00  0.00000000E+00  0.00000000E+00  0.00000000E+00  1.00000000E+00
  0.00000000E+00  0.00000000E+00  0.00000000E+00  1.00000000E+00  0.00000000E+00
  0.00000000E+00  0.00000000E+00
Virial Ratio                               R      2.006218266403879E+00
SCF Energy                                 R     -7.220623400338031E+02
Total Energy                               R     -7.220623400338031E+02
RMS Force                                  R      5.005658039980919E-04
RMS Density                                R      4.775789079918898E-09
External E-field                           R   N=          35
  0.00000000E+00  0.00000000E+00  0.00000000E+00  0.00000000E+00  0.00000000E+00
  0.00000000E+00  0.00000000E+00  0.00000000E+00  0.00000000E+00  0.00000000E+00
  0.00000000E+00  0.00000000E+00  0.00000000E+00  0.00000000E+00  0.00000000E+00
  0.00000000E+00  0.00000000E+00  0.00000000E+00  0.00000000E+00  0.00000000E+00
  0.00000000E+00  0.00000000E+00  0.00000000E+00  0.00000000E+00  0.00000000E+00
  0.00000000E+00  0.00000000E+00  0.00000000E+00  0.00000000E+00  0.00000000E+00
  0.00000000E+00  0.00000000E+00  0.00000000E+00  0.00000000E+00  0.00000000E+00
IOpCl                                      I                0
IROHF                                      I                0
Alpha Orbital Energies                     R   N=         121
 -7.71521978E+01 -1.90987904E+01 -1.90987554E+01 -1.90136508E+01 -1.90136400E+01
 -1.01869173E+01 -1.01868988E+01 -6.56043648E+00 -4.71102890E+00 -4.70956290E+00
 -4.70682625E+00 -9.78760143E-01 -9.35007673E-01 -8.59381265E-01 -8.21288605E-01
 -6.28327925E-01 -6.19072895E-01 -4.67639745E-01 -4.17908310E-01 -3.87552835E-01
 -3.81042900E-01 -3.68440256E-01 -3.62113473E-01 -3.14524421E-01 -2.71974330E-01
 -2.64131268E-01 -2.32187275E-01 -2.03800441E-01 -1.95626429E-01 -1.87843266E-01
 -1.67614271E-01 -1.55151514E-01 -1.43018305E-01  3.28110814E-01  3.49543788E-01
  3.64152678E-01  3.84726778E-01  3.86524913E-01  3.91909195E-01  3.94443679E-01
  4.19923747E-01  4.46047622E-01  4.65849715E-01  5.00126558E-01  5.06302051E-01
  6.18455360E-01  6.36448855E-01  6.84123213E-01  7.11272598E-01  7.46211461E-01
  7.87208711E-01  7.97899735E-01  8.53634472E-01  8.62392678E-01  9.10008834E-01
  9.35710359E-01  9.97922390E-01  1.05444131E+00  1.08040726E+00  1.08723669E+00
  1.10206871E+00  1.13282495E+00  1.13316676E+00  1.16409100E+00  1.16763441E+00
  1.18693864E+00  1.25524586E+00  1.27496408E+00  1.29033547E+00  1.31993650E+00
  1.33017841E+00  1.37400595E+00  1.38306852E+00  1.40345321E+00  1.41701072E+00
  1.47969423E+00  1.48626287E+00  1.50851741E+00  1.54721215E+00  1.63648155E+00
  1.73421362E+00  1.74940080E+00  1.76502149E+00  1.79875144E+00  1.84114795E+00
  1.84439599E+00  1.93406225E+00  1.99499739E+00  2.06791875E+00  2.11829216E+00
  2.12647168E+00  2.13916260E+00  2.17351384E+00  2.21295815E+00  2.26603382E+00
  2.31326790E+00  2.32234136E+00  2.32898998E+00  2.37114328E+00  2.40852643E+00
  2.42315245E+00  2.42835894E+00  2.49431214E+00  2.58965424E+00  2.63894806E+00
  2.63901859E+00  2.67165985E+00  2.70282346E+00  2.80505386E+00  2.88036951E+00
  3.03692701E+00  3.04153275E+00  3.16457745E+00  3.17101633E+00  3.81233446E+00
  4.06127450E+00  4.10563427E+00  4.32565499E+00  4.35019902E+00  4.51062979E+00
  4.52827573E+00
Alpha MO coefficients                      R   N=       14641
  9.96281882E-01  1.40618538E-02 -4.12510894E-09  5.51506894E-05 -2.76403179E-09
 -2.66924371E-02 -9.75442491E-09 -1.03849215E-04  2.83202950E-08  2.45731915E-03
 -6.20628039E-08  1.71298479E-06  6.21883208E-08  9.26258773E-03  9.26783987E-03
  9.29280556E-03 -5.60864819E-09 -1.41934190E-05  7.04014588E-09 -1.84040612E-05
 -7.44508280E-05 -1.70262951E-05  3.27592373E-05  5.21876121E-05  8.35061246E-04
  1.50265265E-04 -2.20921954E-04 -3.09505288E-04 -9.80506680E-05 -1.35764502E-04
 -9.02738467E-05  6.65051135E-05  9.35978425E-05 -9.21645738E-05 -1.84136577E-05
 -7.44524224E-05  1.69884414E-05  3.27203566E-05 -5.21600006E-05  8.35105113E-04
 -1.50243791E-04 -2.20910274E-04  3.09542326E-04 -9.80627209E-05 -1.35752733E-04
 -9.02895306E-05 -6.64672584E-05  9.35905956E-05  9.21583950E-05  2.22950994E-07
 -9.20741084E-05 -1.06343636E-04 -8.23192509E-05 -1.37338468E-04  7.07923385E-04
  2.57630723E-04  2.11032068E-04  3.41057948E-04 -5.01102562E-05 -2.24512153E-05
 -8.53835383E-05 -6.84708419E-05 -1.02040318E-04 -8.05568994E-05  2.28872296E-07
 -9.20565582E-05  1.06372120E-04 -8.22984495E-05  1.37328995E-04  7.07834962E-04
 -2.57678047E-04  2.10968679E-04 -3.41040592E-04 -5.01345100E-05 -2.24112120E-05
 -8.53357201E-05  6.84731849E-05 -1.02056816E-04  8.05367088E-05 -1.75815949E-05
 -9.27484748E-05 -3.91004959E-05  4.30775212E-05  1.14213067E-05  1.54562643E-04
 -6.67466722E-05  1.51146524E-05 -1.31834607E-04 -3.57751797E-05 -3.49832000E-05
 -1.26664757E-06 -1.03857219E-05 -1.34175289E-05  2.07479055E-05 -1.75804842E-05
 -9.27393002E-05  3.90801359E-05  4.31030381E-05 -1.13872894E-05  1.54476467E-04
  6.68597605E-05  1.50794618E-05  1.31715502E-04 -3.57796963E-05 -3.50044081E-05
 -1.24834530E-06  1.04030595E-05 -1.34481168E-05 -2.07393887E-05 -3.39720451E-06
 -1.83406388E-04 -1.72323415E-05  3.86991714E-05  9.25026370E-06 -1.98915506E-04
  9.31498687E-06 -1.98885689E-04 -3.43310037E-06 -1.83308418E-04 -1.72341830E-05
  3.86543893E-05  8.76459375E-06  2.30982769E-05  3.83383385E-05 -5.50097117E-05
 -4.06685277E-05  2.16818179E-04 -4.65783884E-05  1.83854562E-04  5.86479432E-05
 -3.12052535E-03 -8.26906877E-05 -1.38670598E-03 -1.04572646E-03  1.16580448E-04
  1.88666404E-04  1.92847739E-05 -1.52285889E-04 -1.60015134E-04  1.47024711E-04
  9.92884310E-01  2.53581854E-02 -2.98443358E-04  4.18181326E-05 -8.56921839E-04
  1.17254934E-02  5.08078944E-04 -2.41070923E-04  1.05874720E-04 -7.81947463E-03
 -7.81095731E-03 -7.85185785E-03  8.83862924E-05 -8.57199415E-05  3.00455751E-05
 -5.85835465E-03 -2.62043971E-04  1.82233326E-05  8.40950026E-06  1.17601528E-05
  6.39301562E-04 -3.05205753E-04 -1.96087976E-04  5.33443553E-06 -4.31019745E-05
 -7.78579181E-06 -5.72662257E-05  9.17734267E-06  2.21473746E-05 -4.66612571E-05
 -2.57248532E-05  9.01074817E-06  2.67012968E-05 -1.93912731E-05  1.86313499E-06
  3.79126099E-05 -2.17022860E-05  2.18353763E-04  1.28840016E-04  2.10840395E-05
  4.59292592E-05  4.07086671E-05  4.29355027E-05  2.11449091E-05 -1.14607532E-05
 -5.58856016E-05 -2.47760943E-04 -1.48397259E-05 -1.82482635E-05 -2.64342037E-05
  1.51554593E-03 -1.16788825E-04  3.29270709E-04 -5.69620842E-05 -1.83070759E-04
 -1.63663107E-04 -1.68688043E-04  4.37706463E-05  8.55532257E-06 -4.07559998E-05
 -7.26476114E-06  1.92775002E-04  2.77398640E-04 -1.87645727E-04  2.94130128E-04
 -9.80600321E-04 -2.14556737E-04  1.64623267E-05 -5.16661741E-04  1.46932577E-04
  5.00217866E-05  8.47562846E-05 -1.30274645E-04  1.49156177E-04 -1.27532647E-04
 -3.03774144E-05 -1.64726497E-04  6.66474840E-06  2.88103359E-05 -4.45933711E-05
  7.66662373E-04 -3.96078343E-04 -4.10041855E-04  2.34128609E-04 -9.67777991E-08
 -2.81307820E-05 -4.38261056E-05  2.32982835E-05 -1.35753378E-06 -3.71174253E-06
 -1.88543323E-05  1.73475410E-04  9.06435280E-05  1.50912384E-04  2.12655762E-05
 -2.05585491E-05 -8.39819415E-05  1.23974650E-05 -1.46012158E-05 -9.11787277E-05
  7.76467426E-06  2.17225144E-04  8.86426926E-06  2.34088405E-05 -3.78903783E-05
 -5.56607270E-05  4.01984371E-05  2.19176489E-04  4.59485007E-05  1.85940483E-04
 -5.79302295E-05 -3.15739924E-03  8.16867128E-05 -1.40281745E-03  1.03359180E-03
  1.18025814E-04  1.90920391E-04  1.96008304E-05  1.50454093E-04 -1.61836541E-04
 -1.45286154E-04  5.80038578E-03  3.57139573E-05 -2.17152230E-05  8.91731318E-06
 -2.18226341E-05  7.77041106E-04  3.11123517E-04 -1.99020355E-04 -4.07399036E-06
 -1.34907062E-04 -9.95238770E-05 -1.49478742E-04 -8.13247801E-06  2.11536717E-05
  4.70280631E-05  9.92883996E-01  2.53568181E-02  2.98737417E-04  4.20838352E-05
  8.57113949E-04  1.17336577E-02 -5.11714952E-04 -2.43554467E-04 -1.05650223E-04
 -7.82044515E-03 -7.81150839E-03 -7.85299473E-03 -8.82530996E-05 -8.54702197E-05
 -3.06203360E-05 -5.61929289E-05 -2.47691500E-04  1.51579437E-05 -1.84715177E-05
  2.64347101E-05  1.51619608E-03  1.16468040E-04  3.31822635E-04  5.85509758E-05
 -1.82863117E-04 -1.63169552E-04 -1.68237431E-04 -4.33062409E-05  8.80656992E-06
  4.06208296E-05 -2.63999349E-05  6.05522288E-06 -2.68741687E-05 -1.96061780E-05
 -2.15324985E-06  5.59969215E-05  2.02909962E-05  2.22189210E-04 -1.29581661E-04
  1.89099535E-05  4.39418657E-05  3.86701427E-05 -4.24252350E-05  2.12608125E-05
  1.10204790E-05 -3.04667923E-05 -1.62480782E-04 -3.46401083E-06  2.65616526E-05
  4.80484010E-05  7.55153788E-04  3.93978631E-04 -4.09524708E-04 -2.40292546E-04
  1.59313788E-06 -2.75225184E-05 -4.28351586E-05 -2.48256566E-05  4.20250637E-07
  2.22976857E-06 -7.61234093E-06  1.90990996E-04 -2.77339402E-04 -1.87351013E-04
 -2.94653480E-04 -9.71852698E-04  2.10011823E-04  1.18682790E-05  5.19166834E-04
  1.46886066E-04  4.96200946E-05  8.42676387E-05  1.30554617E-04  1.49061097E-04
  1.27479521E-04 -1.48334531E-05 -8.94172582E-05  8.84530066E-06  2.19002405E-04
 -8.37881763E-05  1.25288372E-05  2.03563756E-05 -2.02283775E-05 -1.90427560E-05
  1.72523870E-04  9.07073050E-05  1.53277695E-04  4.77669840E-06 -3.50016196E-05
  1.45730091E-05 -1.68927221E-06 -7.80710510E-06  2.47984650E-04 -3.18151891E-04
 -2.99580944E-05 -1.50604046E-04 -6.37323166E-04  1.98981868E-03  1.62711239E-04
  2.26838781E-03 -8.16653835E-05 -9.60960314E-05 -6.92823090E-05  6.55966805E-05
  2.35105628E-05  1.20933978E-04  5.69659415E-05  8.46863645E-05  4.77698378E-05
  8.47884610E-07  2.41802458E-05 -4.43083173E-04 -2.50419240E-04 -7.78907487E-06
 -1.72128285E-04  7.90082098E-05  1.06189629E-04  7.98251450E-05 -1.76777098E-05
 -4.98475827E-06 -2.50621026E-05 -6.22578406E-05 -1.41997786E-04  4.03940078E-05
  2.85777645E-06  2.12740868E-05  7.95497588E-04 -2.58016101E-04 -5.44343474E-05
 -1.09440816E-04 -1.22789761E-04 -1.50433982E-04 -1.18679033E-04 -2.79371220E-05
 -1.12576920E-05 -2.47410692E-05  8.55512611E-01  2.17309277E-02  4.34876243E-04
  3.26594865E-04  5.59071411E-04  1.00759325E-02  1.60992475E-05  2.92806034E-04
  2.16925516E-05 -6.66105112E-03 -6.62175832E-03 -6.66839998E-03  1.88489121E-06
 -2.25394808E-05 -9.15080858E-06 -5.03970662E-01 -1.27148761E-02  2.60664865E-04
 -1.63144543E-04  3.38728854E-04 -6.40788240E-03 -5.40340622E-05 -2.99986724E-04
 -7.96171818E-05  4.01143598E-03  3.96217516E-03  4.02161015E-03 -4.23279226E-07
  2.78881701E-05 -1.74374887E-05 -1.47631923E-05 -7.09325263E-05 -3.28680286E-05
  4.45171662E-05 -2.26983765E-05  1.87413172E-04  1.99914944E-04 -3.42007989E-04
 -9.69998099E-05 -1.56392792E-05 -1.89815562E-05 -3.06657619E-05 -5.21832918E-06
 -2.85044944E-05  2.00861706E-05  1.77690944E-05  7.88649676E-05 -4.07271508E-05
 -5.17701874E-05 -4.89861023E-06 -2.52393127E-04  2.61968759E-04  3.87201491E-04
 -1.58192147E-04  2.15011198E-05  2.17839650E-05  4.38032022E-05 -1.87759331E-06
  2.88069385E-05  1.54579198E-05 -5.72966443E-05  2.69777643E-04  2.39981429E-05