DiMethylPhosphate0H Gaussian SP Calculation on node37.bme.utexas.edu    
SP        RMP2-FC                                                     6-311G(d,p)         
Number of atoms                            I               13
Info1-9                                    I   N=           9
          26          24           0           0           0         110
           1           2           1
Charge                                     I               -1
Multiplicity                               I                1
Number of electrons                        I               66
Number of alpha electrons                  I               33
Number of beta electrons                   I               33
Number of basis functions                  I              170
Number of independent functions            I              170
Number of point charges in /Mol/           I                0
Number of translation vectors              I                0
Atomic numbers                             I   N=          13
          15           8           8           8           8           6
           6           1           1           1           1           1
           1
Nuclear charges                            R   N=          13
  1.50000000E+01  8.00000000E+00  8.00000000E+00  8.00000000E+00  8.00000000E+00
  6.00000000E+00  6.00000000E+00  1.00000000E+00  1.00000000E+00  1.00000000E+00
  1.00000000E+00  1.00000000E+00  1.00000000E+00
Current cartesian coordinates              R   N=          39
  5.89026604E-05  1.15686179E+00  8.30316590E-05  1.79523269E+00 -9.03740851E-01
  1.57612974E+00 -1.79518838E+00 -9.03782602E-01 -1.57619801E+00  1.57124518E+00
  2.43229473E+00 -1.95958942E+00 -1.57153190E+00  2.43203757E+00  1.95958352E+00
  3.60752358E+00 -2.20019871E+00  1.36320947E-01 -3.60737899E+00 -2.20025198E+00
 -1.36383541E-01  2.74317423E+00 -3.18501441E+00 -1.47666424E+00  4.50648527E+00
 -3.60745693E+00  1.36952788E+00  5.04912188E+00 -9.09591284E-01 -6.09026724E-01
 -5.05017928E+00 -9.10130352E-01  6.07389988E-01 -2.74333379E+00 -3.18356904E+00
  1.47761832E+00 -4.50508009E+00 -3.60893136E+00 -1.36912182E+00
Force Field                                I                0
Int Atom Types                             I   N=          13
           0           0           0           0           0           0
           0           0           0           0           0           0
           0
MM charges                                 R   N=          13
  0.00000000E+00  0.00000000E+00  0.00000000E+00  0.00000000E+00  0.00000000E+00
  0.00000000E+00  0.00000000E+00  0.00000000E+00  0.00000000E+00  0.00000000E+00
  0.00000000E+00  0.00000000E+00  0.00000000E+00
Integer atomic weights                     I   N=          13
          31          16          16          16          16          12
          12           1           1           1           1           1
           1
Real atomic weights                        R   N=          13
  3.09737634E+01  1.59949146E+01  1.59949146E+01  1.59949146E+01  1.59949146E+01
  1.20000000E+01  1.20000000E+01  1.00782504E+00  1.00782504E+00  1.00782504E+00
  1.00782504E+00  1.00782504E+00  1.00782504E+00
Atom fragment info                         I   N=          13
           0           0           0           0           0           0
           0           0           0           0           0           0
           0
Atom residue num                           I   N=          13
           0           0           0           0           0           0
           0           0           0           0           0           0
           0
Nuclear spins                              I   N=          13
           1           0           0           0           0           0
           0           1           1           1           1           1
           1
Nuclear ZEff                               R   N=          13
 -1.29400000E+01 -5.60000000E+00 -5.60000000E+00 -5.60000000E+00 -5.60000000E+00
 -3.60000000E+00 -3.60000000E+00 -1.00000000E+00 -1.00000000E+00 -1.00000000E+00
 -1.00000000E+00 -1.00000000E+00 -1.00000000E+00
Nuclear QMom                               R   N=          13
  0.00000000E+00  0.00000000E+00  0.00000000E+00  0.00000000E+00  0.00000000E+00
  0.00000000E+00  0.00000000E+00  0.00000000E+00  0.00000000E+00  0.00000000E+00
  0.00000000E+00  0.00000000E+00  0.00000000E+00
Nuclear GFac                               R   N=          13
  1.13160000E+00  0.00000000E+00  0.00000000E+00  0.00000000E+00  0.00000000E+00
  0.00000000E+00  0.00000000E+00  2.79284600E+00  2.79284600E+00  2.79284600E+00
  2.79284600E+00  2.79284600E+00  2.79284600E+00
MicOpt                                     I   N=          13
          -1          -1          -1          -1          -1          -1
          -1          -1          -1          -1          -1          -1
          -1
Number of contracted shells                I               66
Number of primitive shells                 I              131
Pure/Cartesian d shells                    I                0
Pure/Cartesian f shells                    I                0
Highest angular momentum                   I                2
Largest degree of contraction              I                6
Shell types                                I   N=          66
           0           0           0           0           0           0
           1           1           1           1           1          -2
           0          -1          -1          -1          -2           0
          -1          -1          -1          -2           0          -1
          -1          -1          -2           0          -1          -1
          -1          -2           0          -1          -1          -1
          -2           0          -1          -1          -1          -2
           0           0           0           1           0           0
           0           1           0           0           0           1
           0           0           0           1           0           0
           0           1           0           0           0           1
Number of primitives per shell             I   N=          66
           6           3           1           1           1           1
           4           2           1           1           1           1
           6           3           1           1           1           6
           3           1           1           1           6           3
           1           1           1           6           3           1
           1           1           6           3           1           1
           1           6           3           1           1           1
           3           1           1           1           3           1
           1           1           3           1           1           1
           3           1           1           1           3           1
           1           1           3           1           1           1
Shell to atom map                          I   N=          66
           1           1           1           1           1           1
           1           1           1           1           1           1
           2           2           2           2           2           3
           3           3           3           3           4           4
           4           4           4           5           5           5
           5           5           6           6           6           6
           6           7           7           7           7           7
           8           8           8           8           9           9
           9           9          10          10          10          10
          11          11          11          11          12          12
          12          12          13          13          13          13
Primitive exponents                        R   N=         131
  7.74924000E+04  1.16058000E+04  2.64596000E+03  7.54976000E+02  2.48755000E+02
  9.11565000E+01  9.11565000E+01  3.62257000E+01  1.52113000E+01  4.79417000E+00
  1.80793000E+00  3.56816000E-01  1.14783000E-01  3.84843000E+02  9.05521000E+01
  2.91339000E+01  1.08862000E+01  4.35259000E+00  1.77706000E+00  6.97005000E-01
  2.53532000E-01  6.84930000E-02  5.50000000E-01  8.58850000E+03  1.29723000E+03
  2.99296000E+02  8.73771000E+01  2.56789000E+01  3.74004000E+00  4.21175000E+01
  9.62837000E+00  2.85332000E+00  9.05661000E-01  2.55611000E-01  1.29200000E+00
  8.58850000E+03  1.29723000E+03  2.99296000E+02  8.73771000E+01  2.56789000E+01
  3.74004000E+00  4.21175000E+01  9.62837000E+00  2.85332000E+00  9.05661000E-01
  2.55611000E-01  1.29200000E+00  8.58850000E+03  1.29723000E+03  2.99296000E+02
  8.73771000E+01  2.56789000E+01  3.74004000E+00  4.21175000E+01  9.62837000E+00
  2.85332000E+00  9.05661000E-01  2.55611000E-01  1.29200000E+00  8.58850000E+03
  1.29723000E+03  2.99296000E+02  8.73771000E+01  2.56789000E+01  3.74004000E+00
  4.21175000E+01  9.62837000E+00  2.85332000E+00  9.05661000E-01  2.55611000E-01
  1.29200000E+00  4.56324000E+03  6.82024000E+02  1.54973000E+02  4.44553000E+01
  1.30290000E+01  1.82773000E+00  2.09642000E+01  4.80331000E+00  1.45933000E+00
  4.83456000E-01  1.45585000E-01  6.26000000E-01  4.56324000E+03  6.82024000E+02
  1.54973000E+02  4.44553000E+01  1.30290000E+01  1.82773000E+00  2.09642000E+01
  4.80331000E+00  1.45933000E+00  4.83456000E-01  1.45585000E-01  6.26000000E-01
  3.38650000E+01  5.09479000E+00  1.15879000E+00  3.25840000E-01  1.02741000E-01
  7.50000000E-01  3.38650000E+01  5.09479000E+00  1.15879000E+00  3.25840000E-01
  1.02741000E-01  7.50000000E-01  3.38650000E+01  5.09479000E+00  1.15879000E+00
  3.25840000E-01  1.02741000E-01  7.50000000E-01  3.38650000E+01  5.09479000E+00
  1.15879000E+00  3.25840000E-01  1.02741000E-01  7.50000000E-01  3.38650000E+01
  5.09479000E+00  1.15879000E+00  3.25840000E-01  1.02741000E-01  7.50000000E-01
  3.38650000E+01  5.09479000E+00  1.15879000E+00  3.25840000E-01  1.02741000E-01
  7.50000000E-01
Contraction coefficients                   R   N=         131
  7.81000147E-04  6.06800114E-03  3.11600059E-02  1.23431023E-01  3.78209071E-01
  5.63262106E-01  1.60255011E-01  6.27647045E-01  2.63849019E-01  1.00000000E+00
  1.00000000E+00  1.00000000E+00  1.00000000E+00  9.20599888E-03  6.98739915E-02
  2.92469964E-01  7.28102911E-01  6.28348873E-01  4.28043913E-01  1.00000000E+00
  1.00000000E+00  1.00000000E+00  1.00000000E+00  1.89515008E-03  1.43859006E-02
  7.07320031E-02  2.40001011E-01  5.94797026E-01  2.80802012E-01  1.13889012E-01
  9.20811101E-01 -3.27447036E-03  1.00000000E+00  1.00000000E+00  1.00000000E+00
  1.89515008E-03  1.43859006E-02  7.07320031E-02  2.40001011E-01  5.94797026E-01
  2.80802012E-01  1.13889012E-01  9.20811101E-01 -3.27447036E-03  1.00000000E+00
  1.00000000E+00  1.00000000E+00  1.89515008E-03  1.43859006E-02  7.07320031E-02
  2.40001011E-01  5.94797026E-01  2.80802012E-01  1.13889012E-01  9.20811101E-01
 -3.27447036E-03  1.00000000E+00  1.00000000E+00  1.00000000E+00  1.89515008E-03
  1.43859006E-02  7.07320031E-02  2.40001011E-01  5.94797026E-01  2.80802012E-01
  1.13889012E-01  9.20811101E-01 -3.27447036E-03  1.00000000E+00  1.00000000E+00
  1.00000000E+00  1.96665025E-03  1.52306019E-02  7.61269097E-02  2.60801033E-01
  6.16462078E-01  2.21006028E-01  1.14660081E-01  9.19999648E-01 -3.03068213E-03
  1.00000000E+00  1.00000000E+00  1.00000000E+00  1.96665025E-03  1.52306019E-02
  7.61269097E-02  2.60801033E-01  6.16462078E-01  2.21006028E-01  1.14660081E-01
  9.19999648E-01 -3.03068213E-03  1.00000000E+00  1.00000000E+00  1.00000000E+00
  2.54938145E-02  1.90373109E-01  8.52161486E-01  1.00000000E+00  1.00000000E+00
  1.00000000E+00  2.54938145E-02  1.90373109E-01  8.52161486E-01  1.00000000E+00
  1.00000000E+00  1.00000000E+00  2.54938145E-02  1.90373109E-01  8.52161486E-01
  1.00000000E+00  1.00000000E+00  1.00000000E+00  2.54938145E-02  1.90373109E-01
  8.52161486E-01  1.00000000E+00  1.00000000E+00  1.00000000E+00  2.54938145E-02
  1.90373109E-01  8.52161486E-01  1.00000000E+00  1.00000000E+00  1.00000000E+00
  2.54938145E-02  1.90373109E-01  8.52161486E-01  1.00000000E+00  1.00000000E+00
  1.00000000E+00
P(S=P) Contraction coefficients            R   N=         131
  0.00000000E+00  0.00000000E+00  0.00000000E+00  0.00000000E+00  0.00000000E+00
  0.00000000E+00  0.00000000E+00  0.00000000E+00  0.00000000E+00  0.00000000E+00
  0.00000000E+00  0.00000000E+00  0.00000000E+00  0.00000000E+00  0.00000000E+00
  0.00000000E+00  0.00000000E+00  0.00000000E+00  0.00000000E+00  0.00000000E+00
  0.00000000E+00  0.00000000E+00  0.00000000E+00  0.00000000E+00  0.00000000E+00
  0.00000000E+00  0.00000000E+00  0.00000000E+00  0.00000000E+00  3.65113974E-02
  2.37152983E-01  8.19701941E-01  1.00000000E+00  1.00000000E+00  0.00000000E+00
  0.00000000E+00  0.00000000E+00  0.00000000E+00  0.00000000E+00  0.00000000E+00
  0.00000000E+00  3.65113974E-02  2.37152983E-01  8.19701941E-01  1.00000000E+00
  1.00000000E+00  0.00000000E+00  0.00000000E+00  0.00000000E+00  0.00000000E+00
  0.00000000E+00  0.00000000E+00  0.00000000E+00  3.65113974E-02  2.37152983E-01
  8.19701941E-01  1.00000000E+00  1.00000000E+00  0.00000000E+00  0.00000000E+00
  0.00000000E+00  0.00000000E+00  0.00000000E+00  0.00000000E+00  0.00000000E+00
  3.65113974E-02  2.37152983E-01  8.19701941E-01  1.00000000E+00  1.00000000E+00
  0.00000000E+00  0.00000000E+00  0.00000000E+00  0.00000000E+00  0.00000000E+00
  0.00000000E+00  0.00000000E+00  4.02486927E-02  2.37593957E-01  8.15853851E-01
  1.00000000E+00  1.00000000E+00  0.00000000E+00  0.00000000E+00  0.00000000E+00
  0.00000000E+00  0.00000000E+00  0.00000000E+00  0.00000000E+00  4.02486927E-02
  2.37593957E-01  8.15853851E-01  1.00000000E+00  1.00000000E+00  0.00000000E+00
  0.00000000E+00  0.00000000E+00  0.00000000E+00  0.00000000E+00  0.00000000E+00
  0.00000000E+00  0.00000000E+00  0.00000000E+00  0.00000000E+00  0.00000000E+00
  0.00000000E+00  0.00000000E+00  0.00000000E+00  0.00000000E+00  0.00000000E+00
  0.00000000E+00  0.00000000E+00  0.00000000E+00  0.00000000E+00  0.00000000E+00
  0.00000000E+00  0.00000000E+00  0.00000000E+00  0.00000000E+00  0.00000000E+00
  0.00000000E+00  0.00000000E+00  0.00000000E+00  0.00000000E+00  0.00000000E+00
  0.00000000E+00  0.00000000E+00  0.00000000E+00  0.00000000E+00  0.00000000E+00
  0.00000000E+00
Coordinates of each shell                  R   N=         198
  5.89026604E-05  1.15686179E+00  8.30316590E-05  5.89026604E-05  1.15686179E+00
  8.30316590E-05  5.89026604E-05  1.15686179E+00  8.30316590E-05  5.89026604E-05
  1.15686179E+00  8.30316590E-05  5.89026604E-05  1.15686179E+00  8.30316590E-05
  5.89026604E-05  1.15686179E+00  8.30316590E-05  5.89026604E-05  1.15686179E+00
  8.30316590E-05  5.89026604E-05  1.15686179E+00  8.30316590E-05  5.89026604E-05
  1.15686179E+00  8.30316590E-05  5.89026604E-05  1.15686179E+00  8.30316590E-05
  5.89026604E-05  1.15686179E+00  8.30316590E-05  5.89026604E-05  1.15686179E+00
  8.30316590E-05  1.79523269E+00 -9.03740851E-01  1.57612974E+00  1.79523269E+00
 -9.03740851E-01  1.57612974E+00  1.79523269E+00 -9.03740851E-01  1.57612974E+00
  1.79523269E+00 -9.03740851E-01  1.57612974E+00  1.79523269E+00 -9.03740851E-01
  1.57612974E+00 -1.79518838E+00 -9.03782602E-01 -1.57619801E+00 -1.79518838E+00
 -9.03782602E-01 -1.57619801E+00 -1.79518838E+00 -9.03782602E-01 -1.57619801E+00
 -1.79518838E+00 -9.03782602E-01 -1.57619801E+00 -1.79518838E+00 -9.03782602E-01
 -1.57619801E+00  1.57124518E+00  2.43229473E+00 -1.95958942E+00  1.57124518E+00
  2.43229473E+00 -1.95958942E+00  1.57124518E+00  2.43229473E+00 -1.95958942E+00
  1.57124518E+00  2.43229473E+00 -1.95958942E+00  1.57124518E+00  2.43229473E+00
 -1.95958942E+00 -1.57153190E+00  2.43203757E+00  1.95958352E+00 -1.57153190E+00
  2.43203757E+00  1.95958352E+00 -1.57153190E+00  2.43203757E+00  1.95958352E+00
 -1.57153190E+00  2.43203757E+00  1.95958352E+00 -1.57153190E+00  2.43203757E+00
  1.95958352E+00  3.60752358E+00 -2.20019871E+00  1.36320947E-01  3.60752358E+00
 -2.20019871E+00  1.36320947E-01  3.60752358E+00 -2.20019871E+00  1.36320947E-01
  3.60752358E+00 -2.20019871E+00  1.36320947E-01  3.60752358E+00 -2.20019871E+00
  1.36320947E-01 -3.60737899E+00 -2.20025198E+00 -1.36383541E-01 -3.60737899E+00
 -2.20025198E+00 -1.36383541E-01 -3.60737899E+00 -2.20025198E+00 -1.36383541E-01
 -3.60737899E+00 -2.20025198E+00 -1.36383541E-01 -3.60737899E+00 -2.20025198E+00
 -1.36383541E-01  2.74317423E+00 -3.18501441E+00 -1.47666424E+00  2.74317423E+00
 -3.18501441E+00 -1.47666424E+00  2.74317423E+00 -3.18501441E+00 -1.47666424E+00
  2.74317423E+00 -3.18501441E+00 -1.47666424E+00  4.50648527E+00 -3.60745693E+00
  1.36952788E+00  4.50648527E+00 -3.60745693E+00  1.36952788E+00  4.50648527E+00
 -3.60745693E+00  1.36952788E+00  4.50648527E+00 -3.60745693E+00  1.36952788E+00
  5.04912188E+00 -9.09591284E-01 -6.09026724E-01  5.04912188E+00 -9.09591284E-01
 -6.09026724E-01  5.04912188E+00 -9.09591284E-01 -6.09026724E-01  5.04912188E+00
 -9.09591284E-01 -6.09026724E-01 -5.05017928E+00 -9.10130352E-01  6.07389988E-01
 -5.05017928E+00 -9.10130352E-01  6.07389988E-01 -5.05017928E+00 -9.10130352E-01
  6.07389988E-01 -5.05017928E+00 -9.10130352E-01  6.07389988E-01 -2.74333379E+00
 -3.18356904E+00  1.47761832E+00 -2.74333379E+00 -3.18356904E+00  1.47761832E+00
 -2.74333379E+00 -3.18356904E+00  1.47761832E+00 -2.74333379E+00 -3.18356904E+00
  1.47761832E+00 -4.50508009E+00 -3.60893136E+00 -1.36912182E+00 -4.50508009E+00
 -3.60893136E+00 -1.36912182E+00 -4.50508009E+00 -3.60893136E+00 -1.36912182E+00
 -4.50508009E+00 -3.60893136E+00 -1.36912182E+00
Constraint Structure                       R   N=          39
  5.89026604E-05  1.15686179E+00  8.30316590E-05  1.79523269E+00 -9.03740851E-01
  1.57612974E+00 -1.79518838E+00 -9.03782602E-01 -1.57619801E+00  1.57124518E+00
  2.43229473E+00 -1.95958942E+00 -1.57153190E+00  2.43203757E+00  1.95958352E+00
  3.60752358E+00 -2.20019871E+00  1.36320947E-01 -3.60737899E+00 -2.20025198E+00
 -1.36383541E-01  2.74317423E+00 -3.18501441E+00 -1.47666424E+00  4.50648527E+00
 -3.60745693E+00  1.36952788E+00  5.04912188E+00 -9.09591284E-01 -6.09026724E-01
 -5.05017928E+00 -9.10130352E-01  6.07389988E-01 -2.74333379E+00 -3.18356904E+00
  1.47761832E+00 -4.50508009E+00 -3.60893136E+00 -1.36912182E+00
Num ILSW                                   I              100
ILSW                                       I   N=         100
           0           0           0           0           2           0
           0           0           0           0           0 13421772800
           0           0           0           0           0           0
           0           0           0           0           0           0
           1           0           0           0           0           0
           0           0      100000           0          -1           0
           0           0           0           0           0           0
           0           0           0           1           0           0
           0           0           1           0           0           0
           0           0           4          40           0           0
           0           0           0           0           0           0
           0           0           0           0           0           0
           0           0           0           0           0           0
           0           0           0           0           0           0
           0           0           0           0           0           0
           0           0           0           0           0           0
           0           0           0           0
Num RLSW                                   I               40
RLSW                                       R   N=          40
  1.00000000E+00  1.00000000E+00  1.00000000E+00  1.00000000E+00  1.00000000E+00
  0.00000000E+00  0.00000000E+00  1.00000000E+00  0.00000000E+00  0.00000000E+00
  0.00000000E+00  0.00000000E+00  1.00000000E+00  0.00000000E+00  0.00000000E+00
  0.00000000E+00  0.00000000E+00  1.00000000E+00  0.00000000E+00  0.00000000E+00
  0.00000000E+00  0.00000000E+00  1.00000000E+00  0.00000000E+00  0.00000000E+00
  0.00000000E+00  0.00000000E+00  1.00000000E+00  0.00000000E+00  0.00000000E+00
  0.00000000E+00  0.00000000E+00  0.00000000E+00  0.00000000E+00  0.00000000E+00
  0.00000000E+00  0.00000000E+00  0.00000000E+00  1.00000000E+00  1.00000000E+00
MxBond                                     I                4
NBond                                      I   N=          13
           4           2           2           1           1           4
           4           1           1           1           1           1
           1
IBond                                      I   N=          52
           2           3           4           5           1           6
           0           0           1           7           0           0
           1           0           0           0           1           0
           0           0           2           8           9          10
           3          11          12          13           6           0
           0           0           6           0           0           0
           6           0           0           0           7           0
           0           0           7           0           0           0
           7           0           0           0
RBond                                      R   N=          52
  1.00000000E+00  1.00000000E+00  2.00000000E+00  2.00000000E+00  1.00000000E+00
  1.00000000E+00  0.00000000E+00  0.00000000E+00  1.00000000E+00  1.00000000E+00
  0.00000000E+00  0.00000000E+00  2.00000000E+00  0.00000000E+00  0.00000000E+00
  0.00000000E+00  2.00000000E+00  0.00000000E+00  0.00000000E+00  0.00000000E+00
  1.00000000E+00  1.00000000E+00  1.00000000E+00  1.00000000E+00  1.00000000E+00
  1.00000000E+00  1.00000000E+00  1.00000000E+00  1.00000000E+00  0.00000000E+00
  0.00000000E+00  0.00000000E+00  1.00000000E+00  0.00000000E+00  0.00000000E+00
  0.00000000E+00  1.00000000E+00  0.00000000E+00  0.00000000E+00  0.00000000E+00
  1.00000000E+00  0.00000000E+00  0.00000000E+00  0.00000000E+00  1.00000000E+00
  0.00000000E+00  0.00000000E+00  0.00000000E+00  1.00000000E+00  0.00000000E+00
  0.00000000E+00  0.00000000E+00
Virial Ratio                               R      2.000418747393199E+00
SCF Energy                                 R     -7.196417675628170E+02
MP2 Energy                                 R     -7.208578906154173E+02
Total Energy                               R     -7.208578906154173E+02
Post-SCF wavefunction norm                 R      1.157383416600358E+00
RMS Density                                R      4.828050463439332E-09
External E-field                           R   N=          35
  0.00000000E+00  0.00000000E+00  0.00000000E+00  0.00000000E+00  0.00000000E+00
  0.00000000E+00  0.00000000E+00  0.00000000E+00  0.00000000E+00  0.00000000E+00
  0.00000000E+00  0.00000000E+00  0.00000000E+00  0.00000000E+00  0.00000000E+00
  0.00000000E+00  0.00000000E+00  0.00000000E+00  0.00000000E+00  0.00000000E+00
  0.00000000E+00  0.00000000E+00  0.00000000E+00  0.00000000E+00  0.00000000E+00
  0.00000000E+00  0.00000000E+00  0.00000000E+00  0.00000000E+00  0.00000000E+00
  0.00000000E+00  0.00000000E+00  0.00000000E+00  0.00000000E+00  0.00000000E+00
IOpCl                                      I                0
IROHF                                      I                0
Alpha Orbital Energies                     R   N=         170
 -7.98761280E+01 -2.03915764E+01 -2.03915375E+01 -2.02971304E+01 -2.02971126E+01
 -1.11306608E+01 -1.11306400E+01 -7.39917986E+00 -5.29748593E+00 -5.29707714E+00
 -5.29684188E+00 -1.23798270E+00 -1.18725749E+00 -1.10659468E+00 -1.06855644E+00
 -7.85173052E-01 -7.75540789E-01 -5.88146131E-01 -5.22909356E-01 -4.95903769E-01
 -4.78702607E-01 -4.62982328E-01 -4.56666883E-01 -4.22931424E-01 -3.70478669E-01
 -3.57357828E-01 -3.30661116E-01 -3.01166718E-01 -2.91081320E-01 -2.85315456E-01
 -2.63329305E-01 -2.51860883E-01 -2.36607215E-01  2.90202192E-01  3.06328815E-01
  3.48477551E-01  3.55387412E-01  3.73714036E-01  3.78491611E-01  4.09851403E-01
  4.32299780E-01  4.46484520E-01  4.72967246E-01  5.09506537E-01  5.64887754E-01
  5.94544001E-01  5.99543836E-01  6.29138792E-01  6.32844569E-01  6.38330564E-01
  6.66454123E-01  7.11217999E-01  8.10951319E-01  8.37084684E-01  8.52006228E-01
  9.08024183E-01  9.14188805E-01  9.24998001E-01  9.28897406E-01  9.42248908E-01
  9.67687061E-01  1.04649996E+00  1.04824425E+00  1.07732293E+00  1.14152986E+00
  1.16838025E+00  1.17394673E+00  1.22782010E+00  1.24477133E+00  1.24960704E+00
  1.34009802E+00  1.36301176E+00  1.37383695E+00  1.39709270E+00  1.42216287E+00
  1.45198616E+00  1.48139940E+00  1.49049688E+00  1.55541927E+00  1.59009192E+00
  1.65244248E+00  1.65362268E+00  1.67495074E+00  1.70383591E+00  1.78376040E+00
  1.79989661E+00  1.84526461E+00  1.86029045E+00  1.87366867E+00  1.89711536E+00
  1.90777500E+00  1.91970346E+00  1.97359278E+00  2.00205682E+00  2.03269662E+00
  2.03744673E+00  2.07403043E+00  2.08020308E+00  2.09427450E+00  2.13373605E+00
  2.19618006E+00  2.23307869E+00  2.35998441E+00  2.44699016E+00  2.44944596E+00
  2.53461753E+00  2.54456028E+00  2.55420313E+00  2.58105244E+00  2.77969409E+00
  2.80426099E+00  2.86347441E+00  2.89170391E+00  2.94664372E+00  2.95048873E+00
  2.95306500E+00  2.96395139E+00  2.97074164E+00  2.99324765E+00  3.23541978E+00
  3.26656489E+00  3.36456177E+00  3.43144984E+00  3.43858882E+00  3.44048365E+00
  3.44607680E+00  3.46900204E+00  3.47674402E+00  3.49213891E+00  3.54320919E+00
  3.55508405E+00  3.61090192E+00  3.66157166E+00  3.69037300E+00  3.70732463E+00
  3.72955821E+00  3.75677102E+00  3.83051022E+00  3.93259151E+00  4.12810967E+00
  4.14530108E+00  4.28862982E+00  4.32032593E+00  4.34156274E+00  4.34711757E+00
  4.56479522E+00  4.62277418E+00  5.58246781E+00  5.60272640E+00  5.63696742E+00
  5.64694585E+00  5.65749178E+00  5.67217830E+00  5.68165187E+00  5.77474579E+00
  5.89444673E+00  5.98601678E+00  6.20581255E+00  6.24063950E+00  7.87758243E+00
  1.49831009E+01  1.51115386E+01  1.53293109E+01  2.51520261E+01  2.51559058E+01
  5.17016290E+01  5.17366522E+01  5.17442217E+01  5.18377486E+01  1.66399903E+02
Alpha MO coefficients                      R   N=       28900
  4.19272111E-01  6.46642454E-01  1.07517315E-02 -1.06512920E-03  4.60673295E-04
 -1.60756412E-04  1.30135006E-08 -6.91565313E-05  3.40164311E-09 -4.52422771E-09
  2.44470047E-05 -3.45975808E-10  6.65582961E-09 -2.12965341E-05 -1.82845064E-09
 -1.56469767E-08  2.97954230E-05  1.07472874E-08  4.45551277E-09  4.76712334E-05
  3.54734838E-09  3.62160042E-06 -1.72841106E-05 -3.87161725E-09  3.27503772E-06
 -5.33137811E-09  5.41332963E-07 -7.27728326E-07 -2.78013090E-06  2.66693380E-06
 -5.39001384E-07  1.62381356E-05  8.17692087E-06 -6.99234246E-06 -3.70144356E-07
 -5.41476155E-05 -1.25405978E-05 -5.49817925E-06  4.31525560E-05  8.13181231E-08
 -4.30412921E-06  7.74930168E-06  9.03950126E-07  1.13378029E-05  5.41406798E-07
 -7.28765609E-07  2.77818798E-06  2.66615145E-06  5.38660046E-07  1.62397956E-05
 -8.17062080E-06 -6.98888170E-06  3.72132646E-07 -5.41464245E-05  1.25478279E-05
 -5.48960714E-06 -4.31508047E-05  7.96612884E-08 -4.30192796E-06 -7.74741689E-06
  9.03240138E-07 -1.13341438E-05  1.05013986E-07  1.71893389E-06 -3.60599446E-06
 -2.93472425E-06  3.40254909E-06  8.35938847E-06  1.64551666E-05  1.29884492E-05
 -1.67336409E-05 -5.16878582E-05  2.03376639E-05  1.49534365E-05 -3.45573194E-05
 -4.81486720E-06  1.54269146E-05  1.29728204E-05 -1.39510200E-06 -9.36263041E-06
  1.05134028E-07  1.71825074E-06  3.60756447E-06 -2.93361024E-06 -3.40257496E-06
  8.36445274E-06 -1.64618222E-05  1.29841717E-05  1.67336084E-05 -5.17088735E-05
 -2.03453877E-05  1.49611855E-05  3.45610396E-05 -4.81219998E-06  1.54302495E-05
 -1.29705394E-05 -1.39947175E-06  9.36379076E-06 -1.22943964E-07  2.38572472E-07
  2.00938519E-06 -1.81290432E-06 -2.47128260E-07 -9.51185330E-06 -7.20924201E-06
  7.07391759E-06  1.49223803E-06  8.15215463E-05 -3.82490327E-05  4.45249934E-05
 -1.99166343E-05 -5.08823128E-06 -1.67414125E-06  3.48481044E-06  1.27788864E-06
 -3.63126102E-06 -1.22703212E-07  2.37866194E-07 -2.00912029E-06 -1.81370857E-06
  2.47539782E-07 -9.50754957E-06  7.20519527E-06  7.07972449E-06 -1.49520846E-06
  8.15243715E-05  3.82338064E-05  4.45320926E-05  1.98972753E-05 -5.08655109E-06
 -1.67308404E-06 -3.48618919E-06  1.28250191E-06  3.63195231E-06  1.82107839E-06
 -2.21591556E-05  6.66214881E-06 -6.19430705E-07 -3.68403938E-06  6.50121675E-07
 -4.61107752E-07  1.04835816E-05  9.74503455E-06  5.09341264E-07  8.46254358E-07
 -2.14545139E-06  2.26591216E-06 -2.32110368E-05 -7.68530322E-07  4.50653112E-06
 -1.01276739E-06  1.85913653E-06  2.26811315E-06 -2.32098545E-05 -7.61152904E-07
 -4.51109397E-06 -1.01902788E-06 -1.86017452E-06  1.81976155E-06 -2.21556827E-05
  6.66672088E-06  6.23260396E-07 -3.67865678E-06 -6.48321638E-07 -4.60585718E-07
  1.04778188E-05  9.73858398E-06 -5.13831372E-07  8.49839425E-07  2.14398379E-06
  1.82005349E-06  4.47875955E-06 -4.10233425E-06 -4.09426533E-05  7.10057125E-06
  4.47186959E-04 -5.80326287E-06  5.27571595E-06 -4.40696285E-06 -2.41628920E-05
  1.56424887E-05 -2.06103046E-05  3.00264812E-05 -1.09812328E-05  4.06704764E-05
  1.59420605E-04 -1.20863389E-04  4.42317239E-05  3.36267657E-06 -1.22160563E-04
  1.20218569E-04 -1.97868853E-05  3.36652891E-05 -5.69525903E-05 -4.64479342E-06
 -7.10874513E-05  5.40822048E-01  4.62560009E-01  3.46220822E-04  1.31498815E-05
 -1.42924924E-03  5.54775041E-03 -1.81749369E-04  4.58476678E-05  5.00437939E-04
 -8.02062618E-04  3.80361063E-05 -3.30623613E-05 -1.63030525E-05  8.12201550E-06
  6.37369149E-05 -2.70758255E-05 -2.08934662E-05  1.26639695E-04 -1.07773087E-01