
    -----------------------------------------------------------------------
          Psi4: An Open-Source Ab Initio Electronic Structure Package
                               Psi4 1.3.2 release

                         Git: Rev {HEAD} ecbda83 


    R. M. Parrish, L. A. Burns, D. G. A. Smith, A. C. Simmonett,
    A. E. DePrince III, E. G. Hohenstein, U. Bozkaya, A. Yu. Sokolov,
    R. Di Remigio, R. M. Richard, J. F. Gonthier, A. M. James,
    H. R. McAlexander, A. Kumar, M. Saitow, X. Wang, B. P. Pritchard,
    P. Verma, H. F. Schaefer III, K. Patkowski, R. A. King, E. F. Valeev,
    F. A. Evangelista, J. M. Turney, T. D. Crawford, and C. D. Sherrill,
    J. Chem. Theory Comput. 13(7) pp 3185--3197 (2017).
    (doi: 10.1021/acs.jctc.7b00174)


                         Additional Contributions by
    P. Kraus, H. Kruse, M. H. Lechner, M. C. Schieber, R. A. Shaw,
    A. Alenaizan, R. Galvelis, Z. L. Glick, S. Lehtola, and J. P. Misiewicz

    -----------------------------------------------------------------------


    Psi4 started on: Tuesday, 09 November 2021 09:49AM

    Process ID: 64182
    Host:       node44.bme.utexas.edu
    PSIDATADIR: /home/bdw2292/miniconda3/envs/amoebamdpoltype/share/psi4
    Memory:     500.0 MiB
    Threads:    1
    
  ==> Input File <==

--------------------------------------------------------------------------
molecule { 
0 1
O         -4.29600        0.70990        0.04690
C         -4.15550       -0.51950       -0.13450
N         -2.88880       -1.10540       -0.07100
C         -1.67290       -0.44230        0.21710
C         -2.79090       -2.55700       -0.33120
C         -0.45250       -0.99130       -0.17810
C          0.81870        0.79670        0.73960
C          0.76840       -0.39010        0.07510
C         -0.38080        1.37730        1.15150
C         -1.58120        0.75890        0.88810
C         -5.39960       -1.30330       -0.41360
H         -2.17240       -3.04390        0.42450
H         -2.33400       -2.65370       -1.32860
H         -3.80720       -3.03690       -0.27370
H         -0.49600       -1.93920       -0.70890
H          1.69470       -0.88110       -0.25600
H         -0.33620        2.31250        1.67300
H         -2.48410        1.26410        1.24600
H         -5.54410       -2.13730        0.30810
H         -5.24070       -1.74240       -1.43810
N          2.01500        1.48570        1.02620
N         -6.53810       -0.48150       -0.39510
H          2.04670        2.35900        1.59500
H          2.86020        1.12530        0.67260
H         -6.66320       -0.09490        0.54050
H         -7.35880       -1.03180       -0.64810
}
memory 100GB
set_num_threads(12)
psi4_io.set_default_path("/scratch/bdw2292/Psi4-farH_in17")
set maxiter 500
set freeze_core True
set PROPERTIES_ORIGIN ["COM"]
set cubeprop_tasks ['esp']
E, wfn = properties('hf/MINIX',properties=['dipole'],return_wfn=True)
cubeprop(wfn)
fchk(wfn, "farH_in17-esp_frag.fchk")
oeprop(wfn,"WIBERG_LOWDIN_INDICES","MULLIKEN_CHARGES")
clean()
--------------------------------------------------------------------------

  Memory set to  93.132 GiB by Python driver.
  Threads set to 12 by Python driver.

*** tstart() called on node44.bme.utexas.edu
*** at Tue Nov  9 09:49:46 2021

   => Loading Basis Set <=

    Name: MINIX
    Role: ORBITAL
    Keyword: BASIS
    atoms 1            entry O          line   102 file /home/bdw2292/miniconda3/envs/amoebamdpoltype/share/psi4/basis/minix.gbs 
    atoms 2, 4-11      entry C          line    74 file /home/bdw2292/miniconda3/envs/amoebamdpoltype/share/psi4/basis/minix.gbs 
    atoms 3, 21-22     entry N          line    88 file /home/bdw2292/miniconda3/envs/amoebamdpoltype/share/psi4/basis/minix.gbs 
    atoms 12-20, 23-26 entry H          line    24 file /home/bdw2292/miniconda3/envs/amoebamdpoltype/share/psi4/basis/minix.gbs 


         ---------------------------------------------------------
                                   SCF
               by Justin Turney, Rob Parrish, Andy Simmonett
                          and Daniel G. A. Smith
                              RHF Reference
                       12 Threads,  95367 MiB Core
         ---------------------------------------------------------

  ==> Geometry <==

    Molecular point group: c1
    Full point group: C1

    Geometry (in Angstrom), charge = 0, multiplicity = 1:

       Center              X                  Y                   Z               Mass       
    ------------   -----------------  -----------------  -----------------  -----------------
         O           -2.170286783936     0.927001556080    -0.146179764141    15.994914619570
         C           -2.029786783936    -0.302398443920    -0.327579764141    12.000000000000
         N           -0.763086783936    -0.888298443920    -0.264079764141    14.003074004430
         C            0.452813216064    -0.225198443920     0.024020235859    12.000000000000
         C           -0.665186783936    -2.339898443920    -0.524279764141    12.000000000000
         C            1.673213216064    -0.774198443920    -0.371179764141    12.000000000000
         C            2.944413216064     1.013801556080     0.546520235859    12.000000000000
         C            2.894113216064    -0.172998443920    -0.117979764141    12.000000000000
         C            1.744913216064     1.594401556080     0.958420235859    12.000000000000
         C            0.544513216064     0.976001556080     0.695020235859    12.000000000000
         C           -3.273886783936    -1.086198443920    -0.606679764141    12.000000000000
         H           -0.046686783936    -2.826798443920     0.231420235859     1.007825032230
         H           -0.208286783936    -2.436598443920    -1.521679764141     1.007825032230
         H           -1.681486783936    -2.819798443920    -0.466779764141     1.007825032230
         H            1.629713216064    -1.722098443920    -0.901979764141     1.007825032230
         H            3.820413216064    -0.663998443920    -0.449079764141     1.007825032230
         H            1.789513216064     2.529601556080     1.479920235859     1.007825032230
         H           -0.358386783936     1.481201556080     1.052920235859     1.007825032230
         H           -3.418386783936    -1.920198443920     0.115020235859     1.007825032230
         H           -3.114986783936    -1.525298443920    -1.631179764141     1.007825032230
         N            4.140713216064     1.702801556080     0.833120235859    14.003074004430
         N           -4.412386783936    -0.264398443920    -0.588179764141    14.003074004430
         H            4.172413216064     2.576101556080     1.401920235859     1.007825032230
         H            4.985913216064     1.342401556080     0.479520235859     1.007825032230
         H           -4.537486783936     0.122201556080     0.347420235859     1.007825032230
         H           -5.233086783936    -0.814698443920    -0.841179764141     1.007825032230

  Running in c1 symmetry.

  Rotational constants: A =      0.07505  B =      0.01294  C =      0.01121 [cm^-1]
  Rotational constants: A =   2250.03167  B =    388.07014  C =    336.05035 [MHz]
  Nuclear repulsion =  776.521800591260671

  Charge       = 0
  Multiplicity = 1
  Electrons    = 96
  Nalpha       = 48
  Nbeta        = 48

  ==> Algorithm <==

  SCF Algorithm Type is DF.
  DIIS enabled.
  MOM disabled.
  Fractional occupation disabled.
  Guess Type is SAD.
  Energy threshold   = 1.00e-06
  Density threshold  = 1.00e-06
  Integral threshold = 0.00e+00

  ==> Primary Basis <==

  Basis Set: MINIX
    Blend: MINIX
    Number of shells: 52
    Number of basis function: 78
    Number of Cartesian functions: 78
    Spherical Harmonics?: true
    Max angular momentum: 1

   => Loading Basis Set <=

    Name: (MINIX AUX)
    Role: JKFIT
    Keyword: DF_BASIS_SCF
    atoms 1            entry O          line   323 file /home/bdw2292/miniconda3/envs/amoebamdpoltype/share/psi4/basis/def2-svp-jkfit.gbs 
    atoms 2, 4-11      entry C          line   203 file /home/bdw2292/miniconda3/envs/amoebamdpoltype/share/psi4/basis/def2-svp-jkfit.gbs 
    atoms 3, 21-22     entry N          line   263 file /home/bdw2292/miniconda3/envs/amoebamdpoltype/share/psi4/basis/def2-svp-jkfit.gbs 
    atoms 12-20, 23-26 entry H          line    23 file /home/bdw2292/miniconda3/envs/amoebamdpoltype/share/psi4/basis/def2-svp-jkfit.gbs 

  ==> Pre-Iterations <==

   -------------------------------------------------------
    Irrep   Nso     Nmo     Nalpha   Nbeta   Ndocc  Nsocc
   -------------------------------------------------------
     A         78      78       0       0       0       0
   -------------------------------------------------------
    Total      78      78      48      48      48       0
   -------------------------------------------------------

  ==> Integral Setup <==

  DFHelper Memory: AOs need 0.063 GiB; user supplied 69.849 GiB. Using in-core AOs.

  ==> MemDFJK: Density-Fitted J/K Matrices <==

    J tasked:                   Yes
    K tasked:                   Yes
    wK tasked:                   No
    OpenMP threads:              12
    Memory [MiB]:             71525
    Algorithm:                 Core
    Schwarz Cutoff:           1E-12
    Mask sparsity (%):       9.4346
    Fitting Condition:        1E-10

   => Auxiliary Basis Set <=

  Basis Set: (MINIX AUX)
    Blend: DEF2-SVP-JKFIT
    Number of shells: 403
    Number of basis function: 1217
    Number of Cartesian functions: 1433
    Spherical Harmonics?: true
    Max angular momentum: 4

  Minimum eigenvalue in the overlap matrix is 1.6477988962E-01.
  Using Symmetric Orthogonalization.

  SCF Guess: Superposition of Atomic Densities via on-the-fly atomic UHF.

  ==> Iterations <==

                           Total Energy        Delta E     RMS |[F,P]|

   @DF-RHF iter SAD:  -576.32932780426063   -5.76329e+02   0.00000e+00 
   @DF-RHF iter   1:  -582.29400855709559   -5.96468e+00   6.89492e-03 DIIS
   @DF-RHF iter   2:  -582.42207792207898   -1.28069e-01   5.34212e-03 DIIS
   @DF-RHF iter   3:  -582.51183847863081   -8.97606e-02   5.47014e-04 DIIS
   @DF-RHF iter   4:  -582.51434794820761   -2.50947e-03   2.47458e-04 DIIS
   @DF-RHF iter   5:  -582.51475123704461   -4.03289e-04   7.82361e-05 DIIS
   @DF-RHF iter   6:  -582.51481069729152   -5.94602e-05   3.34700e-05 DIIS
   @DF-RHF iter   7:  -582.51481951697303   -8.81968e-06   1.08994e-05 DIIS
   @DF-RHF iter   8:  -582.51482053153961   -1.01457e-06   3.56987e-06 DIIS
   @DF-RHF iter   9:  -582.51482064126640   -1.09727e-07   1.02037e-06 DIIS
   @DF-RHF iter  10:  -582.51482065175787   -1.04915e-08   3.72692e-07 DIIS
  Energy and wave function converged.


  ==> Post-Iterations <==

    Orbital Energies [Eh]
    ---------------------

    Doubly Occupied:                                                      

       1A    -20.270972     2A    -15.445737     3A    -15.381420  
       4A    -15.368590     5A    -11.305217     6A    -11.226042  
       7A    -11.217962     8A    -11.214609     9A    -11.207105  
      10A    -11.165244    11A    -11.161732    12A    -11.157891  
      13A    -11.151364    14A     -1.357118    15A     -1.238770  
      16A     -1.196313    17A     -1.188731    18A     -1.117268  
      19A     -1.014778    20A     -0.999846    21A     -0.954537  
      22A     -0.927394    23A     -0.832791    24A     -0.813554  
      25A     -0.745674    26A     -0.704006    27A     -0.687862  
      28A     -0.674720    29A     -0.660214    30A     -0.639439  
      31A     -0.627509    32A     -0.613213    33A     -0.591880  
      34A     -0.579564    35A     -0.577703    36A     -0.562763  
      37A     -0.547291    38A     -0.544744    39A     -0.533441  
      40A     -0.503284    41A     -0.499398    42A     -0.471802  
      43A     -0.446399    44A     -0.384022    45A     -0.370854  
      46A     -0.364034    47A     -0.344558    48A     -0.264715  

    Virtual:                                                              

      49A      0.193945    50A      0.206058    51A      0.261386  
      52A      0.456471    53A      0.469697    54A      0.517396  
      55A      0.530175    56A      0.565265    57A      0.597726  
      58A      0.621236    59A      0.630181    60A      0.650640  
      61A      0.665597    62A      0.670034    63A      0.691093  
      64A      0.695083    65A      0.711892    66A      0.721544  
      67A      0.731099    68A      0.743109    69A      0.755699  
      70A      0.779545    71A      0.815261    72A      0.863762  
      73A      0.899680    74A      0.916258    75A      0.944832  
      76A      0.953647    77A      1.104149    78A      1.146472  

    Final Occupation by Irrep:
              A 
    DOCC [    48 ]

  @DF-RHF Final Energy:  -582.51482065175787

   => Energetics <=

    Nuclear Repulsion Energy =            776.5218005912606714
    One-Electron Energy =               -2334.3651208067199150
    Two-Electron Energy =                 975.3284995637013708
    Total Energy =                       -582.5148206517578728

Computation Completed


Properties will be evaluated at   0.000000,  -0.000000,  -0.000000 [a0]

Properties computed using the HF density matrix

  Nuclear Dipole Moment: [e a0]
     X:    -2.0706      Y:    -6.2575      Z:    -0.6604

  Electronic Dipole Moment: [e a0]
     X:     2.4721      Y:     4.7271      Z:     1.0316

  Dipole Moment: [e a0]
     X:     0.4015      Y:    -1.5304      Z:     0.3712     Total:     1.6252

  Dipole Moment: [D]
     X:     1.0205      Y:    -3.8899      Z:     0.9435     Total:     4.1308


*** tstop() called on node44.bme.utexas.edu at Tue Nov  9 09:49:50 2021
Module time:
	user time   =      26.30 seconds =       0.44 minutes
	system time =       1.70 seconds =       0.03 minutes
	total time  =          4 seconds =       0.07 minutes
Total time:
	user time   =      26.30 seconds =       0.44 minutes
	system time =       1.70 seconds =       0.03 minutes
	total time  =          4 seconds =       0.07 minutes
  ==> One Electron Grid Properties (v2.0) <==

  ==> CubicScalarGrid <==

    Filepath     = .
    Total Points =           911214
    XYZ Blocking =               10
    X Points     =              138
    Y Points     =               93
    Z Points     =               71
    X Spacing    =        2.000E-01
    Y Spacing    =        2.000E-01
    Z Spacing    =        2.000E-01
    X Minimum    =       -1.393E+01
    Y Minimum    =       -9.437E+00
    Z Minimum    =       -7.143E+00
    X Maximum    =        1.347E+01
    Y Maximum    =        8.963E+00
    Z Maximum    =        6.857E+00

  Basis Set: MINIX
    Blend: MINIX
    Number of shells: 52
    Number of basis function: 78
    Number of Cartesian functions: 78
    Spherical Harmonics?: true
    Max angular momentum: 1



Properties will be evaluated at   0.000000,  -0.000000,  -0.000000 [a0]
OEProp: No title given, name of density matrix used for the following properties is 'SCF density'
  Mulliken Charges: (a.u.)
   Center  Symbol    Alpha    Beta     Spin     Total
       1     O     4.20687  4.20687  0.00000 -0.41374
       2     C     2.80943  2.80943  0.00000  0.38114
       3     N     3.65936  3.65936  0.00000 -0.31872
       4     C     2.96114  2.96114  0.00000  0.07772
       5     C     3.11991  3.11991  0.00000 -0.23982
       6     C     3.06687  3.06687  0.00000 -0.13374
       7     C     2.94822  2.94822  0.00000  0.10356
       8     C     3.08613  3.08613  0.00000 -0.17227
       9     C     3.08006  3.08006  0.00000 -0.16012
      10     C     3.06423  3.06423  0.00000 -0.12846
      11     C     3.07673  3.07673  0.00000 -0.15346
      12     H     0.43034  0.43034  0.00000  0.13931
      13     H     0.43298  0.43298  0.00000  0.13403
      14     H     0.43089  0.43089  0.00000  0.13822
      15     H     0.43406  0.43406  0.00000  0.13188
      16     H     0.43320  0.43320  0.00000  0.13359
      17     H     0.43372  0.43372  0.00000  0.13257
      18     H     0.41565  0.41565  0.00000  0.16869
      19     H     0.44043  0.44043  0.00000  0.11915
      20     H     0.42676  0.42676  0.00000  0.14649
      21     N     3.75279  3.75279  0.00000 -0.50558
      22     N     3.74418  3.74418  0.00000 -0.48836
      23     H     0.37897  0.37897  0.00000  0.24207
      24     H     0.38220  0.38220  0.00000  0.23560
      25     H     0.38953  0.38953  0.00000  0.22095
      26     H     0.39535  0.39535  0.00000  0.20930

   Total alpha = 48.00000, Total beta = 48.00000, Total charge = -0.00000



  Wiberg Bond Indices using Orthogonal Lowdin Orbitals:

  Irrep: 1 Size: 26 x 26

                 1                   2                   3                   4                   5

    1     0.00000000000000     1.79776514409620     0.14035288418552     0.00269672401625     0.00985965470582
    2     1.79776514409620     0.00000000000000     1.11963393293310     0.00177560806512     0.00158022535264
    3     0.14035288418552     1.11963393293310     0.00000000000000     1.03464839139402     0.98906268937067
    4     0.00269672401625     0.00177560806512     1.03464839139402     0.00000000000000     0.00153310642530
    5     0.00985965470582     0.00158022535264     0.98906268937067     0.00153310642530     0.00000000000000
    6     0.00646167154097     0.00984128798279     0.02497486740487     1.40090072992371     0.00351621587422
    7     0.00351698103589     0.00201830440261     0.00889699192563     0.09037685982677     0.00044149793441
    8     0.00023864631192     0.00081088817604     0.00595982403294     0.00805662802228     0.00032435439357
    9     0.00081050695253     0.00016032784680     0.00681341118363     0.00556907764329     0.00060029977863
   10     0.00997445742642     0.00476888330970     0.02179541535281     1.37462498877413     0.00686235421092
   11     0.03437016654549     0.98635765385546     0.00526451952647     0.00720042735627     0.00271918284799
   12     0.00187540269948     0.00383546346115     0.00541321816947     0.00080856209009     0.97699209439855
   13     0.00260790594660     0.00293483771326     0.00777566511770     0.00042371341698     0.97557935325064
   14     0.00053368334001     0.00162908587893     0.00086810230633     0.00504775984258     0.97563927279098
   15     0.00002930971566     0.00013607031251     0.00372878782136     0.00057397032177     0.00174012328079
   16     0.00001660134135     0.00016960289629     0.00034143017982     0.00721166742974     0.00004651299608
   17     0.00006253499657     0.00000634242591     0.00034589615553     0.00692710781519     0.00017565024743
   18     0.00262125274116     0.00026083451554     0.00354295396540     0.00084983528483     0.00011167419836
   19     0.01446338040076     0.00201677375162     0.00186649084330     0.00001069691156     0.00070026418346
   20     0.01511249714449     0.00467853302221     0.00228825607829     0.00002799232730     0.00034957873852
   21     0.00094150088584     0.00067053366770     0.00170235405892     0.02105161707917     0.00011665255014
   22     0.00474401152332     0.00975891691105     0.00490236392800     0.00048066820422     0.00172102842463
   23     0.00000126793392     0.00000084109894     0.00000749201177     0.00003940433367     0.00000261267712
   24     0.00000727309643     0.00000011229782     0.00000962381651     0.00003102059132     0.00000063257058
   25     0.00091701343991     0.00098329540540     0.00005030103519     0.00000843393516     0.00003171508796
   26     0.00041600804244     0.00904837815386     0.00070164607220     0.00027806572753     0.00002105087594

                 6                   7                   8                   9                  10

    1     0.00646167154097     0.00351698103589     0.00023864631192     0.00081050695253     0.00997445742642
    2     0.00984128798279     0.00201830440261     0.00081088817604     0.00016032784680     0.00476888330970
    3     0.02497486740487     0.00889699192563     0.00595982403294     0.00681341118363     0.02179541535281
    4     1.40090072992371     0.09037685982677     0.00805662802228     0.00556907764329     1.37462498877413
    5     0.00351621587422     0.00044149793441     0.00032435439357     0.00060029977863     0.00686235421092
    6     0.00000000000000     0.00468523915651     1.43023280688431     0.11299370547791     0.00550163976249
    7     0.00468523915651     0.00000000000000     1.39963977510436     1.34630144050919     0.00368008956588
    8     1.43023280688431     1.39963977510436     0.00000000000000     0.00648757486659     0.10037722306735
    9     0.11299370547791     1.34630144050919     0.00648757486659     0.00000000000000     1.47658791928460
   10     0.00550163976249     0.00368008956588     0.10037722306735     1.47658791928460     0.00000000000000
   11     0.00048273591256     0.00004706924831     0.00017198982687     0.00009675710352     0.00021600339448
   12     0.00127875428533     0.00016587819102     0.00006261468669     0.00004371050143     0.00024812891191
   13     0.00128921093013     0.00029564617286     0.00001634955636     0.00000373821951     0.00038325753912
   14     0.00132080735586     0.00015100616492     0.00005350867872     0.00014304505738     0.00043216180967
   15     0.96477669462441     0.00692766943765     0.00109781480177     0.00052054319403     0.00640387764256
   16     0.00103319614653     0.00071088295348     0.96517207239490     0.00800179596738     0.00029239043586
   17     0.00036879244712     0.00054422852970     0.00593165650562     0.96825022338378     0.00139642713611
   18     0.00725341406074     0.00764568640463     0.00043393628330     0.00148171279231     0.95762655969193
   19     0.00010401519239     0.00004678214169     0.00001015216560     0.00000409052846     0.00010557905025
   20     0.00012461452090     0.00006230046533     0.00001141990444     0.00000456225613     0.00010404220462
   21     0.00811239022033     1.10287390822043     0.04524992626635     0.03843411825907     0.00764206625568
   22     0.00013725274158     0.00001894356031     0.00003228468503     0.00000340438922     0.00003294434885
   23     0.00063756361928     0.00037380128372     0.00585428606551     0.00171381608239     0.00004572293714
   24     0.00002785282583     0.00006783623754     0.00120551227086     0.00571180060718     0.00061289911636
   25     0.00000355975688     0.00000095550498     0.00000025911777     0.00000004139724     0.00000178044641
   26     0.00003812335386     0.00000230258280     0.00001142948681     0.00000091895918     0.00000698978755

                11                  12                  13                  14                  15

    1     0.03437016654549     0.00187540269948     0.00260790594660     0.00053368334001     0.00002930971566
    2     0.98635765385546     0.00383546346115     0.00293483771326     0.00162908587893     0.00013607031251
    3     0.00526451952647     0.00541321816947     0.00777566511770     0.00086810230633     0.00372878782136
    4     0.00720042735627     0.00080856209009     0.00042371341698     0.00504775984258     0.00057397032177
    5     0.00271918284799     0.97699209439855     0.97557935325064     0.97563927279098     0.00174012328079
    6     0.00048273591256     0.00127875428533     0.00128921093013     0.00132080735586     0.96477669462441
    7     0.00004706924831     0.00016587819102     0.00029564617286     0.00015100616492     0.00692766943765
    8     0.00017198982687     0.00006261468669     0.00001634955636     0.00005350867872     0.00109781480177
    9     0.00009675710352     0.00004371050143     0.00000373821951     0.00014304505738     0.00052054319403
   10     0.00021600339448     0.00024812891191     0.00038325753912     0.00043216180967     0.00640387764256
   11     0.00000000000000     0.00009584360942     0.00003887857600     0.00228511451681     0.00004135086823
   12     0.00009584360942     0.00000000000000     0.00018068253921     0.00106261523615     0.00011636208360
   13     0.00003887857600     0.00018068253921     0.00000000000000     0.00026708412239     0.00102471216077
   14     0.00228511451681     0.00106261523615     0.00026708412239     0.00000000000000     0.00001014382760
   15     0.00004135086823     0.00011636208360     0.00102471216077     0.00001014382760     0.00000000000000
   16     0.00003673268687     0.00000168743302     0.00000895748581     0.00001046631058     0.00431249646937
   17     0.00000044327714     0.00000744207782     0.00000012036696     0.00002463983481     0.00003637732215
   18     0.00000504548787     0.00000692632545     0.00000317110046     0.00002575444996     0.00084800081552
   19     0.95427928842144     0.00001276675256     0.00002296866844     0.00151941881649     0.00000014364439
   20     0.95086373763021     0.00000002300193     0.00004206752205     0.00015031294879     0.00000000703370
   21     0.00001496856765     0.00003603540577     0.00006054081469     0.00002630628483     0.00040156750674
   22     1.03183610572942     0.00005238413447     0.00001242333183     0.00024100335107     0.00001123450743
   23     0.00000014175441     0.00000010434545     0.00000072936315     0.00000224808746     0.00020718472614
   24     0.00000039742853     0.00000000350085     0.00000012597943     0.00000052186894     0.00001267011699
   25     0.00012323567165     0.00001048123648     0.00000040676627     0.00000059956965     0.00000009036148
   26     0.00068328816641     0.00000000978353     0.00000002157656     0.00000354203189     0.00000279973267

                16                  17                  18                  19                  20

    1     0.00001660134135     0.00006253499657     0.00262125274116     0.01446338040076     0.01511249714449
    2     0.00016960289629     0.00000634242591     0.00026083451554     0.00201677375162     0.00467853302221
    3     0.00034143017982     0.00034589615553     0.00354295396540     0.00186649084330     0.00228825607829
    4     0.00721166742974     0.00692710781519     0.00084983528483     0.00001069691156     0.00002799232730
    5     0.00004651299608     0.00017565024743     0.00011167419836     0.00070026418346     0.00034957873852
    6     0.00103319614653     0.00036879244712     0.00725341406074     0.00010401519239     0.00012461452090
    7     0.00071088295348     0.00054422852970     0.00764568640463     0.00004678214169     0.00006230046533
    8     0.96517207239490     0.00593165650562     0.00043393628330     0.00001015216560     0.00001141990444
    9     0.00800179596738     0.96825022338378     0.00148171279231     0.00000409052846     0.00000456225613
   10     0.00029239043586     0.00139642713611     0.95762655969193     0.00010557905025     0.00010404220462
   11     0.00003673268687     0.00000044327714     0.00000504548787     0.95427928842144     0.95086373763021
   12     0.00000168743302     0.00000744207782     0.00000692632545     0.00001276675256     0.00000002300193
   13     0.00000895748581     0.00000012036696     0.00000317110046     0.00002296866844     0.00004206752205
   14     0.00001046631058     0.00002463983481     0.00002575444996     0.00151941881649     0.00015031294879
   15     0.00431249646937     0.00003637732215     0.00084800081552     0.00000014364439     0.00000000703370
   16     0.00000000000000     0.00073103240352     0.00008787220456     0.00000009305498     0.00000004262793
   17     0.00073103240352     0.00000000000000     0.00423343912123     0.00000001494892     0.00000006577677
   18     0.00008787220456     0.00423343912123     0.00000000000000     0.00000228374679     0.00000000467750
   19     0.00000009305498     0.00000001494892     0.00000228374679     0.00000000000000     0.00020294074503
   20     0.00000004262793     0.00000006577677     0.00000000467750     0.00020294074503     0.00000000000000
   21     0.00379311519333     0.00333063113792     0.00032599241107     0.00001617269328     0.00002089131136
   22     0.00000517991890     0.00000052001327     0.00001339822197     0.01866599169243     0.00541011500950
   23     0.00011838801100     0.00064936760609     0.00002712930731     0.00000000264755     0.00000002723686
   24     0.00055985751686     0.00015887175854     0.00018478743402     0.00000002278107     0.00000000023442
   25     0.00000014603957     0.00000000131449     0.00000011747361     0.00060343446286     0.00990292416687
   26     0.00000268592364     0.00000014262625     0.00000230043058     0.00051531089207     0.00135983798522

                21                  22                  23                  24                  25

    1     0.00094150088584     0.00474401152332     0.00000126793392     0.00000727309643     0.00091701343991
    2     0.00067053366770     0.00975891691105     0.00000084109894     0.00000011229782     0.00098329540540
    3     0.00170235405892     0.00490236392800     0.00000749201177     0.00000962381651     0.00005030103519
    4     0.02105161707917     0.00048066820422     0.00003940433367     0.00003102059132     0.00000843393516
    5     0.00011665255014     0.00172102842463     0.00000261267712     0.00000063257058     0.00003171508796
    6     0.00811239022033     0.00013725274158     0.00063756361928     0.00002785282583     0.00000355975688
    7     1.10287390822043     0.00001894356031     0.00037380128372     0.00006783623754     0.00000095550498
    8     0.04524992626635     0.00003228468503     0.00585428606551     0.00120551227086     0.00000025911777
    9     0.03843411825907     0.00000340438922     0.00171381608239     0.00571180060718     0.00000004139724
   10     0.00764206625568     0.00003294434885     0.00004572293714     0.00061289911636     0.00000178044641
   11     0.00001496856765     1.03183610572942     0.00000014175441     0.00000039742853     0.00012323567165
   12     0.00003603540577     0.00005238413447     0.00000010434545     0.00000000350085     0.00001048123648
   13     0.00006054081469     0.00001242333183     0.00000072936315     0.00000012597943     0.00000040676627
   14     0.00002630628483     0.00024100335107     0.00000224808746     0.00000052186894     0.00000059956965
   15     0.00040156750674     0.00001123450743     0.00020718472614     0.00001267011699     0.00000009036148
   16     0.00379311519333     0.00000517991890     0.00011838801100     0.00055985751686     0.00000014603957
   17     0.00333063113792     0.00000052001327     0.00064936760609     0.00015887175854     0.00000000131449
   18     0.00032599241107     0.00001339822197     0.00002712930731     0.00018478743402     0.00000011747361
   19     0.00001617269328     0.01866599169243     0.00000000264755     0.00000002278107     0.00060343446286
   20     0.00002089131136     0.00541011500950     0.00000002723686     0.00000000023442     0.00990292416687
   21     0.00000000000000     0.00000438753770     0.95964286100008     0.96547877685673     0.00000019214703
   22     0.00000438753770     0.00000000000000     0.00000012772537     0.00000000403917     0.96376546541970
   23     0.95964286100008     0.00000012772537     0.00000000000000     0.00023786772274     0.00000000027041
   24     0.96547877685673     0.00000000403917     0.00023786772274     0.00000000000000     0.00000000139358
   25     0.00000019214703     0.96376546541970     0.00000000027041     0.00000000139358     0.00000000000000
   26     0.00000060013076     0.96584757222708     0.00000002131192     0.00000000010658     0.00001153080159

                26

    1     0.00041600804244
    2     0.00904837815386
    3     0.00070164607220
    4     0.00027806572753
    5     0.00002105087594
    6     0.00003812335386
    7     0.00000230258280
    8     0.00001142948681
    9     0.00000091895918
   10     0.00000698978755
   11     0.00068328816641
   12     0.00000000978353
   13     0.00000002157656
   14     0.00000354203189
   15     0.00000279973267
   16     0.00000268592364
   17     0.00000014262625
   18     0.00000230043058
   19     0.00051531089207
   20     0.00135983798522
   21     0.00000060013076
   22     0.96584757222708
   23     0.00000002131192
   24     0.00000000010658
   25     0.00001153080159
   26     0.00000000000000



  Atomic Valences: 

 #  #
 Irrep: 1
      1:  2.0503965
      2:  3.9608419
      3:  3.3909475
      4:  3.9711531
      5:  3.9497278
      6:  3.9860971
      7:  3.9794921
      8:  3.9774429
      9:  3.9807385
     10:  3.9797238
     11:  3.9772311
     12:  0.9923072
     13:  0.9929726
     14:  0.9914482
     15:  0.9929600
     16:  0.9926649
     17:  0.9931820
     18:  0.9875941
     19:  0.9951691
     20:  0.9907168
     21:  3.1599481
     22:  3.0076977
     23:  0.9695630
     24:  0.9743085
     25:  0.9764160
     26:  0.9789546


    Psi4 stopped on: Tuesday, 09 November 2021 09:50AM
    Psi4 wall time for execution: 0:00:33.59

*** Psi4 exiting successfully. Buy a developer a beer!
