
    -----------------------------------------------------------------------
          Psi4: An Open-Source Ab Initio Electronic Structure Package
                               Psi4 1.3.2 release

                         Git: Rev {HEAD} ecbda83 


    R. M. Parrish, L. A. Burns, D. G. A. Smith, A. C. Simmonett,
    A. E. DePrince III, E. G. Hohenstein, U. Bozkaya, A. Yu. Sokolov,
    R. Di Remigio, R. M. Richard, J. F. Gonthier, A. M. James,
    H. R. McAlexander, A. Kumar, M. Saitow, X. Wang, B. P. Pritchard,
    P. Verma, H. F. Schaefer III, K. Patkowski, R. A. King, E. F. Valeev,
    F. A. Evangelista, J. M. Turney, T. D. Crawford, and C. D. Sherrill,
    J. Chem. Theory Comput. 13(7) pp 3185--3197 (2017).
    (doi: 10.1021/acs.jctc.7b00174)


                         Additional Contributions by
    P. Kraus, H. Kruse, M. H. Lechner, M. C. Schieber, R. A. Shaw,
    A. Alenaizan, R. Galvelis, Z. L. Glick, S. Lehtola, and J. P. Misiewicz

    -----------------------------------------------------------------------


    Psi4 started on: Tuesday, 22 February 2022 05:54PM

    Process ID: 26989
    Host:       node37.bme.utexas.edu
    PSIDATADIR: /home/bdw2292/miniconda3/envs/amoebamdpoltype/share/psi4
    Memory:     500.0 MiB
    Threads:    1
    
  ==> Input File <==

--------------------------------------------------------------------------
molecule { 
0 1
 Cl                 -0.8869533     0.6775213    -0.2883658
 Cl                  1.9056014    -0.2292421     0.0374276
  C                  0.1983835    -0.6935655    -0.0102364
  H                 -0.0561714    -1.1445283     0.9490648
  H                  0.0635140    -1.4078627    -0.8227287
--
0 1
  O                 -4.9262895    -0.6792956     0.3347653
  H                 -4.8984512    -1.5965917     0.6052498
  H                 -4.0281616    -0.3748239     0.1979389
}
memory 15GB
set_num_threads(4)
psi4_io.set_default_path("/scratch/bdw2292/Psi4-CH2Cl2")
set maxiter 500
set freeze_core True
set PROPERTIES_ORIGIN ["COM"]
e_dim= energy('mp2/aug-cc-pV[TQ]Z',bsse_type='cp')

psi4.print_out('CP Energy = %10.6f' % (e_dim))
clean()
--------------------------------------------------------------------------

  Memory set to  13.970 GiB by Python driver.
  Threads set to 4 by Python driver.


   ===> N-Body Interaction Abacus <===
        BSSE Treatment:                     cp
        Number of 1-body computations:     4
        Number of 2-body computations:     1

   ==> N-Body: Now computing 1-body complexes <==


       N-Body: Computing complex (1/4) with fragments (2,) in the basis of fragments (2,).


  //>>>>>>>>>>>>>>>>>>>>>>>>>>>>>>>>>>>//
  //   CBS Setup: mp2/aug-cc-pV[TQ]Z   //
  //<<<<<<<<<<<<<<<<<<<<<<<<<<<<<<<<<<<//

    Naive listing of computations required.
             hf / aug-cc-pvqz              for  HF TOTAL ENERGY
            mp2 / aug-cc-pvtz              for  MP2 TOTAL ENERGY
            mp2 / aug-cc-pvqz              for  MP2 TOTAL ENERGY
             hf / aug-cc-pvtz              for  HF TOTAL ENERGY
             hf / aug-cc-pvqz              for  HF TOTAL ENERGY

    Enlightened listing of computations required.
            mp2 / aug-cc-pvtz              for  MP2 TOTAL ENERGY
            mp2 / aug-cc-pvqz              for  MP2 TOTAL ENERGY

    Full listing of computations to be obtained (required and bonus).
             hf / aug-cc-pvtz              for  HF TOTAL ENERGY
            mp2 / aug-cc-pvtz              for  MP2 TOTAL ENERGY
             hf / aug-cc-pvqz              for  HF TOTAL ENERGY
            mp2 / aug-cc-pvqz              for  MP2 TOTAL ENERGY

  //>>>>>>>>>>>>>>>>>>>>>>>>>>>>>>>>>>>>//
  // CBS Computation: MP2 / AUG-CC-PVTZ //
  //<<<<<<<<<<<<<<<<<<<<<<<<<<<<<<<<<<<<//

    SCF Algorithm Type (re)set to DF.

*** tstart() called on node37.bme.utexas.edu
*** at Tue Feb 22 17:54:49 2022

   => Loading Basis Set <=

    Name: AUG-CC-PVTZ
    Role: ORBITAL
    Keyword: BASIS
    atoms 1   entry O          line   327 file /home/bdw2292/miniconda3/envs/amoebamdpoltype/share/psi4/basis/aug-cc-pvtz.gbs 
    atoms 2-3 entry H          line    36 file /home/bdw2292/miniconda3/envs/amoebamdpoltype/share/psi4/basis/aug-cc-pvtz.gbs 


         ---------------------------------------------------------
                                   SCF
               by Justin Turney, Rob Parrish, Andy Simmonett
                          and Daniel G. A. Smith
                              RHF Reference
                        4 Threads,  14305 MiB Core
         ---------------------------------------------------------

  ==> Geometry <==

    Molecular point group: c1
    Full point group: C1

    Geometry (in Angstrom), charge = 0, multiplicity = 1:

       Center              X                  Y                   Z               Mass       
    ------------   -----------------  -----------------  -----------------  -----------------
         O           -4.438047322552    -0.600135664390     0.360328430494    15.994914619570
         H           -4.410209022552    -1.517431764390     0.630812930494     1.007825032230
         H           -3.539919422552    -0.295663964390     0.223502030494     1.007825032230

  Running in c1 symmetry.

  Rotational constants: A =     18.59014  B =      0.04721  C =      0.04709 [cm^-1]
  Rotational constants: A = 557318.33882  B =   1415.38103  C =   1411.79622 [MHz]
  Nuclear repulsion =    9.183549815666264

  Charge       = 0
  Multiplicity = 1
  Electrons    = 10
  Nalpha       = 5
  Nbeta        = 5

  ==> Algorithm <==

  SCF Algorithm Type is DF.
  DIIS enabled.
  MOM disabled.
  Fractional occupation disabled.
  Guess Type is SAD.
  Energy threshold   = 1.00e-08
  Density threshold  = 1.00e-08
  Integral threshold = 0.00e+00

  ==> Primary Basis <==

  Basis Set: AUG-CC-PVTZ
    Blend: AUG-CC-PVTZ
    Number of shells: 32
    Number of basis function: 92
    Number of Cartesian functions: 105
    Spherical Harmonics?: true
    Max angular momentum: 3

   => Loading Basis Set <=

    Name: (AUG-CC-PVTZ AUX)
    Role: JKFIT
    Keyword: DF_BASIS_SCF
    atoms 1   entry O          line   286 file /home/bdw2292/miniconda3/envs/amoebamdpoltype/share/psi4/basis/aug-cc-pvtz-jkfit.gbs 
    atoms 2-3 entry H          line    70 file /home/bdw2292/miniconda3/envs/amoebamdpoltype/share/psi4/basis/aug-cc-pvtz-jkfit.gbs 

  ==> Pre-Iterations <==

   -------------------------------------------------------
    Irrep   Nso     Nmo     Nalpha   Nbeta   Ndocc  Nsocc
   -------------------------------------------------------
     A         92      92       0       0       0       0
   -------------------------------------------------------
    Total      92      92       5       5       5       0
   -------------------------------------------------------

  ==> Integral Setup <==

  DFHelper Memory: AOs need 0.015 GiB; user supplied 10.477 GiB. Using in-core AOs.

  ==> MemDFJK: Density-Fitted J/K Matrices <==

    J tasked:                   Yes
    K tasked:                   Yes
    wK tasked:                   No
    OpenMP threads:               4
    Memory [MiB]:             10728
    Algorithm:                 Core
    Schwarz Cutoff:           1E-12
    Mask sparsity (%):       0.0000
    Fitting Condition:        1E-10

   => Auxiliary Basis Set <=

  Basis Set: (AUG-CC-PVTZ AUX)
    Blend: AUG-CC-PVTZ-JKFIT
    Number of shells: 58
    Number of basis function: 196
    Number of Cartesian functions: 241
    Spherical Harmonics?: true
    Max angular momentum: 4

  Minimum eigenvalue in the overlap matrix is 3.7696852334E-04.
  Using Symmetric Orthogonalization.

  SCF Guess: Superposition of Atomic Densities via on-the-fly atomic UHF.

  ==> Iterations <==

                           Total Energy        Delta E     RMS |[F,P]|

   @DF-RHF iter SAD:   -75.47387605741210   -7.54739e+01   0.00000e+00 
   @DF-RHF iter   1:   -75.97658270189768   -5.02707e-01   5.09412e-03 DIIS
   @DF-RHF iter   2:   -76.02899485681509   -5.24122e-02   3.45149e-03 DIIS
   @DF-RHF iter   3:   -76.06000842015015   -3.10136e-02   2.34381e-04 DIIS
   @DF-RHF iter   4:   -76.06039813583837   -3.89716e-04   5.59659e-05 DIIS
   @DF-RHF iter   5:   -76.06042208574891   -2.39499e-05   1.25977e-05 DIIS
   @DF-RHF iter   6:   -76.06042404232798   -1.95658e-06   2.80550e-06 DIIS
   @DF-RHF iter   7:   -76.06042415032495   -1.07997e-07   5.30923e-07 DIIS
   @DF-RHF iter   8:   -76.06042415375700   -3.43205e-09   8.80110e-08 DIIS
   @DF-RHF iter   9:   -76.06042415383125   -7.42517e-11   2.18741e-08 DIIS
   @DF-RHF iter  10:   -76.06042415383553   -4.27747e-12   2.97649e-09 DIIS
  Energy and wave function converged.


  ==> Post-Iterations <==

    Orbital Energies [Eh]
    ---------------------

    Doubly Occupied:                                                      

       1A    -20.565430     2A     -1.350658     3A     -0.725324  
       4A     -0.577088     5A     -0.509148  

    Virtual:                                                              

       6A      0.029679     7A      0.047437     8A      0.136497  
       9A      0.157839    10A      0.174238    11A      0.182007  
      12A      0.228888    13A      0.244440    14A      0.263801  
      15A      0.304859    16A      0.313317    17A      0.365211  
      18A      0.437949    19A      0.466805    20A      0.602324  
      21A      0.654132    22A      0.711218    23A      0.719195  
      24A      0.731217    25A      0.827933    26A      0.843707  
      27A      0.889963    28A      0.912886    29A      0.920576  
      30A      0.924087    31A      0.927864    32A      0.971608  
      33A      1.023028    34A      1.045366    35A      1.085228  
      36A      1.114322    37A      1.172616    38A      1.177229  
      39A      1.259606    40A      1.514620    41A      1.564380  
      42A      1.596294    43A      1.783925    44A      1.796969  
      45A      2.004029    46A      2.115877    47A      2.259545  
      48A      2.318730    49A      2.320813    50A      2.413003  
      51A      2.414273    52A      2.438374    53A      2.471222  
      54A      2.687223    55A      2.703424    56A      2.768061  
      57A      2.858528    58A      2.883781    59A      3.644956  
      60A      3.770442    61A      4.007106    62A      4.090376  
      63A      4.212840    64A      4.230782    65A      4.337209  
      66A      4.382085    67A      4.400515    68A      4.418239  
      69A      4.492518    70A      4.707022    71A      4.811259  
      72A      5.124455    73A      5.173406    74A      5.308002  
      75A      5.330297    76A      5.513076    77A      5.723445  
      78A      6.138333    79A      6.535010    80A      6.713264  
      81A      6.857411    82A      7.146639    83A      7.262937  
      84A      7.297712    85A      7.307542    86A      7.371305  
      87A      7.390776    88A      7.559371    89A      7.896397  
      90A      7.966059    91A      8.788588    92A     15.864470  

    Final Occupation by Irrep:
              A 
    DOCC [     5 ]

  @DF-RHF Final Energy:   -76.06042415383553

   => Energetics <=

    Nuclear Repulsion Energy =              9.1835498156662645
    One-Electron Energy =                -123.0326536525254397
    Two-Electron Energy =                  37.7886796830236378
    Total Energy =                        -76.0604241538355268

Computation Completed


Properties will be evaluated at  -8.288778,  -1.198895,   0.695056 [a0]

Properties computed using the SCF density matrix

  Nuclear Dipole Moment: [e a0]
     X:     0.7707      Y:    -0.5100      Z:     0.1112

  Electronic Dipole Moment: [e a0]
     X:    -0.1469      Y:     0.0970      Z:    -0.0211

  Dipole Moment: [e a0]
     X:     0.6238      Y:    -0.4131      Z:     0.0901     Total:     0.7535

  Dipole Moment: [D]
     X:     1.5854      Y:    -1.0499      Z:     0.2290     Total:     1.9153


*** tstop() called on node37.bme.utexas.edu at Tue Feb 22 17:54:52 2022
Module time:
	user time   =       5.47 seconds =       0.09 minutes
	system time =       0.47 seconds =       0.01 minutes
	total time  =          3 seconds =       0.05 minutes
Total time:
	user time   =       5.47 seconds =       0.09 minutes
	system time =       0.47 seconds =       0.01 minutes
	total time  =          3 seconds =       0.05 minutes

*** tstart() called on node37.bme.utexas.edu
*** at Tue Feb 22 17:54:52 2022


  //>>>>>>>>>>>>>>>>>>>>>>>>>>>>>>>>>>>//
  //               DFMP2               //
  //<<<<<<<<<<<<<<<<<<<<<<<<<<<<<<<<<<<//

   => Loading Basis Set <=

    Name: (AUG-CC-PVTZ AUX)
    Role: RIFIT
    Keyword: DF_BASIS_MP2
    atoms 1   entry O          line   264 file /home/bdw2292/miniconda3/envs/amoebamdpoltype/share/psi4/basis/aug-cc-pvtz-ri.gbs 
    atoms 2-3 entry H          line    30 file /home/bdw2292/miniconda3/envs/amoebamdpoltype/share/psi4/basis/aug-cc-pvtz-ri.gbs 

	 --------------------------------------------------------
	                          DF-MP2                         
	      2nd-Order Density-Fitted Moller-Plesset Theory     
	              RMP2 Wavefunction,   4 Threads             
	                                                         
	        Rob Parrish, Justin Turney, Andy Simmonett,      
	           Ed Hohenstein, and C. David Sherrill          
	 --------------------------------------------------------

   => Auxiliary Basis Set <=

  Basis Set: (AUG-CC-PVTZ AUX)
    Blend: AUG-CC-PVTZ-RI
    Number of shells: 56
    Number of basis function: 198
    Number of Cartesian functions: 246
    Spherical Harmonics?: true
    Max angular momentum: 4

	 --------------------------------------------------------
	                 NBF =    92, NAUX =   198
	 --------------------------------------------------------
	   CLASS    FOCC     OCC    AOCC    AVIR     VIR    FVIR
	   PAIRS       1       5       4      87      87       0
	 --------------------------------------------------------

	-----------------------------------------------------------
	 ==================> DF-MP2 Energies <==================== 
	-----------------------------------------------------------
	 Reference Energy          =     -76.0604241538355268 [Eh]
	 Singles Energy            =      -0.0000000000000000 [Eh]
	 Same-Spin Energy          =      -0.0650916010752891 [Eh]
	 Opposite-Spin Energy      =      -0.2029660300292249 [Eh]
	 Correlation Energy        =      -0.2680576311045140 [Eh]
	 Total Energy              =     -76.3284817849400383 [Eh]
	-----------------------------------------------------------
	 ================> DF-SCS-MP2 Energies <================== 
	-----------------------------------------------------------
	 SCS Same-Spin Scale       =       0.3333333333333333 [-]
	 SCS Opposite-Spin Scale   =       1.2000000000000000 [-]
	 SCS Same-Spin Energy      =      -0.0216972003584297 [Eh]
	 SCS Opposite-Spin Energy  =      -0.2435592360350698 [Eh]
	 SCS Correlation Energy    =      -0.2652564363934995 [Eh]
	 SCS Total Energy          =     -76.3256805902290267 [Eh]
	-----------------------------------------------------------


*** tstop() called on node37.bme.utexas.edu at Tue Feb 22 17:54:53 2022
Module time:
	user time   =       2.01 seconds =       0.03 minutes
	system time =       0.16 seconds =       0.00 minutes
	total time  =          1 seconds =       0.02 minutes
Total time:
	user time   =       7.49 seconds =       0.12 minutes
	system time =       0.63 seconds =       0.01 minutes
	total time  =          4 seconds =       0.07 minutes

  //>>>>>>>>>>>>>>>>>>>>>>>>>>>>>>>>>>>>//
  // CBS Computation: MP2 / AUG-CC-PVQZ //
  //<<<<<<<<<<<<<<<<<<<<<<<<<<<<<<<<<<<<//

    SCF Algorithm Type (re)set to DF.

*** tstart() called on node37.bme.utexas.edu
*** at Tue Feb 22 17:54:53 2022

   => Loading Basis Set <=

    Name: AUG-CC-PVQZ
    Role: ORBITAL
    Keyword: BASIS
    atoms 1   entry O          line   419 file /home/bdw2292/miniconda3/envs/amoebamdpoltype/share/psi4/basis/aug-cc-pvqz.gbs 
    atoms 2-3 entry H          line    36 file /home/bdw2292/miniconda3/envs/amoebamdpoltype/share/psi4/basis/aug-cc-pvqz.gbs 


         ---------------------------------------------------------
                                   SCF
               by Justin Turney, Rob Parrish, Andy Simmonett
                          and Daniel G. A. Smith
                              RHF Reference
                        4 Threads,  14305 MiB Core
         ---------------------------------------------------------

  ==> Geometry <==

    Molecular point group: c1
    Full point group: C1

    Geometry (in Angstrom), charge = 0, multiplicity = 1:

       Center              X                  Y                   Z               Mass       
    ------------   -----------------  -----------------  -----------------  -----------------
         O           -4.438047322552    -0.600135664390     0.360328430494    15.994914619570
         H           -4.410209022552    -1.517431764390     0.630812930494     1.007825032230
         H           -3.539919422552    -0.295663964390     0.223502030494     1.007825032230

  Running in c1 symmetry.

  Rotational constants: A =     18.59014  B =      0.04721  C =      0.04709 [cm^-1]
  Rotational constants: A = 557318.33882  B =   1415.38103  C =   1411.79622 [MHz]
  Nuclear repulsion =    9.183549815666264

  Charge       = 0
  Multiplicity = 1
  Electrons    = 10
  Nalpha       = 5
  Nbeta        = 5

  ==> Algorithm <==

  SCF Algorithm Type is DF.
  DIIS enabled.
  MOM disabled.
  Fractional occupation disabled.
  Guess Type is SAD.
  Energy threshold   = 1.00e-08
  Density threshold  = 1.00e-08
  Integral threshold = 0.00e+00

  ==> Primary Basis <==

  Basis Set: AUG-CC-PVQZ
    Blend: AUG-CC-PVQZ
    Number of shells: 48
    Number of basis function: 172
    Number of Cartesian functions: 215
    Spherical Harmonics?: true
    Max angular momentum: 4

   => Loading Basis Set <=

    Name: (AUG-CC-PVQZ AUX)
    Role: JKFIT
    Keyword: DF_BASIS_SCF
    atoms 1   entry O          line   318 file /home/bdw2292/miniconda3/envs/amoebamdpoltype/share/psi4/basis/aug-cc-pvqz-jkfit.gbs 
    atoms 2-3 entry H          line    70 file /home/bdw2292/miniconda3/envs/amoebamdpoltype/share/psi4/basis/aug-cc-pvqz-jkfit.gbs 

  ==> Pre-Iterations <==

   -------------------------------------------------------
    Irrep   Nso     Nmo     Nalpha   Nbeta   Ndocc  Nsocc
   -------------------------------------------------------
     A        172     172       0       0       0       0
   -------------------------------------------------------
    Total     172     172       5       5       5       0
   -------------------------------------------------------

  ==> Integral Setup <==

  DFHelper Memory: AOs need 0.074 GiB; user supplied 10.477 GiB. Using in-core AOs.

  ==> MemDFJK: Density-Fitted J/K Matrices <==

    J tasked:                   Yes
    K tasked:                   Yes
    wK tasked:                   No
    OpenMP threads:               4
    Memory [MiB]:             10728
    Algorithm:                 Core
    Schwarz Cutoff:           1E-12
    Mask sparsity (%):       0.0000
    Fitting Condition:        1E-10

   => Auxiliary Basis Set <=

  Basis Set: (AUG-CC-PVQZ AUX)
    Blend: AUG-CC-PVQZ-JKFIT
    Number of shells: 70
    Number of basis function: 294
    Number of Cartesian functions: 400
    Spherical Harmonics?: true
    Max angular momentum: 5

  Minimum eigenvalue in the overlap matrix is 8.5325325815E-05.
  Using Symmetric Orthogonalization.

  SCF Guess: Superposition of Atomic Densities via on-the-fly atomic UHF.

  ==> Iterations <==

                           Total Energy        Delta E     RMS |[F,P]|

   @DF-RHF iter SAD:   -75.47903265760905   -7.54790e+01   0.00000e+00 
   @DF-RHF iter   1:   -75.98166476508568   -5.02632e-01   2.73053e-03 DIIS
   @DF-RHF iter   2:   -76.03418136666149   -5.25166e-02   1.85438e-03 DIIS
   @DF-RHF iter   3:   -76.06539290659072   -3.12115e-02   1.26279e-04 DIIS
   @DF-RHF iter   4:   -76.06578467986203   -3.91773e-04   3.08537e-05 DIIS
   @DF-RHF iter   5:   -76.06580952900273   -2.48491e-05   6.91936e-06 DIIS
   @DF-RHF iter   6:   -76.06581156794516   -2.03894e-06   1.58220e-06 DIIS
   @DF-RHF iter   7:   -76.06581168719188   -1.19247e-07   3.08992e-07 DIIS
   @DF-RHF iter   8:   -76.06581169123514   -4.04326e-09   4.94222e-08 DIIS
   @DF-RHF iter   9:   -76.06581169131971   -8.45688e-11   1.19660e-08 DIIS
   @DF-RHF iter  10:   -76.06581169132352   -3.80851e-12   1.65960e-09 DIIS
  Energy and wave function converged.


  ==> Post-Iterations <==

    Orbital Energies [Eh]
    ---------------------

    Doubly Occupied:                                                      

       1A    -20.562974     2A     -1.349933     3A     -0.725289  
       4A     -0.577140     5A     -0.509277  

    Virtual:                                                              

       6A      0.027156     7A      0.042869     8A      0.114716  
       9A      0.132588    10A      0.150322    11A      0.157840  
      12A      0.186007    13A      0.197116    14A      0.208243  
      15A      0.241434    16A      0.258991    17A      0.290391  
      18A      0.358082    19A      0.390608    20A      0.471878  
      21A      0.506653    22A      0.543018    23A      0.545650  
      24A      0.554057    25A      0.613293    26A      0.634290  
      27A      0.649683    28A      0.662608    29A      0.665802  
      30A      0.690432    31A      0.705169    32A      0.714773  
      33A      0.769556    34A      0.787503    35A      0.803524  
      36A      0.810130    37A      0.846858    38A      0.855375  
      39A      0.967474    40A      1.134185    41A      1.141387  
      42A      1.216933    43A      1.328940    44A      1.417411  
      45A      1.480439    46A      1.506009    47A      1.521933  
      48A      1.525072    49A      1.555921    50A      1.595663  
      51A      1.618001    52A      1.636526    53A      1.659463  
      54A      1.672798    55A      1.685888    56A      1.702490  
      57A      1.719354    58A      1.763774    59A      1.782064  
      60A      1.794437    61A      1.828134    62A      1.862853  
      63A      1.881459    64A      1.900130    65A      1.952998  
      66A      2.013944    67A      2.021087    68A      2.029428  
      69A      2.099056    70A      2.219319    71A      2.225915  
      72A      2.306778    73A      2.494183    74A      2.642438  
      75A      2.643745    76A      2.891023    77A      2.962111  
      78A      3.010600    79A      3.023260    80A      3.061559  
      81A      3.088494    82A      3.251457    83A      3.282586  
      84A      3.311955    85A      3.531183    86A      3.591113  
      87A      3.658626    88A      3.680892    89A      3.740289  
      90A      3.742486    91A      3.920810    92A      4.065910  
      93A      4.159056    94A      4.170598    95A      4.174728  
      96A      4.181179    97A      4.251472    98A      4.344637  
      99A      4.418433   100A      4.565629   101A      4.661211  
     102A      4.761417   103A      4.803073   104A      4.807871  
     105A      4.841729   106A      4.875343   107A      4.998469  
     108A      5.277393   109A      5.315652   110A      5.512253  
     111A      5.548554   112A      5.877787   113A      5.882978  
     114A      6.080755   115A      6.230203   116A      6.834420  
     117A      6.860148   118A      6.860854   119A      6.957030  
     120A      7.713481   121A      7.779866   122A      7.829186  
     123A      7.845902   124A      7.881287   125A      7.919122  
     126A      7.947997   127A      8.005819   128A      8.196193  
     129A      8.345078   130A      8.537135   131A      8.589491  
     132A      8.709224   133A      8.760579   134A      8.799450  
     135A      8.877383   136A      8.981730   137A      9.064459  
     138A      9.139707   139A      9.523498   140A      9.841560  
     141A      9.963009   142A      9.967881   143A     10.013812  
     144A     10.443955   145A     10.477804   146A     10.655035  
     147A     10.992369   148A     11.036661   149A     11.078668  
     150A     11.259779   151A     11.370746   152A     11.439580  
     153A     11.696514   154A     11.796579   155A     11.834827  
     156A     12.013495   157A     12.174706   158A     12.225702  
     159A     12.528221   160A     12.736672   161A     12.877068  
     162A     12.895310   163A     13.211537   164A     13.997383  
     165A     14.039962   166A     14.487503   167A     14.847918  
     168A     14.876109   169A     15.303592   170A     16.930471  
     171A     17.266018   172A     45.491543  

    Final Occupation by Irrep:
              A 
    DOCC [     5 ]

  @DF-RHF Final Energy:   -76.06581169132352

   => Energetics <=

    Nuclear Repulsion Energy =              9.1835498156662645
    One-Electron Energy =                -123.0494975786633489
    Two-Electron Energy =                  37.8001360716735704
    Total Energy =                        -76.0658116913235176

Computation Completed


Properties will be evaluated at  -8.288778,  -1.198895,   0.695056 [a0]

Properties computed using the SCF density matrix

  Nuclear Dipole Moment: [e a0]
     X:     0.7707      Y:    -0.5100      Z:     0.1112

  Electronic Dipole Moment: [e a0]
     X:    -0.1476      Y:     0.0974      Z:    -0.0212

  Dipole Moment: [e a0]
     X:     0.6231      Y:    -0.4126      Z:     0.0900     Total:     0.7527

  Dipole Moment: [D]
     X:     1.5836      Y:    -1.0487      Z:     0.2288     Total:     1.9131


*** tstop() called on node37.bme.utexas.edu at Tue Feb 22 17:54:57 2022
Module time:
	user time   =      10.26 seconds =       0.17 minutes
	system time =       0.90 seconds =       0.02 minutes
	total time  =          4 seconds =       0.07 minutes
Total time:
	user time   =      17.80 seconds =       0.30 minutes
	system time =       1.54 seconds =       0.03 minutes
	total time  =          8 seconds =       0.13 minutes

*** tstart() called on node37.bme.utexas.edu
*** at Tue Feb 22 17:54:57 2022


  //>>>>>>>>>>>>>>>>>>>>>>>>>>>>>>>>>>>//
  //               DFMP2               //
  //<<<<<<<<<<<<<<<<<<<<<<<<<<<<<<<<<<<//

   => Loading Basis Set <=

    Name: (AUG-CC-PVQZ AUX)
    Role: RIFIT
    Keyword: DF_BASIS_MP2
    atoms 1   entry O          line   332 file /home/bdw2292/miniconda3/envs/amoebamdpoltype/share/psi4/basis/aug-cc-pvqz-ri.gbs 
    atoms 2-3 entry H          line    30 file /home/bdw2292/miniconda3/envs/amoebamdpoltype/share/psi4/basis/aug-cc-pvqz-ri.gbs 

	 --------------------------------------------------------
	                          DF-MP2                         
	      2nd-Order Density-Fitted Moller-Plesset Theory     
	              RMP2 Wavefunction,   4 Threads             
	                                                         
	        Rob Parrish, Justin Turney, Andy Simmonett,      
	           Ed Hohenstein, and C. David Sherrill          
	 --------------------------------------------------------

   => Auxiliary Basis Set <=

  Basis Set: (AUG-CC-PVQZ AUX)
    Blend: AUG-CC-PVQZ-RI
    Number of shells: 76
    Number of basis function: 328
    Number of Cartesian functions: 447
    Spherical Harmonics?: true
    Max angular momentum: 5

	 --------------------------------------------------------
	                 NBF =   172, NAUX =   328
	 --------------------------------------------------------
	   CLASS    FOCC     OCC    AOCC    AVIR     VIR    FVIR
	   PAIRS       1       5       4     167     167       0
	 --------------------------------------------------------

	-----------------------------------------------------------
	 ==================> DF-MP2 Energies <==================== 
	-----------------------------------------------------------
	 Reference Energy          =     -76.0658116913235176 [Eh]
	 Singles Energy            =      -0.0000000000000000 [Eh]
	 Same-Spin Energy          =      -0.0671611495701975 [Eh]
	 Opposite-Spin Energy      =      -0.2185063242274387 [Eh]
	 Correlation Energy        =      -0.2856674737976361 [Eh]
	 Total Energy              =     -76.3514791651211482 [Eh]
	-----------------------------------------------------------
	 ================> DF-SCS-MP2 Energies <================== 
	-----------------------------------------------------------
	 SCS Same-Spin Scale       =       0.3333333333333333 [-]
	 SCS Opposite-Spin Scale   =       1.2000000000000000 [-]
	 SCS Same-Spin Energy      =      -0.0223870498567325 [Eh]
	 SCS Opposite-Spin Energy  =      -0.2622075890729264 [Eh]
	 SCS Correlation Energy    =      -0.2845946389296589 [Eh]
	 SCS Total Energy          =     -76.3504063302531790 [Eh]
	-----------------------------------------------------------


*** tstop() called on node37.bme.utexas.edu at Tue Feb 22 17:54:58 2022
Module time:
	user time   =       3.09 seconds =       0.05 minutes
	system time =       0.26 seconds =       0.00 minutes
	total time  =          1 seconds =       0.02 minutes
Total time:
	user time   =      20.90 seconds =       0.35 minutes
	system time =       1.80 seconds =       0.03 minutes
	total time  =          9 seconds =       0.15 minutes

  //>>>>>>>>>>>>>>>>>>>>>>>>>>>>>>>>>>>//
  //  CBS Results: mp2/aug-cc-pV[TQ]Z  //
  //<<<<<<<<<<<<<<<<<<<<<<<<<<<<<<<<<<<//


   ==> HF <==

   HI-zeta (4) Energy:               -76.065811691324


   ==> Helgaker 2-point correlated extrapolation for method: MP2 <==

   LO-zeta (3) Energy:               -76.328481784940
   HI-zeta (4) Energy:               -76.351479165121
   Alpha (exponent) Value:             3.000000000000
   Extrapolated Energy:              -76.368261037145

   @Extrapolated MP2/(T,Q):          -76.368261037145



   ==> Helgaker 2-point correlated extrapolation for method: HF <==

   LO-zeta (3) Energy:               -76.060424153836
   HI-zeta (4) Energy:               -76.065811691324
   Alpha (exponent) Value:             3.000000000000
   Extrapolated Energy:              -76.069743137599

   @Extrapolated HF/(T,Q):           -76.069743137599


   ==> Components <==

  ---------------------------------------------------------------------------------------------------------
                          Method / Basis                      Rqd      Energy [Eh]   Variable
  ---------------------------------------------------------------------------------------------------------
                              hf / aug-cc-pvtz                  *     -76.06042415   HF TOTAL ENERGY
                             mp2 / aug-cc-pvtz                  *     -76.32848178   MP2 TOTAL ENERGY
                              hf / aug-cc-pvqz                  *     -76.06581169   HF TOTAL ENERGY
                             mp2 / aug-cc-pvqz                  *     -76.35147917   MP2 TOTAL ENERGY
  ---------------------------------------------------------------------------------------------------------

   ==> Stages <==

  ---------------------------------------------------------------------------------------------------------
      Stage               Method / Basis                       Wt      Energy [Eh]   Scheme
  ---------------------------------------------------------------------------------------------------------
        scf                   hf / aug-cc-pvqz                  1     -76.06581169   xtpl_highest_1
       corl                  mp2 / aug-cc-pv[tq]z               1     -76.36826104   corl_xtpl_helgaker_2
       corl                   hf / aug-cc-pv[tq]z              -1     -76.06974314   corl_xtpl_helgaker_2
  ---------------------------------------------------------------------------------------------------------

   ==> CBS <==

  ---------------------------------------------------------------------------------------------------------
      Stage               Method / Basis                               Energy [Eh]   Scheme
  ---------------------------------------------------------------------------------------------------------
        scf                   hf / aug-cc-pvqz                        -76.06581169   xtpl_highest_1
       corl                  mp2 / aug-cc-pv[tq]z                      -0.29851790   corl_xtpl_helgaker_2
      total                  CBS                                      -76.36432959   
  ---------------------------------------------------------------------------------------------------------
   => Loading Basis Set <=

    Name: DEF2-SVP
    Role: ORBITAL
    Keyword: BASIS
    atoms 1   entry O          line   130 file /home/bdw2292/miniconda3/envs/amoebamdpoltype/share/psi4/basis/def2-svp.gbs 
    atoms 2-3 entry H          line    15 file /home/bdw2292/miniconda3/envs/amoebamdpoltype/share/psi4/basis/def2-svp.gbs 


       N-Body: Complex Energy (fragments = (2,), basis = (2,):   -76.36432959087018)

       N-Body: Computing complex (2/4) with fragments (2,) in the basis of fragments (1, 2).


  //>>>>>>>>>>>>>>>>>>>>>>>>>>>>>>>>>>>//
  //   CBS Setup: mp2/aug-cc-pV[TQ]Z   //
  //<<<<<<<<<<<<<<<<<<<<<<<<<<<<<<<<<<<//

    Naive listing of computations required.
             hf / aug-cc-pvqz              for  HF TOTAL ENERGY
            mp2 / aug-cc-pvtz              for  MP2 TOTAL ENERGY
            mp2 / aug-cc-pvqz              for  MP2 TOTAL ENERGY
             hf / aug-cc-pvtz              for  HF TOTAL ENERGY
             hf / aug-cc-pvqz              for  HF TOTAL ENERGY

    Enlightened listing of computations required.
            mp2 / aug-cc-pvtz              for  MP2 TOTAL ENERGY
            mp2 / aug-cc-pvqz              for  MP2 TOTAL ENERGY

    Full listing of computations to be obtained (required and bonus).
             hf / aug-cc-pvtz              for  HF TOTAL ENERGY
            mp2 / aug-cc-pvtz              for  MP2 TOTAL ENERGY
             hf / aug-cc-pvqz              for  HF TOTAL ENERGY
            mp2 / aug-cc-pvqz              for  MP2 TOTAL ENERGY

  //>>>>>>>>>>>>>>>>>>>>>>>>>>>>>>>>>>>>//
  // CBS Computation: MP2 / AUG-CC-PVTZ //
  //<<<<<<<<<<<<<<<<<<<<<<<<<<<<<<<<<<<<//

    SCF Algorithm Type (re)set to DF.

*** tstart() called on node37.bme.utexas.edu
*** at Tue Feb 22 17:55:00 2022

   => Loading Basis Set <=

    Name: AUG-CC-PVTZ
    Role: ORBITAL
    Keyword: BASIS
    atoms 1-2      entry CL         line   984 file /home/bdw2292/miniconda3/envs/amoebamdpoltype/share/psi4/basis/aug-cc-pvtz.gbs 
    atoms 3        entry C          line   235 file /home/bdw2292/miniconda3/envs/amoebamdpoltype/share/psi4/basis/aug-cc-pvtz.gbs 
    atoms 4-5, 7-8 entry H          line    36 file /home/bdw2292/miniconda3/envs/amoebamdpoltype/share/psi4/basis/aug-cc-pvtz.gbs 
    atoms 6        entry O          line   327 file /home/bdw2292/miniconda3/envs/amoebamdpoltype/share/psi4/basis/aug-cc-pvtz.gbs 


         ---------------------------------------------------------
                                   SCF
               by Justin Turney, Rob Parrish, Andy Simmonett
                          and Daniel G. A. Smith
                              RHF Reference
                        4 Threads,  14305 MiB Core
         ---------------------------------------------------------

  ==> Geometry <==

    Molecular point group: c1
    Full point group: C1

    Geometry (in Angstrom), charge = 0, multiplicity = 1:

       Center              X                  Y                   Z               Mass       
    ------------   -----------------  -----------------  -----------------  -----------------
      Gh(CL)         -0.398711122552     0.756681235610    -0.262802669506    34.968852682000
      Gh(CL)          2.393843577448    -0.150082164390     0.062990730494    34.968852682000
      Gh(C)           0.686625677448    -0.614405564390     0.015326730494    12.000000000000
      Gh(H)           0.432070777448    -1.065368364390     0.974627930494     1.007825032230
      Gh(H)           0.551756177448    -1.328702764390    -0.797165569506     1.007825032230
         O           -4.438047322552    -0.600135664390     0.360328430494    15.994914619570
         H           -4.410209022552    -1.517431764390     0.630812930494     1.007825032230
         H           -3.539919422552    -0.295663964390     0.223502030494     1.007825032230

  Running in c1 symmetry.

  Rotational constants: A =      0.40615  B =      0.02993  C =      0.02809 [cm^-1]
  Rotational constants: A =  12176.16959  B =    897.27158  C =    841.97995 [MHz]
  Nuclear repulsion =    9.183549815666264

  Charge       = 0
  Multiplicity = 1
  Electrons    = 10
  Nalpha       = 5
  Nbeta        = 5

  ==> Algorithm <==

  SCF Algorithm Type is DF.
  DIIS enabled.
  MOM disabled.
  Fractional occupation disabled.
  Guess Type is SAD.
  Energy threshold   = 1.00e-08
  Density threshold  = 1.00e-08
  Integral threshold = 0.00e+00

  ==> Primary Basis <==

  Basis Set: AUG-CC-PVTZ
    Blend: AUG-CC-PVTZ
    Number of shells: 96
    Number of basis function: 284
    Number of Cartesian functions: 328
    Spherical Harmonics?: true
    Max angular momentum: 3

   => Loading Basis Set <=

    Name: (AUG-CC-PVTZ AUX)
    Role: JKFIT
    Keyword: DF_BASIS_SCF
    atoms 1-2      entry CL         line   816 file /home/bdw2292/miniconda3/envs/amoebamdpoltype/share/psi4/basis/aug-cc-pvtz-jkfit.gbs 
    atoms 3        entry C          line   162 file /home/bdw2292/miniconda3/envs/amoebamdpoltype/share/psi4/basis/aug-cc-pvtz-jkfit.gbs 
    atoms 4-5, 7-8 entry H          line    70 file /home/bdw2292/miniconda3/envs/amoebamdpoltype/share/psi4/basis/aug-cc-pvtz-jkfit.gbs 
    atoms 6        entry O          line   286 file /home/bdw2292/miniconda3/envs/amoebamdpoltype/share/psi4/basis/aug-cc-pvtz-jkfit.gbs 

  ==> Pre-Iterations <==

   -------------------------------------------------------
    Irrep   Nso     Nmo     Nalpha   Nbeta   Ndocc  Nsocc
   -------------------------------------------------------
     A        284     284       0       0       0       0
   -------------------------------------------------------
    Total     284     284       5       5       5       0
   -------------------------------------------------------

  ==> Integral Setup <==

  DFHelper Memory: AOs need 0.393 GiB; user supplied 10.477 GiB. Using in-core AOs.

  ==> MemDFJK: Density-Fitted J/K Matrices <==

    J tasked:                   Yes
    K tasked:                   Yes
    wK tasked:                   No
    OpenMP threads:               4
    Memory [MiB]:             10728
    Algorithm:                 Core
    Schwarz Cutoff:           1E-12
    Mask sparsity (%):       9.7699
    Fitting Condition:        1E-10

   => Auxiliary Basis Set <=

  Basis Set: (AUG-CC-PVTZ AUX)
    Blend: AUG-CC-PVTZ-JKFIT
    Number of shells: 200
    Number of basis function: 684
    Number of Cartesian functions: 842
    Spherical Harmonics?: true
    Max angular momentum: 4

  Minimum eigenvalue in the overlap matrix is 6.3754951304E-05.
  Using Symmetric Orthogonalization.

  SCF Guess: Superposition of Atomic Densities via on-the-fly atomic UHF.

  ==> Iterations <==

                           Total Energy        Delta E     RMS |[F,P]|

   @DF-RHF iter SAD:   -75.47387605289563   -7.54739e+01   0.00000e+00 
   @DF-RHF iter   1:   -75.97658713284234   -5.02711e-01   1.65025e-03 DIIS
   @DF-RHF iter   2:   -76.02900354941123   -5.24164e-02   1.11820e-03 DIIS
   @DF-RHF iter   3:   -76.06002025712749   -3.10167e-02   7.59309e-05 DIIS
   @DF-RHF iter   4:   -76.06041002376644   -3.89767e-04   1.81331e-05 DIIS
   @DF-RHF iter   5:   -76.06043398596161   -2.39622e-05   4.08164e-06 DIIS
   @DF-RHF iter   6:   -76.06043594341354   -1.95745e-06   9.09169e-07 DIIS
   @DF-RHF iter   7:   -76.06043605150805   -1.08095e-07   1.72133e-07 DIIS
   @DF-RHF iter   8:   -76.06043605494749   -3.43944e-09   2.85331e-08 DIIS
   @DF-RHF iter   9:   -76.06043605502215   -7.46638e-11   7.08841e-09 DIIS
  Energy and wave function converged.


  ==> Post-Iterations <==

    Orbital Energies [Eh]
    ---------------------

    Doubly Occupied:                                                      

       1A    -20.565451     2A     -1.350664     3A     -0.725328  
       4A     -0.577089     5A     -0.509149  

    Virtual:                                                              

       6A      0.017172     7A      0.037756     8A      0.041912  
       9A      0.047126    10A      0.060572    11A      0.078959  
      12A      0.093335    13A      0.107563    14A      0.110316  
      15A      0.112864    16A      0.116946    17A      0.123578  
      18A      0.139571    19A      0.154626    20A      0.162101  
      21A      0.172940    22A      0.176517    23A      0.180611  
      24A      0.206981    25A      0.217626    26A      0.241639  
      27A      0.263106    28A      0.266373    29A      0.273945  
      30A      0.284667    31A      0.291508    32A      0.299338  
      33A      0.305374    34A      0.308644    35A      0.325756  
      36A      0.337172    37A      0.338759    38A      0.369506  
      39A      0.375586    40A      0.379469    41A      0.388793  
      42A      0.415258    43A      0.425602    44A      0.428798  
      45A      0.446363    46A      0.448444    47A      0.455011  
      48A      0.463046    49A      0.481297    50A      0.486106  
      51A      0.508793    52A      0.538193    53A      0.548041  
      54A      0.569373    55A      0.575935    56A      0.587678  
      57A      0.598893    58A      0.613938    59A      0.623295  
      60A      0.641814    61A      0.656486    62A      0.670064  
      63A      0.685104    64A      0.707235    65A      0.715772  
      66A      0.731744    67A      0.737907    68A      0.741284  
      69A      0.748757    70A      0.756741    71A      0.766012  
      72A      0.795479    73A      0.841147    74A      0.857710  
      75A      0.896701    76A      0.916132    77A      0.923426  
      78A      0.935111    79A      0.935908    80A      0.962637  
      81A      0.968652    82A      0.989614    83A      1.037800  
      84A      1.042953    85A      1.054376    86A      1.063047  
      87A      1.072982    88A      1.078193    89A      1.086525  
      90A      1.104430    91A      1.113602    92A      1.142299  
      93A      1.149257    94A      1.157062    95A      1.163916  
      96A      1.184854    97A      1.191680    98A      1.195211  
      99A      1.214196   100A      1.251221   101A      1.255141  
     102A      1.265394   103A      1.280334   104A      1.307110  
     105A      1.325829   106A      1.332253   107A      1.340224  
     108A      1.341387   109A      1.358702   110A      1.379961  
     111A      1.405404   112A      1.409315   113A      1.445763  
     114A      1.452107   115A      1.465102   116A      1.470636  
     117A      1.482288   118A      1.494623   119A      1.509432  
     120A      1.529059   121A      1.547726   122A      1.560027  
     123A      1.571122   124A      1.594546   125A      1.601290  
     126A      1.607469   127A      1.619854   128A      1.620106  
     129A      1.626695   130A      1.647291   131A      1.670008  
     132A      1.678979   133A      1.695391   134A      1.768655  
     135A      1.815724   136A      1.827931   137A      1.873193  
     138A      1.904187   139A      1.981805   140A      2.025228  
     141A      2.040679   142A      2.048532   143A      2.054892  
     144A      2.066359   145A      2.090015   146A      2.097038  
     147A      2.112545   148A      2.155089   149A      2.202173  
     150A      2.222226   151A      2.248853   152A      2.268353  
     153A      2.332962   154A      2.335943   155A      2.345474  
     156A      2.347939   157A      2.429473   158A      2.445554  
     159A      2.457616   160A      2.459529   161A      2.491643  
     162A      2.510282   163A      2.532527   164A      2.563421  
     165A      2.584902   166A      2.699398   167A      2.709972  
     168A      2.717573   169A      2.722746   170A      2.813983  
     171A      2.892842   172A      2.893537   173A      3.030963  
     174A      3.657401   175A      3.792359   176A      3.804042  
     177A      3.835588   178A      3.889573   179A      3.895428  
     180A      3.952979   181A      3.962975   182A      3.972338  
     183A      3.974651   184A      3.979735   185A      4.001821  
     186A      4.011359   187A      4.016154   188A      4.039904  
     189A      4.079610   190A      4.105656   191A      4.120447  
     192A      4.129606   193A      4.132532   194A      4.157879  
     195A      4.177223   196A      4.186073   197A      4.186523  
     198A      4.206195   199A      4.223899   200A      4.252066  
     201A      4.296949   202A      4.321336   203A      4.339088  
     204A      4.378249   205A      4.386018   206A      4.406862  
     207A      4.447830   208A      4.478237   209A      4.509194  
     210A      4.518339   211A      4.541850   212A      4.574875  
     213A      4.635374   214A      4.683627   215A      4.686107  
     216A      4.728532   217A      4.738327   218A      4.742153  
     219A      4.755937   220A      4.767699   221A      4.769732  
     222A      4.797396   223A      4.823711   224A      4.832631  
     225A      4.837406   226A      4.885455   227A      4.910915  
     228A      4.962635   229A      5.049579   230A      5.112180  
     231A      5.136583   232A      5.174942   233A      5.180218  
     234A      5.190197   235A      5.214578   236A      5.323506  
     237A      5.327673   238A      5.344336   239A      5.369120  
     240A      5.380417   241A      5.426153   242A      5.480192  
     243A      5.513804   244A      5.629660   245A      5.741619  
     246A      5.888636   247A      5.914457   248A      6.040008  
     249A      6.089235   250A      6.150113   251A      6.232746  
     252A      6.282723   253A      6.435162   254A      6.548639  
     255A      6.719383   256A      6.876022   257A      7.014572  
     258A      7.149048   259A      7.267656   260A      7.312895  
     261A      7.315376   262A      7.380310   263A      7.400855  
     264A      7.642001   265A      7.697199   266A      7.862036  
     267A      7.924863   268A      7.972355   269A      7.980340  
     270A      8.138815   271A      8.801913   272A      9.951582  
     273A     16.041647   274A     16.130316   275A     16.470858  
     276A     28.068466   277A     28.077524   278A     28.099153  
     279A     28.140469   280A     28.814825   281A     29.160482  
     282A     48.976807   283A    161.001043   284A    161.042941  

    Final Occupation by Irrep:
              A 
    DOCC [     5 ]

  @DF-RHF Final Energy:   -76.06043605502215

   => Energetics <=

    Nuclear Repulsion Energy =              9.1835498156662645
    One-Electron Energy =                -123.0326059154989764
    Two-Electron Energy =                  37.7886200448105569
    Total Energy =                        -76.0604360550221514

Computation Completed


Properties will be evaluated at  -0.000000,   0.000000,  -0.000000 [a0]

Properties computed using the SCF density matrix

  Nuclear Dipole Moment: [e a0]
     X:   -82.1171      Y:   -12.4990      Z:     7.0618

  Electronic Dipole Moment: [e a0]
     X:    82.7412      Y:    12.0858      Z:    -6.9717

  Dipole Moment: [e a0]
     X:     0.6240      Y:    -0.4132      Z:     0.0901     Total:     0.7539

  Dipole Moment: [D]
     X:     1.5862      Y:    -1.0504      Z:     0.2291     Total:     1.9162


*** tstop() called on node37.bme.utexas.edu at Tue Feb 22 17:55:11 2022
Module time:
	user time   =      27.27 seconds =       0.45 minutes
	system time =       1.53 seconds =       0.03 minutes
	total time  =         11 seconds =       0.18 minutes
Total time:
	user time   =      49.83 seconds =       0.83 minutes
	system time =       3.38 seconds =       0.06 minutes
	total time  =         22 seconds =       0.37 minutes

*** tstart() called on node37.bme.utexas.edu
*** at Tue Feb 22 17:55:11 2022


  //>>>>>>>>>>>>>>>>>>>>>>>>>>>>>>>>>>>//
  //               DFMP2               //
  //<<<<<<<<<<<<<<<<<<<<<<<<<<<<<<<<<<<//

   => Loading Basis Set <=

    Name: (AUG-CC-PVTZ AUX)
    Role: RIFIT
    Keyword: DF_BASIS_MP2
    atoms 1-2      entry CL         line   742 file /home/bdw2292/miniconda3/envs/amoebamdpoltype/share/psi4/basis/aug-cc-pvtz-ri.gbs 
    atoms 3        entry C          line   148 file /home/bdw2292/miniconda3/envs/amoebamdpoltype/share/psi4/basis/aug-cc-pvtz-ri.gbs 
    atoms 4-5, 7-8 entry H          line    30 file /home/bdw2292/miniconda3/envs/amoebamdpoltype/share/psi4/basis/aug-cc-pvtz-ri.gbs 
    atoms 6        entry O          line   264 file /home/bdw2292/miniconda3/envs/amoebamdpoltype/share/psi4/basis/aug-cc-pvtz-ri.gbs 

	 --------------------------------------------------------
	                          DF-MP2                         
	      2nd-Order Density-Fitted Moller-Plesset Theory     
	              RMP2 Wavefunction,   4 Threads             
	                                                         
	        Rob Parrish, Justin Turney, Andy Simmonett,      
	           Ed Hohenstein, and C. David Sherrill          
	 --------------------------------------------------------

   => Auxiliary Basis Set <=

  Basis Set: (AUG-CC-PVTZ AUX)
    Blend: AUG-CC-PVTZ-RI
    Number of shells: 186
    Number of basis function: 690
    Number of Cartesian functions: 874
    Spherical Harmonics?: true
    Max angular momentum: 4

	 --------------------------------------------------------
	                 NBF =   284, NAUX =   690
	 --------------------------------------------------------
	   CLASS    FOCC     OCC    AOCC    AVIR     VIR    FVIR
	   PAIRS       1       5       4     279     279       0
	 --------------------------------------------------------

	-----------------------------------------------------------
	 ==================> DF-MP2 Energies <==================== 
	-----------------------------------------------------------
	 Reference Energy          =     -76.0604360550221514 [Eh]
	 Singles Energy            =      -0.0000000000000000 [Eh]
	 Same-Spin Energy          =      -0.0650978462335565 [Eh]
	 Opposite-Spin Energy      =      -0.2030208758507392 [Eh]
	 Correlation Energy        =      -0.2681187220842957 [Eh]
	 Total Energy              =     -76.3285547771064472 [Eh]
	-----------------------------------------------------------
	 ================> DF-SCS-MP2 Energies <================== 
	-----------------------------------------------------------
	 SCS Same-Spin Scale       =       0.3333333333333333 [-]
	 SCS Opposite-Spin Scale   =       1.2000000000000000 [-]
	 SCS Same-Spin Energy      =      -0.0216992820778522 [Eh]
	 SCS Opposite-Spin Energy  =      -0.2436250510208871 [Eh]
	 SCS Correlation Energy    =      -0.2653243330987393 [Eh]
	 SCS Total Energy          =     -76.3257603881208837 [Eh]
	-----------------------------------------------------------


*** tstop() called on node37.bme.utexas.edu at Tue Feb 22 17:55:16 2022
Module time:
	user time   =      12.67 seconds =       0.21 minutes
	system time =       0.80 seconds =       0.01 minutes
	total time  =          5 seconds =       0.08 minutes
Total time:
	user time   =      62.51 seconds =       1.04 minutes
	system time =       4.18 seconds =       0.07 minutes
	total time  =         27 seconds =       0.45 minutes

  //>>>>>>>>>>>>>>>>>>>>>>>>>>>>>>>>>>>>//
  // CBS Computation: MP2 / AUG-CC-PVQZ //
  //<<<<<<<<<<<<<<<<<<<<<<<<<<<<<<<<<<<<//

    SCF Algorithm Type (re)set to DF.

*** tstart() called on node37.bme.utexas.edu
*** at Tue Feb 22 17:55:16 2022

   => Loading Basis Set <=

    Name: AUG-CC-PVQZ
    Role: ORBITAL
    Keyword: BASIS
    atoms 1-2      entry CL         line  1218 file /home/bdw2292/miniconda3/envs/amoebamdpoltype/share/psi4/basis/aug-cc-pvqz.gbs 
    atoms 3        entry C          line   299 file /home/bdw2292/miniconda3/envs/amoebamdpoltype/share/psi4/basis/aug-cc-pvqz.gbs 
    atoms 4-5, 7-8 entry H          line    36 file /home/bdw2292/miniconda3/envs/amoebamdpoltype/share/psi4/basis/aug-cc-pvqz.gbs 
    atoms 6        entry O          line   419 file /home/bdw2292/miniconda3/envs/amoebamdpoltype/share/psi4/basis/aug-cc-pvqz.gbs 


         ---------------------------------------------------------
                                   SCF
               by Justin Turney, Rob Parrish, Andy Simmonett
                          and Daniel G. A. Smith
                              RHF Reference
                        4 Threads,  14305 MiB Core
         ---------------------------------------------------------

  ==> Geometry <==

    Molecular point group: c1
    Full point group: C1

    Geometry (in Angstrom), charge = 0, multiplicity = 1:

       Center              X                  Y                   Z               Mass       
    ------------   -----------------  -----------------  -----------------  -----------------
      Gh(CL)         -0.398711122552     0.756681235610    -0.262802669506    34.968852682000
      Gh(CL)          2.393843577448    -0.150082164390     0.062990730494    34.968852682000
      Gh(C)           0.686625677448    -0.614405564390     0.015326730494    12.000000000000
      Gh(H)           0.432070777448    -1.065368364390     0.974627930494     1.007825032230
      Gh(H)           0.551756177448    -1.328702764390    -0.797165569506     1.007825032230
         O           -4.438047322552    -0.600135664390     0.360328430494    15.994914619570
         H           -4.410209022552    -1.517431764390     0.630812930494     1.007825032230
         H           -3.539919422552    -0.295663964390     0.223502030494     1.007825032230

  Running in c1 symmetry.

  Rotational constants: A =      0.40615  B =      0.02993  C =      0.02809 [cm^-1]
  Rotational constants: A =  12176.16959  B =    897.27158  C =    841.97995 [MHz]
  Nuclear repulsion =    9.183549815666264

  Charge       = 0
  Multiplicity = 1
  Electrons    = 10
  Nalpha       = 5
  Nbeta        = 5

  ==> Algorithm <==

  SCF Algorithm Type is DF.
  DIIS enabled.
  MOM disabled.
  Fractional occupation disabled.
  Guess Type is SAD.
  Energy threshold   = 1.00e-08
  Density threshold  = 1.00e-08
  Integral threshold = 0.00e+00

  ==> Primary Basis <==

  Basis Set: AUG-CC-PVQZ
    Blend: AUG-CC-PVQZ
    Number of shells: 140
    Number of basis function: 512
    Number of Cartesian functions: 648
    Spherical Harmonics?: true
    Max angular momentum: 4

   => Loading Basis Set <=

    Name: (AUG-CC-PVQZ AUX)
    Role: JKFIT
    Keyword: DF_BASIS_SCF
    atoms 1-2      entry CL         line   904 file /home/bdw2292/miniconda3/envs/amoebamdpoltype/share/psi4/basis/aug-cc-pvqz-jkfit.gbs 
    atoms 3        entry C          line   178 file /home/bdw2292/miniconda3/envs/amoebamdpoltype/share/psi4/basis/aug-cc-pvqz-jkfit.gbs 
    atoms 4-5, 7-8 entry H          line    70 file /home/bdw2292/miniconda3/envs/amoebamdpoltype/share/psi4/basis/aug-cc-pvqz-jkfit.gbs 
    atoms 6        entry O          line   318 file /home/bdw2292/miniconda3/envs/amoebamdpoltype/share/psi4/basis/aug-cc-pvqz-jkfit.gbs 

  ==> Pre-Iterations <==

   -------------------------------------------------------
    Irrep   Nso     Nmo     Nalpha   Nbeta   Ndocc  Nsocc
   -------------------------------------------------------
     A        512     512       0       0       0       0
   -------------------------------------------------------
    Total     512     512       5       5       5       0
   -------------------------------------------------------

  ==> Integral Setup <==

  DFHelper Memory: AOs need 1.684 GiB; user supplied 10.477 GiB. Using in-core AOs.

  ==> MemDFJK: Density-Fitted J/K Matrices <==

    J tasked:                   Yes
    K tasked:                   Yes
    wK tasked:                   No
    OpenMP threads:               4
    Memory [MiB]:             10728
    Algorithm:                 Core
    Schwarz Cutoff:           1E-12
    Mask sparsity (%):      14.0396
    Fitting Condition:        1E-10

   => Auxiliary Basis Set <=

  Basis Set: (AUG-CC-PVQZ AUX)
    Blend: AUG-CC-PVQZ-JKFIT
    Number of shells: 232
    Number of basis function: 956
    Number of Cartesian functions: 1294
    Spherical Harmonics?: true
    Max angular momentum: 5

  Minimum eigenvalue in the overlap matrix is 1.3314605046E-05.
  Using Symmetric Orthogonalization.

  SCF Guess: Superposition of Atomic Densities via on-the-fly atomic UHF.

  ==> Iterations <==

                           Total Energy        Delta E     RMS |[F,P]|

   @DF-RHF iter SAD:   -75.47903265323356   -7.54790e+01   0.00000e+00 
   @DF-RHF iter   1:   -75.98166693242061   -5.02634e-01   9.17302e-04 DIIS
   @DF-RHF iter   2:   -76.03418472280039   -5.25178e-02   6.22985e-04 DIIS
   @DF-RHF iter   3:   -76.06539771763673   -3.12130e-02   4.24228e-05 DIIS
   @DF-RHF iter   4:   -76.06578950831998   -3.91791e-04   1.03651e-05 DIIS
   @DF-RHF iter   5:   -76.06581435829848   -2.48500e-05   2.32457e-06 DIIS
   @DF-RHF iter   6:   -76.06581639746958   -2.03917e-06   5.31533e-07 DIIS
   @DF-RHF iter   7:   -76.06581651674114   -1.19272e-07   1.03845e-07 DIIS
   @DF-RHF iter   8:   -76.06581652078893   -4.04779e-09   1.66148e-08 DIIS
   @DF-RHF iter   9:   -76.06581652087326   -8.43272e-11   4.02270e-09 DIIS
  Energy and wave function converged.


  ==> Post-Iterations <==

    Orbital Energies [Eh]
    ---------------------

    Doubly Occupied:                                                      

       1A    -20.562968     2A     -1.349929     3A     -0.725286  
       4A     -0.577137     5A     -0.509275  

    Virtual:                                                              

       6A      0.015421     7A      0.033947     8A      0.037777  
       9A      0.042145    10A      0.053691    11A      0.070148  
      12A      0.082647    13A      0.090644    14A      0.092460  
      15A      0.096043    16A      0.097768    17A      0.107079  
      18A      0.122024    19A      0.135443    20A      0.141908  
      21A      0.146993    22A      0.151996    23A      0.154817  
      24A      0.178766    25A      0.189049    26A      0.203393  
      27A      0.212293    28A      0.220534    29A      0.224671  
      30A      0.230674    31A      0.238562    32A      0.252104  
      33A      0.255098    34A      0.259059    35A      0.269407  
      36A      0.274954    37A      0.279353    38A      0.286098  
      39A      0.294720    40A      0.300650    41A      0.310369  
      42A      0.331029    43A      0.335317    44A      0.345976  
      45A      0.350187    46A      0.361860    47A      0.363608  
      48A      0.369855    49A      0.374874    50A      0.390118  
      51A      0.399417    52A      0.406189    53A      0.436798  
      54A      0.440934    55A      0.458339    56A      0.459203  
      57A      0.462732    58A      0.474857    59A      0.500279  
      60A      0.500977    61A      0.508697    62A      0.524983  
      63A      0.545177    64A      0.552621    65A      0.555173  
      66A      0.555957    67A      0.559079    68A      0.564077  
      69A      0.565497    70A      0.580497    71A      0.595848  
      72A      0.625155    73A      0.644603    74A      0.652308  
      75A      0.661370    76A      0.674932    77A      0.678468  
      78A      0.696984    79A      0.700611    80A      0.710757  
      81A      0.716979    82A      0.736151    83A      0.753203  
      84A      0.761849    85A      0.772570    86A      0.783846  
      87A      0.798851    88A      0.799233    89A      0.804024  
      90A      0.812924    91A      0.817127    92A      0.832624  
      93A      0.850317    94A      0.866588    95A      0.869843  
      96A      0.870852    97A      0.887335    98A      0.895057  
      99A      0.909212   100A      0.924653   101A      0.935563  
     102A      0.936279   103A      0.946416   104A      0.957339  
     105A      0.973649   106A      0.980330   107A      0.984248  
     108A      0.998197   109A      1.012072   110A      1.021951  
     111A      1.027959   112A      1.034184   113A      1.050281  
     114A      1.053013   115A      1.058120   116A      1.060611  
     117A      1.063748   118A      1.083609   119A      1.096351  
     120A      1.099672   121A      1.114934   122A      1.139508  
     123A      1.143932   124A      1.151056   125A      1.156470  
     126A      1.162210   127A      1.176300   128A      1.200544  
     129A      1.209096   130A      1.220146   131A      1.237157  
     132A      1.252573   133A      1.276992   134A      1.294270  
     135A      1.318757   136A      1.392086   137A      1.409133  
     138A      1.440409   139A      1.448276   140A      1.461231  
     141A      1.475902   142A      1.498148   143A      1.509432  
     144A      1.517147   145A      1.532225   146A      1.545423  
     147A      1.561400   148A      1.568562   149A      1.592631  
     150A      1.599947   151A      1.602452   152A      1.612273  
     153A      1.616294   154A      1.627715   155A      1.638990  
     156A      1.649991   157A      1.659337   158A      1.679016  
     159A      1.684905   160A      1.693294   161A      1.705612  
     162A      1.710370   163A      1.718876   164A      1.729414  
     165A      1.754571   166A      1.779744   167A      1.785286  
     168A      1.810900   169A      1.821435   170A      1.843894  
     171A      1.854821   172A      1.867981   173A      1.874066  
     174A      1.884966   175A      1.889927   176A      1.894723  
     177A      1.908236   178A      1.914870   179A      1.924597  
     180A      1.934894   181A      1.951300   182A      1.963481  
     183A      1.973952   184A      1.990853   185A      2.011129  
     186A      2.021519   187A      2.035674   188A      2.046365  
     189A      2.058218   190A      2.066266   191A      2.078432  
     192A      2.089173   193A      2.094013   194A      2.124145  
     195A      2.132528   196A      2.142974   197A      2.159375  
     198A      2.167766   199A      2.178304   200A      2.188926  
     201A      2.214998   202A      2.219985   203A      2.227868  
     204A      2.236801   205A      2.264842   206A      2.283664  
     207A      2.290703   208A      2.310633   209A      2.337484  
     210A      2.360829   211A      2.373996   212A      2.389198  
     213A      2.406971   214A      2.434396   215A      2.440954  
     216A      2.455820   217A      2.470739   218A      2.482666  
     219A      2.503790   220A      2.511199   221A      2.519831  
     222A      2.533006   223A      2.555690   224A      2.559167  
     225A      2.561058   226A      2.585792   227A      2.590429  
     228A      2.608290   229A      2.616054   230A      2.637641  
     231A      2.671507   232A      2.684435   233A      2.711715  
     234A      2.731859   235A      2.749441   236A      2.758969  
     237A      2.790766   238A      2.796900   239A      2.834183  
     240A      2.845242   241A      2.852173   242A      2.894491  
     243A      2.899065   244A      2.902186   245A      2.911579  
     246A      2.978373   247A      2.982934   248A      3.001161  
     249A      3.009749   250A      3.019202   251A      3.027653  
     252A      3.035668   253A      3.055463   254A      3.073627  
     255A      3.091732   256A      3.102759   257A      3.112819  
     258A      3.143893   259A      3.181190   260A      3.229098  
     261A      3.238344   262A      3.258216   263A      3.267813  
     264A      3.319375   265A      3.321889   266A      3.327574  
     267A      3.337911   268A      3.340580   269A      3.372662  
     270A      3.399174   271A      3.403953   272A      3.405909  
     273A      3.437078   274A      3.479499   275A      3.518829  
     276A      3.571070   277A      3.612167   278A      3.630586  
     279A      3.634639   280A      3.641020   281A      3.671590  
     282A      3.706949   283A      3.711225   284A      3.723346  
     285A      3.747578   286A      3.786510   287A      3.819123  
     288A      3.841336   289A      3.866023   290A      3.874990  
     291A      3.902515   292A      3.923229   293A      3.934909  
     294A      4.086186   295A      4.099930   296A      4.107823  
     297A      4.117991   298A      4.128768   299A      4.160194  
     300A      4.163661   301A      4.185236   302A      4.211399  
     303A      4.232647   304A      4.277033   305A      4.288210  
     306A      4.313469   307A      4.407276   308A      4.426905  
     309A      4.434887   310A      4.471153   311A      4.563481  
     312A      4.579257   313A      4.660974   314A      4.668872  
     315A      4.737531   316A      4.805361   317A      4.816131  
     318A      4.818018   319A      4.826083   320A      4.844842  
     321A      4.889764   322A      4.904578   323A      4.947260  
     324A      4.969141   325A      5.035639   326A      5.072909  
     327A      5.232199   328A      5.308653   329A      5.400569  
     330A      5.419382   331A      5.436888   332A      5.452905  
     333A      5.467412   334A      5.470920   335A      5.494660  
     336A      5.533496   337A      5.571982   338A      5.600244  
     339A      5.620941   340A      5.633666   341A      5.660348  
     342A      5.706576   343A      5.772273   344A      5.801859  
     345A      5.820861   346A      5.833547   347A      5.856585  
     348A      5.880770   349A      5.886736   350A      5.901316  
     351A      5.966995   352A      5.986088   353A      6.077893  
     354A      6.119799   355A      6.253578   356A      6.297149  
     357A      6.303169   358A      6.338041   359A      6.344235  
     360A      6.389434   361A      6.414656   362A      6.435767  
     363A      6.461917   364A      6.467512   365A      6.519161  
     366A      6.523029   367A      6.535946   368A      6.565679  
     369A      6.639443   370A      6.839229   371A      6.862408  
     372A      6.864915   373A      6.892007   374A      6.975395  
     375A      6.991784   376A      7.009417   377A      7.064077  
     378A      7.086900   379A      7.107386   380A      7.170592  
     381A      7.252572   382A      7.293476   383A      7.313532  
     384A      7.372401   385A      7.495695   386A      7.548319  
     387A      7.601010   388A      7.631400   389A      7.655690  
     390A      7.666469   391A      7.711923   392A      7.725645  
     393A      7.753053   394A      7.793870   395A      7.843048  
     396A      7.851049   397A      7.855488   398A      7.861610  
     399A      7.865298   400A      7.870106   401A      7.884640  
     402A      7.921283   403A      7.938921   404A      7.964635  
     405A      7.971309   406A      7.976366   407A      7.982443  
     408A      8.036807   409A      8.087869   410A      8.154518  
     411A      8.173970   412A      8.199534   413A      8.245570  
     414A      8.256551   415A      8.313852   416A      8.384253  
     417A      8.386668   418A      8.403019   419A      8.452880  
     420A      8.560830   421A      8.595768   422A      8.648813  
     423A      8.671054   424A      8.674773   425A      8.736272  
     426A      8.774338   427A      8.818014   428A      8.836681  
     429A      8.882496   430A      8.929430   431A      8.986378  
     432A      9.024494   433A      9.085336   434A      9.159036  
     435A      9.164238   436A      9.173946   437A      9.299911  
     438A      9.385013   439A      9.517206   440A      9.525814  
     441A      9.546074   442A      9.553495   443A      9.566737  
     444A      9.688944   445A      9.748097   446A      9.770970  
     447A      9.799932   448A      9.866395   449A      9.976248  
     450A     10.004811   451A     10.020751   452A     10.061023  
     453A     10.110612   454A     10.343883   455A     10.357685  
     456A     10.456552   457A     10.514798   458A     10.675144  
     459A     10.679357   460A     10.728070   461A     10.781009  
     462A     10.788873   463A     10.796769   464A     10.963726  
     465A     11.001017   466A     11.043915   467A     11.089077  
     468A     11.134673   469A     11.272370   470A     11.382141  
     471A     11.407981   472A     11.415885   473A     11.456908  
     474A     11.704119   475A     11.767612   476A     11.816377  
     477A     11.851999   478A     12.041749   479A     12.076210  
     480A     12.180142   481A     12.252942   482A     12.551068  
     483A     12.750610   484A     12.881304   485A     12.898616  
     486A     13.003861   487A     13.012051   488A     13.220514  
     489A     13.928919   490A     14.001213   491A     14.118027  
     492A     14.282584   493A     14.489860   494A     14.849208  
     495A     14.888839   496A     15.321085   497A     16.719552  
     498A     16.958001   499A     17.280282   500A     17.310761  
     501A     31.091862   502A     31.096220   503A     31.109865  
     504A     31.140629   505A     31.312799   506A     31.363876  
     507A     42.723118   508A     43.346122   509A     45.588460  
     510A     70.497097   511A    160.343370   512A    160.419682  

    Final Occupation by Irrep:
              A 
    DOCC [     5 ]

  @DF-RHF Final Energy:   -76.06581652087326

   => Energetics <=

    Nuclear Repulsion Energy =              9.1835498156662645
    One-Electron Energy =                -123.0495404450105781
    Two-Electron Energy =                  37.8001741084710474
    Total Energy =                        -76.0658165208732555

Computation Completed


Properties will be evaluated at  -0.000000,   0.000000,  -0.000000 [a0]

Properties computed using the SCF density matrix

  Nuclear Dipole Moment: [e a0]
     X:   -82.1171      Y:   -12.4990      Z:     7.0618

  Electronic Dipole Moment: [e a0]
     X:    82.7402      Y:    12.0864      Z:    -6.9718

  Dipole Moment: [e a0]
     X:     0.6231      Y:    -0.4126      Z:     0.0900     Total:     0.7527

  Dipole Moment: [D]
     X:     1.5837      Y:    -1.0487      Z:     0.2288     Total:     1.9132


*** tstop() called on node37.bme.utexas.edu at Tue Feb 22 17:55:54 2022
Module time:
	user time   =      92.01 seconds =       1.53 minutes
	system time =       4.64 seconds =       0.08 minutes
	total time  =         38 seconds =       0.63 minutes
Total time:
	user time   =     154.57 seconds =       2.58 minutes
	system time =       8.83 seconds =       0.15 minutes
	total time  =         65 seconds =       1.08 minutes

*** tstart() called on node37.bme.utexas.edu
*** at Tue Feb 22 17:55:54 2022


  //>>>>>>>>>>>>>>>>>>>>>>>>>>>>>>>>>>>//
  //               DFMP2               //
  //<<<<<<<<<<<<<<<<<<<<<<<<<<<<<<<<<<<//

   => Loading Basis Set <=

    Name: (AUG-CC-PVQZ AUX)
    Role: RIFIT
    Keyword: DF_BASIS_MP2
    atoms 1-2      entry CL         line   914 file /home/bdw2292/miniconda3/envs/amoebamdpoltype/share/psi4/basis/aug-cc-pvqz-ri.gbs 
    atoms 3        entry C          line   184 file /home/bdw2292/miniconda3/envs/amoebamdpoltype/share/psi4/basis/aug-cc-pvqz-ri.gbs 
    atoms 4-5, 7-8 entry H          line    30 file /home/bdw2292/miniconda3/envs/amoebamdpoltype/share/psi4/basis/aug-cc-pvqz-ri.gbs 
    atoms 6        entry O          line   332 file /home/bdw2292/miniconda3/envs/amoebamdpoltype/share/psi4/basis/aug-cc-pvqz-ri.gbs 

	 --------------------------------------------------------
	                          DF-MP2                         
	      2nd-Order Density-Fitted Moller-Plesset Theory     
	              RMP2 Wavefunction,   4 Threads             
	                                                         
	        Rob Parrish, Justin Turney, Andy Simmonett,      
	           Ed Hohenstein, and C. David Sherrill          
	 --------------------------------------------------------

   => Auxiliary Basis Set <=

  Basis Set: (AUG-CC-PVQZ AUX)
    Blend: AUG-CC-PVQZ-RI
    Number of shells: 240
    Number of basis function: 1044
    Number of Cartesian functions: 1430
    Spherical Harmonics?: true
    Max angular momentum: 5

	 --------------------------------------------------------
	                 NBF =   512, NAUX =  1044
	 --------------------------------------------------------
	   CLASS    FOCC     OCC    AOCC    AVIR     VIR    FVIR
	   PAIRS       1       5       4     507     507       0
	 --------------------------------------------------------

	-----------------------------------------------------------
	 ==================> DF-MP2 Energies <==================== 
	-----------------------------------------------------------
	 Reference Energy          =     -76.0658165208732555 [Eh]
	 Singles Energy            =      -0.0000000000000000 [Eh]
	 Same-Spin Energy          =      -0.0671632809598033 [Eh]
	 Opposite-Spin Energy      =      -0.2185337523972723 [Eh]
	 Correlation Energy        =      -0.2856970333570756 [Eh]
	 Total Energy              =     -76.3515135542303369 [Eh]
	-----------------------------------------------------------
	 ================> DF-SCS-MP2 Energies <================== 
	-----------------------------------------------------------
	 SCS Same-Spin Scale       =       0.3333333333333333 [-]
	 SCS Opposite-Spin Scale   =       1.2000000000000000 [-]
	 SCS Same-Spin Energy      =      -0.0223877603199344 [Eh]
	 SCS Opposite-Spin Energy  =      -0.2622405028767267 [Eh]
	 SCS Correlation Energy    =      -0.2846282631966612 [Eh]
	 SCS Total Energy          =     -76.3504447840699214 [Eh]
	-----------------------------------------------------------


*** tstop() called on node37.bme.utexas.edu at Tue Feb 22 17:56:11 2022
Module time:
	user time   =      41.15 seconds =       0.69 minutes
	system time =       2.41 seconds =       0.04 minutes
	total time  =         17 seconds =       0.28 minutes
Total time:
	user time   =     195.72 seconds =       3.26 minutes
	system time =      11.24 seconds =       0.19 minutes
	total time  =         82 seconds =       1.37 minutes

  //>>>>>>>>>>>>>>>>>>>>>>>>>>>>>>>>>>>//
  //  CBS Results: mp2/aug-cc-pV[TQ]Z  //
  //<<<<<<<<<<<<<<<<<<<<<<<<<<<<<<<<<<<//


   ==> HF <==

   HI-zeta (4) Energy:               -76.065816520873


   ==> Helgaker 2-point correlated extrapolation for method: MP2 <==

   LO-zeta (3) Energy:               -76.328554777106
   HI-zeta (4) Energy:               -76.351513554230
   Alpha (exponent) Value:             3.000000000000
   Extrapolated Energy:              -76.368267256456

   @Extrapolated MP2/(T,Q):          -76.368267256456



   ==> Helgaker 2-point correlated extrapolation for method: HF <==

   LO-zeta (3) Energy:               -76.060436055022
   HI-zeta (4) Energy:               -76.065816520873
   Alpha (exponent) Value:             3.000000000000
   Extrapolated Energy:              -76.069742806765

   @Extrapolated HF/(T,Q):           -76.069742806765


   ==> Components <==

  ---------------------------------------------------------------------------------------------------------
                          Method / Basis                      Rqd      Energy [Eh]   Variable
  ---------------------------------------------------------------------------------------------------------
                              hf / aug-cc-pvtz                  *     -76.06043606   HF TOTAL ENERGY
                             mp2 / aug-cc-pvtz                  *     -76.32855478   MP2 TOTAL ENERGY
                              hf / aug-cc-pvqz                  *     -76.06581652   HF TOTAL ENERGY
                             mp2 / aug-cc-pvqz                  *     -76.35151355   MP2 TOTAL ENERGY
  ---------------------------------------------------------------------------------------------------------

   ==> Stages <==

  ---------------------------------------------------------------------------------------------------------
      Stage               Method / Basis                       Wt      Energy [Eh]   Scheme
  ---------------------------------------------------------------------------------------------------------
        scf                   hf / aug-cc-pvqz                  1     -76.06581652   xtpl_highest_1
       corl                  mp2 / aug-cc-pv[tq]z               1     -76.36826726   corl_xtpl_helgaker_2
       corl                   hf / aug-cc-pv[tq]z              -1     -76.06974281   corl_xtpl_helgaker_2
  ---------------------------------------------------------------------------------------------------------

   ==> CBS <==

  ---------------------------------------------------------------------------------------------------------
      Stage               Method / Basis                               Energy [Eh]   Scheme
  ---------------------------------------------------------------------------------------------------------
        scf                   hf / aug-cc-pvqz                        -76.06581652   xtpl_highest_1
       corl                  mp2 / aug-cc-pv[tq]z                      -0.29852445   corl_xtpl_helgaker_2
      total                  CBS                                      -76.36434097   
  ---------------------------------------------------------------------------------------------------------
   => Loading Basis Set <=

    Name: DEF2-SVP
    Role: ORBITAL
    Keyword: BASIS
    atoms 1-2      entry CL         line   356 file /home/bdw2292/miniconda3/envs/amoebamdpoltype/share/psi4/basis/def2-svp.gbs 
    atoms 3        entry C          line    90 file /home/bdw2292/miniconda3/envs/amoebamdpoltype/share/psi4/basis/def2-svp.gbs 
    atoms 4-5, 7-8 entry H          line    15 file /home/bdw2292/miniconda3/envs/amoebamdpoltype/share/psi4/basis/def2-svp.gbs 
    atoms 6        entry O          line   130 file /home/bdw2292/miniconda3/envs/amoebamdpoltype/share/psi4/basis/def2-svp.gbs 


       N-Body: Complex Energy (fragments = (2,), basis = (1, 2):   -76.36434097056453)

       N-Body: Computing complex (3/4) with fragments (1,) in the basis of fragments (1, 2).


  //>>>>>>>>>>>>>>>>>>>>>>>>>>>>>>>>>>>//
  //   CBS Setup: mp2/aug-cc-pV[TQ]Z   //
  //<<<<<<<<<<<<<<<<<<<<<<<<<<<<<<<<<<<//

    Naive listing of computations required.
             hf / aug-cc-pvqz              for  HF TOTAL ENERGY
            mp2 / aug-cc-pvtz              for  MP2 TOTAL ENERGY
            mp2 / aug-cc-pvqz              for  MP2 TOTAL ENERGY
             hf / aug-cc-pvtz              for  HF TOTAL ENERGY
             hf / aug-cc-pvqz              for  HF TOTAL ENERGY

    Enlightened listing of computations required.
            mp2 / aug-cc-pvtz              for  MP2 TOTAL ENERGY
            mp2 / aug-cc-pvqz              for  MP2 TOTAL ENERGY

    Full listing of computations to be obtained (required and bonus).
             hf / aug-cc-pvtz              for  HF TOTAL ENERGY
            mp2 / aug-cc-pvtz              for  MP2 TOTAL ENERGY
             hf / aug-cc-pvqz              for  HF TOTAL ENERGY
            mp2 / aug-cc-pvqz              for  MP2 TOTAL ENERGY

  //>>>>>>>>>>>>>>>>>>>>>>>>>>>>>>>>>>>>//
  // CBS Computation: MP2 / AUG-CC-PVTZ //
  //<<<<<<<<<<<<<<<<<<<<<<<<<<<<<<<<<<<<//

    SCF Algorithm Type (re)set to DF.

*** tstart() called on node37.bme.utexas.edu
*** at Tue Feb 22 17:56:13 2022

   => Loading Basis Set <=

    Name: AUG-CC-PVTZ
    Role: ORBITAL
    Keyword: BASIS
    atoms 1-2      entry CL         line   984 file /home/bdw2292/miniconda3/envs/amoebamdpoltype/share/psi4/basis/aug-cc-pvtz.gbs 
    atoms 3        entry C          line   235 file /home/bdw2292/miniconda3/envs/amoebamdpoltype/share/psi4/basis/aug-cc-pvtz.gbs 
    atoms 4-5, 7-8 entry H          line    36 file /home/bdw2292/miniconda3/envs/amoebamdpoltype/share/psi4/basis/aug-cc-pvtz.gbs 
[...]
      66A      0.347034    67A      0.351228    68A      0.358902  
      69A      0.360966    70A      0.363866    71A      0.370883  
      72A      0.375159    73A      0.386298    74A      0.397027  
      75A      0.413097    76A      0.423072    77A      0.445639  
      78A      0.479638    79A      0.485464    80A      0.503084  
      81A      0.521131    82A      0.529853    83A      0.537061  
      84A      0.541691    85A      0.556156    86A      0.557990  
      87A      0.565893    88A      0.568598    89A      0.571151  
      90A      0.578839    91A      0.583180    92A      0.592184  
      93A      0.605464    94A      0.616544    95A      0.626136  
      96A      0.637896    97A      0.652465    98A      0.656340  
      99A      0.659598   100A      0.666632   101A      0.673464  
     102A      0.681126   103A      0.684659   104A      0.697807  
     105A      0.710148   106A      0.716052   107A      0.722722  
     108A      0.729973   109A      0.740922   110A      0.747932  
     111A      0.757206   112A      0.767631   113A      0.770127  
     114A      0.776874   115A      0.785497   116A      0.797902  
     117A      0.800225   118A      0.808632   119A      0.824780  
     120A      0.827664   121A      0.840124   122A      0.849945  
     123A      0.864480   124A      0.885182   125A      0.888441  
     126A      0.896797   127A      0.903446   128A      0.924542  
     129A      0.926517   130A      0.940436   131A      0.946605  
     132A      0.974219   133A      0.986138   134A      1.002770  
     135A      1.010546   136A      1.034550   137A      1.045391  
     138A      1.059635   139A      1.066928   140A      1.101580  
     141A      1.112656   142A      1.122238   143A      1.131616  
     144A      1.141874   145A      1.152140   146A      1.158952  
     147A      1.183545   148A      1.192720   149A      1.201454  
     150A      1.206581   151A      1.219823   152A      1.230712  
     153A      1.235184   154A      1.243242   155A      1.255284  
     156A      1.256716   157A      1.283144   158A      1.312850  
     159A      1.322430   160A      1.327860   161A      1.338051  
     162A      1.398469   163A      1.409425   164A      1.415181  
     165A      1.456259   166A      1.482540   167A      1.497904  
     168A      1.507183   169A      1.517763   170A      1.544494  
     171A      1.568476   172A      1.589758   173A      1.601703  
     174A      1.625819   175A      1.631045   176A      1.640098  
     177A      1.664224   178A      1.669486   179A      1.684276  
     180A      1.688440   181A      1.694803   182A      1.700729  
     183A      1.705091   184A      1.713130   185A      1.730555  
     186A      1.742370   187A      1.762079   188A      1.766026  
     189A      1.773193   190A      1.775185   191A      1.793662  
     192A      1.795742   193A      1.810120   194A      1.816809  
     195A      1.839031   196A      1.845407   197A      1.861139  
     198A      1.864858   199A      1.878356   200A      1.881632  
     201A      1.888095   202A      1.896443   203A      1.901357  
     204A      1.902252   205A      1.916450   206A      1.924081  
     207A      1.937373   208A      1.948242   209A      1.960452  
     210A      1.970221   211A      1.981068   212A      1.991143  
     213A      2.000454   214A      2.026714   215A      2.034817  
     216A      2.040722   217A      2.047846   218A      2.055881  
     219A      2.062079   220A      2.068812   221A      2.077788  
     222A      2.082078   223A      2.088576   224A      2.108423  
     225A      2.118423   226A      2.123183   227A      2.139573  
     228A      2.143843   229A      2.152716   230A      2.173866  
     231A      2.180037   232A      2.184423   233A      2.199447  
     234A      2.222689   235A      2.242496   236A      2.245617  
     237A      2.250218   238A      2.258675   239A      2.265553  
     240A      2.273478   241A      2.286809   242A      2.299444  
     243A      2.320968   244A      2.344322   245A      2.352909  
     246A      2.355938   247A      2.373508   248A      2.410760  
     249A      2.416883   250A      2.421263   251A      2.433150  
     252A      2.450959   253A      2.466409   254A      2.491231  
     255A      2.493259   256A      2.503481   257A      2.509544  
     258A      2.548850   259A      2.575163   260A      2.601694  
     261A      2.611579   262A      2.627325   263A      2.640650  
     264A      2.707885   265A      2.720357   266A      2.738407  
     267A      2.776518   268A      2.814723   269A      2.817377  
     270A      2.891347   271A      2.895113   272A      2.897835  
     273A      2.900288   274A      2.907532   275A      2.979608  
     276A      3.001090   277A      3.015976   278A      3.020677  
     279A      3.032102   280A      3.068626   281A      3.086414  
     282A      3.095268   283A      3.107279   284A      3.162548  
     285A      3.196945   286A      3.203891   287A      3.233802  
     288A      3.261912   289A      3.310247   290A      3.316465  
     291A      3.323737   292A      3.355241   293A      3.364699  
     294A      3.383642   295A      3.455261   296A      3.474666  
     297A      3.512997   298A      3.557348   299A      3.582061  
     300A      3.627382   301A      3.634818   302A      3.671858  
     303A      3.703569   304A      3.712029   305A      3.723078  
     306A      3.741880   307A      3.749780   308A      3.779627  
     309A      3.803435   310A      3.829130   311A      3.906469  
     312A      3.932547   313A      3.938950   314A      3.949722  
     315A      4.012172   316A      4.087618   317A      4.109495  
     318A      4.140970   319A      4.163745   320A      4.183601  
     321A      4.191463   322A      4.197540   323A      4.212112  
     324A      4.233322   325A      4.286291   326A      4.347652  
     327A      4.366433   328A      4.395578   329A      4.435557  
     330A      4.477352   331A      4.495775   332A      4.502842  
     333A      4.536674   334A      4.538855   335A      4.562180  
     336A      4.573326   337A      4.580352   338A      4.659303  
     339A      4.675076   340A      4.679317   341A      4.684538  
     342A      4.701772   343A      4.720619   344A      4.726835  
     345A      4.742748   346A      4.750798   347A      4.759089  
     348A      4.762665   349A      4.773143   350A      4.782437  
     351A      4.801756   352A      4.818642   353A      4.823381  
     354A      4.825940   355A      4.832940   356A      4.850579  
     357A      4.853656   358A      4.877366   359A      4.888744  
     360A      4.899470   361A      4.921592   362A      4.925113  
     363A      4.929474   364A      4.933557   365A      4.956279  
     366A      4.983787   367A      5.013640   368A      5.032852  
     369A      5.042761   370A      5.056520   371A      5.073881  
     372A      5.100446   373A      5.176818   374A      5.206179  
     375A      5.224474   376A      5.245723   377A      5.304536  
     378A      5.315364   379A      5.380731   380A      5.399323  
     381A      5.409739   382A      5.436140   383A      5.517313  
     384A      5.543023   385A      5.583725   386A      5.663876  
     387A      5.887441   388A      5.903144   389A      6.110557  
     390A      6.266756   391A      6.303085   392A      6.345990  
     393A      6.348744   394A      6.371697   395A      6.387776  
     396A      6.524538   397A      6.568100   398A      6.605196  
     399A      6.652550   400A      6.727366   401A      6.763822  
     402A      6.812587   403A      6.817298   404A      6.831573  
     405A      6.841303   406A      6.863655   407A      6.866013  
     408A      6.882655   409A      6.936773   410A      6.938807  
     411A      6.976322   412A      6.992672   413A      6.999853  
     414A      7.025922   415A      7.145712   416A      7.169801  
     417A      7.227128   418A      7.352139   419A      7.431797  
     420A      7.454561   421A      7.565040   422A      7.587388  
     423A      7.605106   424A      7.662208   425A      7.714648  
     426A      7.747624   427A      7.760710   428A      7.795020  
     429A      7.802860   430A      7.846117   431A      7.864886  
     432A      7.886514   433A      7.934274   434A      7.981552  
     435A      8.009247   436A      8.044643   437A      8.088110  
     438A      8.112037   439A      8.200944   440A      8.311124  
     441A      8.387453   442A      8.494844   443A      8.534030  
     444A      8.561236   445A      8.587786   446A      8.600688  
     447A      8.719740   448A      8.739858   449A      8.774932  
     450A      8.802097   451A      8.833384   452A      8.860948  
     453A      8.883779   454A      8.934348   455A      8.988016  
     456A      9.088045   457A      9.118281   458A      9.163314  
     459A      9.209697   460A      9.428244   461A      9.464734  
     462A      9.495069   463A      9.501207   464A      9.535287  
     465A      9.541194   466A      9.773375   467A      9.867809  
     468A      9.934072   469A      9.946082   470A      9.977979  
     471A     10.006376   472A     10.022436   473A     10.301446  
     474A     10.383317   475A     10.457528   476A     10.516712  
     477A     10.573351   478A     10.729905   479A     10.755251  
     480A     10.774063   481A     11.001685   482A     11.044795  
     483A     11.051674   484A     11.133045   485A     11.273830  
     486A     11.384268   487A     11.458099   488A     11.705426  
     489A     11.816808   490A     11.853140   491A     12.042722  
     492A     12.181355   493A     12.253934   494A     12.552089  
     495A     12.751777   496A     12.882886   497A     12.899878  
     498A     13.009893   499A     13.079720   500A     13.221887  
     501A     14.002326   502A     14.118547   503A     14.491261  
     504A     14.850664   505A     14.890098   506A     15.322422  
     507A     16.959361   508A     17.281850   509A     25.988707  
     510A     26.669993   511A     27.892456   512A     45.588756  

    Final Occupation by Irrep:
              A 
    DOCC [    26 ]

  @DF-RHF Final Energy: -1034.15472353211635

   => Energetics <=

    Nuclear Repulsion Energy =            186.4189254489074017
    One-Electron Energy =               -1798.6963479226924392
    Two-Electron Energy =                 578.1226989416686592
    Total Energy =                      -1034.1547235321163498

Computation Completed


Properties will be evaluated at  -0.000000,   0.000000,  -0.000000 [a0]

Properties computed using the SCF density matrix

  Nuclear Dipole Moment: [e a0]
     X:    -8.3784      Y:    -4.5023      Z:     1.1519

  Electronic Dipole Moment: [e a0]
     X:     8.8578      Y:     3.4440      Z:    -0.9885

  Dipole Moment: [e a0]
     X:     0.4793      Y:    -1.0583      Z:     0.1634     Total:     1.1732

  Dipole Moment: [D]
     X:     1.2184      Y:    -2.6900      Z:     0.4153     Total:     2.9821


*** tstop() called on node37.bme.utexas.edu at Tue Feb 22 17:59:03 2022
Module time:
	user time   =     111.75 seconds =       1.86 minutes
	system time =       6.67 seconds =       0.11 minutes
	total time  =         42 seconds =       0.70 minutes
Total time:
	user time   =     632.45 seconds =      10.54 minutes
	system time =      36.31 seconds =       0.61 minutes
	total time  =        254 seconds =       4.23 minutes

*** tstart() called on node37.bme.utexas.edu
*** at Tue Feb 22 17:59:03 2022


  //>>>>>>>>>>>>>>>>>>>>>>>>>>>>>>>>>>>//
  //               DFMP2               //
  //<<<<<<<<<<<<<<<<<<<<<<<<<<<<<<<<<<<//

   => Loading Basis Set <=

    Name: (AUG-CC-PVQZ AUX)
    Role: RIFIT
    Keyword: DF_BASIS_MP2
    atoms 1-2      entry CL         line   914 file /home/bdw2292/miniconda3/envs/amoebamdpoltype/share/psi4/basis/aug-cc-pvqz-ri.gbs 
    atoms 3        entry C          line   184 file /home/bdw2292/miniconda3/envs/amoebamdpoltype/share/psi4/basis/aug-cc-pvqz-ri.gbs 
    atoms 4-5, 7-8 entry H          line    30 file /home/bdw2292/miniconda3/envs/amoebamdpoltype/share/psi4/basis/aug-cc-pvqz-ri.gbs 
    atoms 6        entry O          line   332 file /home/bdw2292/miniconda3/envs/amoebamdpoltype/share/psi4/basis/aug-cc-pvqz-ri.gbs 

	 --------------------------------------------------------
	                          DF-MP2                         
	      2nd-Order Density-Fitted Moller-Plesset Theory     
	              RMP2 Wavefunction,   4 Threads             
	                                                         
	        Rob Parrish, Justin Turney, Andy Simmonett,      
	           Ed Hohenstein, and C. David Sherrill          
	 --------------------------------------------------------

   => Auxiliary Basis Set <=

  Basis Set: (AUG-CC-PVQZ AUX)
    Blend: AUG-CC-PVQZ-RI
    Number of shells: 240
    Number of basis function: 1044
    Number of Cartesian functions: 1430
    Spherical Harmonics?: true
    Max angular momentum: 5

	 --------------------------------------------------------
	                 NBF =   512, NAUX =  1044
	 --------------------------------------------------------
	   CLASS    FOCC     OCC    AOCC    AVIR     VIR    FVIR
	   PAIRS      12      26      14     486     486       0
	 --------------------------------------------------------

	-----------------------------------------------------------
	 ==================> DF-MP2 Energies <==================== 
	-----------------------------------------------------------
	 Reference Energy          =   -1034.1547235321163498 [Eh]
	 Singles Energy            =      -0.0000000000000000 [Eh]
	 Same-Spin Energy          =      -0.2090920015717386 [Eh]
	 Opposite-Spin Energy      =      -0.6861609734497638 [Eh]
	 Correlation Energy        =      -0.8952529750215024 [Eh]
	 Total Energy              =   -1035.0499765071378988 [Eh]
	-----------------------------------------------------------
	 ================> DF-SCS-MP2 Energies <================== 
	-----------------------------------------------------------
	 SCS Same-Spin Scale       =       0.3333333333333333 [-]
	 SCS Opposite-Spin Scale   =       1.2000000000000000 [-]
	 SCS Same-Spin Energy      =      -0.0696973338572462 [Eh]
	 SCS Opposite-Spin Energy  =      -0.8233931681397165 [Eh]
	 SCS Correlation Energy    =      -0.8930905019969627 [Eh]
	 SCS Total Energy          =   -1035.0478140341133440 [Eh]
	-----------------------------------------------------------


*** tstop() called on node37.bme.utexas.edu at Tue Feb 22 17:59:21 2022
Module time:
	user time   =      48.31 seconds =       0.81 minutes
	system time =       2.82 seconds =       0.05 minutes
	total time  =         18 seconds =       0.30 minutes
Total time:
	user time   =     680.76 seconds =      11.35 minutes
	system time =      39.13 seconds =       0.65 minutes
	total time  =        272 seconds =       4.53 minutes

  //>>>>>>>>>>>>>>>>>>>>>>>>>>>>>>>>>>>//
  //  CBS Results: mp2/aug-cc-pV[TQ]Z  //
  //<<<<<<<<<<<<<<<<<<<<<<<<<<<<<<<<<<<//


   ==> HF <==

   HI-zeta (4) Energy:               -1034.154723532116


   ==> Helgaker 2-point correlated extrapolation for method: MP2 <==

   LO-zeta (3) Energy:               -1034.974410806265
   HI-zeta (4) Energy:               -1035.049976507138
   Alpha (exponent) Value:             3.000000000000
   Extrapolated Energy:              -1035.105119045613

   @Extrapolated MP2/(T,Q):          -1035.105119045613



   ==> Helgaker 2-point correlated extrapolation for method: HF <==

   LO-zeta (3) Energy:               -1034.139653629531
   HI-zeta (4) Energy:               -1034.154723532116
   Alpha (exponent) Value:             3.000000000000
   Extrapolated Energy:              -1034.165720488057

   @Extrapolated HF/(T,Q):           -1034.165720488057


   ==> Components <==

  ---------------------------------------------------------------------------------------------------------
                          Method / Basis                      Rqd      Energy [Eh]   Variable
  ---------------------------------------------------------------------------------------------------------
                              hf / aug-cc-pvtz                  *   -1034.13965363   HF TOTAL ENERGY
                             mp2 / aug-cc-pvtz                  *   -1034.97441081   MP2 TOTAL ENERGY
                              hf / aug-cc-pvqz                  *   -1034.15472353   HF TOTAL ENERGY
                             mp2 / aug-cc-pvqz                  *   -1035.04997651   MP2 TOTAL ENERGY
  ---------------------------------------------------------------------------------------------------------

   ==> Stages <==

  ---------------------------------------------------------------------------------------------------------
      Stage               Method / Basis                       Wt      Energy [Eh]   Scheme
  ---------------------------------------------------------------------------------------------------------
        scf                   hf / aug-cc-pvqz                  1   -1034.15472353   xtpl_highest_1
       corl                  mp2 / aug-cc-pv[tq]z               1   -1035.10511905   corl_xtpl_helgaker_2
       corl                   hf / aug-cc-pv[tq]z              -1   -1034.16572049   corl_xtpl_helgaker_2
  ---------------------------------------------------------------------------------------------------------

   ==> CBS <==

  ---------------------------------------------------------------------------------------------------------
      Stage               Method / Basis                               Energy [Eh]   Scheme
  ---------------------------------------------------------------------------------------------------------
        scf                   hf / aug-cc-pvqz                      -1034.15472353   xtpl_highest_1
       corl                  mp2 / aug-cc-pv[tq]z                      -0.93939856   corl_xtpl_helgaker_2
      total                  CBS                                    -1035.09412209   
  ---------------------------------------------------------------------------------------------------------
   => Loading Basis Set <=

    Name: DEF2-SVP
    Role: ORBITAL
    Keyword: BASIS
    atoms 1-2      entry CL         line   356 file /home/bdw2292/miniconda3/envs/amoebamdpoltype/share/psi4/basis/def2-svp.gbs 
    atoms 3        entry C          line    90 file /home/bdw2292/miniconda3/envs/amoebamdpoltype/share/psi4/basis/def2-svp.gbs 
    atoms 4-5, 7-8 entry H          line    15 file /home/bdw2292/miniconda3/envs/amoebamdpoltype/share/psi4/basis/def2-svp.gbs 
    atoms 6        entry O          line   130 file /home/bdw2292/miniconda3/envs/amoebamdpoltype/share/psi4/basis/def2-svp.gbs 


       N-Body: Complex Energy (fragments = (1, 2), basis = (1, 2): -1035.09412208967228)

   ==> N-Body: Counterpoise Corrected (CP) energies <==

   n-Body     Total Energy [Eh]       I.E. [kcal/mol]      Delta [kcal/mol]
        1    -1035.093138617483        0.000000000000        0.000000000000
        2    -1035.094089962972       -0.596978307076       -0.596978307076

   => Loading Basis Set <=

    Name: DEF2-SVP
    Role: ORBITAL
    Keyword: BASIS
    atoms 1-2      entry CL         line   356 file /home/bdw2292/miniconda3/envs/amoebamdpoltype/share/psi4/basis/def2-svp.gbs 
    atoms 3        entry C          line    90 file /home/bdw2292/miniconda3/envs/amoebamdpoltype/share/psi4/basis/def2-svp.gbs 
    atoms 4-5, 7-8 entry H          line    15 file /home/bdw2292/miniconda3/envs/amoebamdpoltype/share/psi4/basis/def2-svp.gbs 
    atoms 6        entry O          line   130 file /home/bdw2292/miniconda3/envs/amoebamdpoltype/share/psi4/basis/def2-svp.gbs 

CP Energy =  -0.000951
    Psi4 stopped on: Tuesday, 22 February 2022 05:59PM
    Psi4 wall time for execution: 0:04:33.08

*** Psi4 exiting successfully. Buy a developer a beer!
