
    -----------------------------------------------------------------------
          Psi4: An Open-Source Ab Initio Electronic Structure Package
                               Psi4 1.3.2 release

                         Git: Rev {HEAD} ecbda83 


    R. M. Parrish, L. A. Burns, D. G. A. Smith, A. C. Simmonett,
    A. E. DePrince III, E. G. Hohenstein, U. Bozkaya, A. Yu. Sokolov,
    R. Di Remigio, R. M. Richard, J. F. Gonthier, A. M. James,
    H. R. McAlexander, A. Kumar, M. Saitow, X. Wang, B. P. Pritchard,
    P. Verma, H. F. Schaefer III, K. Patkowski, R. A. King, E. F. Valeev,
    F. A. Evangelista, J. M. Turney, T. D. Crawford, and C. D. Sherrill,
    J. Chem. Theory Comput. 13(7) pp 3185--3197 (2017).
    (doi: 10.1021/acs.jctc.7b00174)


                         Additional Contributions by
    P. Kraus, H. Kruse, M. H. Lechner, M. C. Schieber, R. A. Shaw,
    A. Alenaizan, R. Galvelis, Z. L. Glick, S. Lehtola, and J. P. Misiewicz

    -----------------------------------------------------------------------


    Psi4 started on: Tuesday, 22 February 2022 06:17PM

    Process ID: 30716
    Host:       node37.bme.utexas.edu
    PSIDATADIR: /home/bdw2292/miniconda3/envs/amoebamdpoltype/share/psi4
    Memory:     500.0 MiB
    Threads:    1
    
  ==> Input File <==

--------------------------------------------------------------------------
molecule { 
0 1
 Cl                 -1.6165076    -0.1445430    -0.0459072
 Cl                  1.2931214     0.2390112    -0.0222988
  C                 -0.0333139    -0.9299819     0.0416379
  H                  0.0307675    -1.4731636     0.9845730
  H                  0.0628634    -1.6089770    -0.8056818
--
0 1
  O                 -0.2918523     4.3769163     0.0433404
  H                 -0.3793255     3.4501033     0.2694881
  H                  0.2596389     4.4378901    -0.7362028
}
memory 15GB
set_num_threads(4)
psi4_io.set_default_path("/scratch/bdw2292/Psi4-CH2Cl2")
set maxiter 500
set freeze_core True
set PROPERTIES_ORIGIN ["COM"]
e_dim= energy('mp2/aug-cc-pV[TQ]Z',bsse_type='cp')

psi4.print_out('CP Energy = %10.6f' % (e_dim))
clean()
--------------------------------------------------------------------------

  Memory set to  13.970 GiB by Python driver.
  Threads set to 4 by Python driver.


   ===> N-Body Interaction Abacus <===
        BSSE Treatment:                     cp
        Number of 1-body computations:     4
        Number of 2-body computations:     1

   ==> N-Body: Now computing 1-body complexes <==


       N-Body: Computing complex (1/4) with fragments (2,) in the basis of fragments (2,).


  //>>>>>>>>>>>>>>>>>>>>>>>>>>>>>>>>>>>//
  //   CBS Setup: mp2/aug-cc-pV[TQ]Z   //
  //<<<<<<<<<<<<<<<<<<<<<<<<<<<<<<<<<<<//

    Naive listing of computations required.
             hf / aug-cc-pvqz              for  HF TOTAL ENERGY
            mp2 / aug-cc-pvtz              for  MP2 TOTAL ENERGY
            mp2 / aug-cc-pvqz              for  MP2 TOTAL ENERGY
             hf / aug-cc-pvtz              for  HF TOTAL ENERGY
             hf / aug-cc-pvqz              for  HF TOTAL ENERGY

    Enlightened listing of computations required.
            mp2 / aug-cc-pvtz              for  MP2 TOTAL ENERGY
            mp2 / aug-cc-pvqz              for  MP2 TOTAL ENERGY

    Full listing of computations to be obtained (required and bonus).
             hf / aug-cc-pvtz              for  HF TOTAL ENERGY
            mp2 / aug-cc-pvtz              for  MP2 TOTAL ENERGY
             hf / aug-cc-pvqz              for  HF TOTAL ENERGY
            mp2 / aug-cc-pvqz              for  MP2 TOTAL ENERGY

  //>>>>>>>>>>>>>>>>>>>>>>>>>>>>>>>>>>>>//
  // CBS Computation: MP2 / AUG-CC-PVTZ //
  //<<<<<<<<<<<<<<<<<<<<<<<<<<<<<<<<<<<<//

    SCF Algorithm Type (re)set to DF.

*** tstart() called on node37.bme.utexas.edu
*** at Tue Feb 22 18:17:50 2022

   => Loading Basis Set <=

    Name: AUG-CC-PVTZ
    Role: ORBITAL
    Keyword: BASIS
    atoms 1   entry O          line   327 file /home/bdw2292/miniconda3/envs/amoebamdpoltype/share/psi4/basis/aug-cc-pvtz.gbs 
    atoms 2-3 entry H          line    36 file /home/bdw2292/miniconda3/envs/amoebamdpoltype/share/psi4/basis/aug-cc-pvtz.gbs 


         ---------------------------------------------------------
                                   SCF
               by Justin Turney, Rob Parrish, Andy Simmonett
                          and Daniel G. A. Smith
                              RHF Reference
                        4 Threads,  14305 MiB Core
         ---------------------------------------------------------

  ==> Geometry <==

    Molecular point group: c1
    Full point group: C1

    Geometry (in Angstrom), charge = 0, multiplicity = 1:

       Center              X                  Y                   Z               Mass       
    ------------   -----------------  -----------------  -----------------  -----------------
         O           -0.130985364168     3.719865031634     0.057877703930    15.994914619570
         H           -0.218458564168     2.793052031634     0.284025403930     1.007825032230
         H            0.420505835832     3.780838831634    -0.721665496070     1.007825032230

  Running in c1 symmetry.

  Rotational constants: A =     17.54628  B =      0.06915  C =      0.06888 [cm^-1]
  Rotational constants: A = 526024.37300  B =   2072.94171  C =   2064.83002 [MHz]
  Nuclear repulsion =    9.185256376706507

  Charge       = 0
  Multiplicity = 1
  Electrons    = 10
  Nalpha       = 5
  Nbeta        = 5

  ==> Algorithm <==

  SCF Algorithm Type is DF.
  DIIS enabled.
  MOM disabled.
  Fractional occupation disabled.
  Guess Type is SAD.
  Energy threshold   = 1.00e-08
  Density threshold  = 1.00e-08
  Integral threshold = 0.00e+00

  ==> Primary Basis <==

  Basis Set: AUG-CC-PVTZ
    Blend: AUG-CC-PVTZ
    Number of shells: 32
    Number of basis function: 92
    Number of Cartesian functions: 105
    Spherical Harmonics?: true
    Max angular momentum: 3

   => Loading Basis Set <=

    Name: (AUG-CC-PVTZ AUX)
    Role: JKFIT
    Keyword: DF_BASIS_SCF
    atoms 1   entry O          line   286 file /home/bdw2292/miniconda3/envs/amoebamdpoltype/share/psi4/basis/aug-cc-pvtz-jkfit.gbs 
    atoms 2-3 entry H          line    70 file /home/bdw2292/miniconda3/envs/amoebamdpoltype/share/psi4/basis/aug-cc-pvtz-jkfit.gbs 

  ==> Pre-Iterations <==

   -------------------------------------------------------
    Irrep   Nso     Nmo     Nalpha   Nbeta   Ndocc  Nsocc
   -------------------------------------------------------
     A         92      92       0       0       0       0
   -------------------------------------------------------
    Total      92      92       5       5       5       0
   -------------------------------------------------------

  ==> Integral Setup <==

  DFHelper Memory: AOs need 0.015 GiB; user supplied 10.477 GiB. Using in-core AOs.

  ==> MemDFJK: Density-Fitted J/K Matrices <==

    J tasked:                   Yes
    K tasked:                   Yes
    wK tasked:                   No
    OpenMP threads:               4
    Memory [MiB]:             10728
    Algorithm:                 Core
    Schwarz Cutoff:           1E-12
    Mask sparsity (%):       0.0000
    Fitting Condition:        1E-10

   => Auxiliary Basis Set <=

  Basis Set: (AUG-CC-PVTZ AUX)
    Blend: AUG-CC-PVTZ-JKFIT
    Number of shells: 58
    Number of basis function: 196
    Number of Cartesian functions: 241
    Spherical Harmonics?: true
    Max angular momentum: 4

  Minimum eigenvalue in the overlap matrix is 3.7836326382E-04.
  Using Symmetric Orthogonalization.

  SCF Guess: Superposition of Atomic Densities via on-the-fly atomic UHF.

  ==> Iterations <==

                           Total Energy        Delta E     RMS |[F,P]|

   @DF-RHF iter SAD:   -75.47454143995274   -7.54745e+01   0.00000e+00 
   @DF-RHF iter   1:   -75.97660507820564   -5.02064e-01   5.09406e-03 DIIS
   @DF-RHF iter   2:   -76.02904494592565   -5.24399e-02   3.45329e-03 DIIS
   @DF-RHF iter   3:   -76.06009663635166   -3.10517e-02   2.34544e-04 DIIS
   @DF-RHF iter   4:   -76.06048577827161   -3.89142e-04   5.59600e-05 DIIS
   @DF-RHF iter   5:   -76.06050968065698   -2.39024e-05   1.25990e-05 DIIS
   @DF-RHF iter   6:   -76.06051162972973   -1.94907e-06   2.79778e-06 DIIS
   @DF-RHF iter   7:   -76.06051173657941   -1.06850e-07   5.26247e-07 DIIS
   @DF-RHF iter   8:   -76.06051173993180   -3.35238e-09   8.74363e-08 DIIS
   @DF-RHF iter   9:   -76.06051174000463   -7.28306e-11   2.17103e-08 DIIS
   @DF-RHF iter  10:   -76.06051174000885   -4.22062e-12   2.98428e-09 DIIS
  Energy and wave function converged.


  ==> Post-Iterations <==

    Orbital Energies [Eh]
    ---------------------

    Doubly Occupied:                                                      

       1A    -20.565735     2A     -1.351140     3A     -0.724095  
       4A     -0.578397     5A     -0.509354  

    Virtual:                                                              

       6A      0.029640     7A      0.047478     8A      0.136410  
       9A      0.157953    10A      0.174411    11A      0.182165  
      12A      0.228676    13A      0.244549    14A      0.264048  
      15A      0.304140    16A      0.312824    17A      0.365314  
      18A      0.438026    19A      0.466817    20A      0.601873  
      21A      0.654879    22A      0.710797    23A      0.719710  
      24A      0.731367    25A      0.828477    26A      0.844056  
      27A      0.890139    28A      0.913010    29A      0.920968  
      30A      0.923123    31A      0.928284    32A      0.970050  
      33A      1.022972    34A      1.045265    35A      1.084897  
      36A      1.113402    37A      1.173371    38A      1.178083  
      39A      1.259488    40A      1.513982    41A      1.560063  
      42A      1.594610    43A      1.790184    44A      1.797917  
      45A      2.001595    46A      2.116434    47A      2.260192  
      48A      2.318381    49A      2.321629    50A      2.414681  
      51A      2.415490    52A      2.439185    53A      2.472431  
      54A      2.685106    55A      2.702252    56A      2.768526  
      57A      2.851958    58A      2.884337    59A      3.647112  
      60A      3.767722    61A      4.008646    62A      4.090030  
      63A      4.207300    64A      4.234060    65A      4.330716  
      66A      4.381447    67A      4.402008    68A      4.409922  
      69A      4.497002    70A      4.710816    71A      4.819061  
      72A      5.126903    73A      5.171074    74A      5.299975  
      75A      5.332426    76A      5.516222    77A      5.715271  
      78A      6.146346    79A      6.532093    80A      6.713924  
      81A      6.865161    82A      7.145537    83A      7.262339  
      84A      7.303358    85A      7.310554    86A      7.370148  
      87A      7.378697    88A      7.557226    89A      7.903361  
      90A      7.957689    91A      8.794259    92A     15.857681  

    Final Occupation by Irrep:
              A 
    DOCC [     5 ]

  @DF-RHF Final Energy:   -76.06051174000885

   => Energetics <=

    Nuclear Repulsion Energy =              9.1852563767065067
    One-Electron Energy =                -123.0340921653665731
    Two-Electron Energy =                  37.7883240486512193
    Total Energy =                        -76.0605117400088488

Computation Completed


Properties will be evaluated at  -0.198459,   6.937969,   0.050855 [a0]

Properties computed using the SCF density matrix

  Nuclear Dipole Moment: [e a0]
     X:     0.3862      Y:    -0.7206      Z:    -0.4606

  Electronic Dipole Moment: [e a0]
     X:    -0.0741      Y:     0.1386      Z:     0.0884

  Dipole Moment: [e a0]
     X:     0.3121      Y:    -0.5820      Z:    -0.3722     Total:     0.7581

  Dipole Moment: [D]
     X:     0.7932      Y:    -1.4794      Z:    -0.9460     Total:     1.9268


*** tstop() called on node37.bme.utexas.edu at Tue Feb 22 18:17:52 2022
Module time:
	user time   =       5.63 seconds =       0.09 minutes
	system time =       0.49 seconds =       0.01 minutes
	total time  =          2 seconds =       0.03 minutes
Total time:
	user time   =       5.63 seconds =       0.09 minutes
	system time =       0.49 seconds =       0.01 minutes
	total time  =          2 seconds =       0.03 minutes

*** tstart() called on node37.bme.utexas.edu
*** at Tue Feb 22 18:17:52 2022


  //>>>>>>>>>>>>>>>>>>>>>>>>>>>>>>>>>>>//
  //               DFMP2               //
  //<<<<<<<<<<<<<<<<<<<<<<<<<<<<<<<<<<<//

   => Loading Basis Set <=

    Name: (AUG-CC-PVTZ AUX)
    Role: RIFIT
    Keyword: DF_BASIS_MP2
    atoms 1   entry O          line   264 file /home/bdw2292/miniconda3/envs/amoebamdpoltype/share/psi4/basis/aug-cc-pvtz-ri.gbs 
    atoms 2-3 entry H          line    30 file /home/bdw2292/miniconda3/envs/amoebamdpoltype/share/psi4/basis/aug-cc-pvtz-ri.gbs 

	 --------------------------------------------------------
	                          DF-MP2                         
	      2nd-Order Density-Fitted Moller-Plesset Theory     
	              RMP2 Wavefunction,   4 Threads             
	                                                         
	        Rob Parrish, Justin Turney, Andy Simmonett,      
	           Ed Hohenstein, and C. David Sherrill          
	 --------------------------------------------------------

   => Auxiliary Basis Set <=

  Basis Set: (AUG-CC-PVTZ AUX)
    Blend: AUG-CC-PVTZ-RI
    Number of shells: 56
    Number of basis function: 198
    Number of Cartesian functions: 246
    Spherical Harmonics?: true
    Max angular momentum: 4

	 --------------------------------------------------------
	                 NBF =    92, NAUX =   198
	 --------------------------------------------------------
	   CLASS    FOCC     OCC    AOCC    AVIR     VIR    FVIR
	   PAIRS       1       5       4      87      87       0
	 --------------------------------------------------------

	-----------------------------------------------------------
	 ==================> DF-MP2 Energies <==================== 
	-----------------------------------------------------------
	 Reference Energy          =     -76.0605117400088488 [Eh]
	 Singles Energy            =      -0.0000000000000000 [Eh]
	 Same-Spin Energy          =      -0.0650989654291261 [Eh]
	 Opposite-Spin Energy      =      -0.2029943183788389 [Eh]
	 Correlation Energy        =      -0.2680932838079650 [Eh]
	 Total Energy              =     -76.3286050238168201 [Eh]
	-----------------------------------------------------------
	 ================> DF-SCS-MP2 Energies <================== 
	-----------------------------------------------------------
	 SCS Same-Spin Scale       =       0.3333333333333333 [-]
	 SCS Opposite-Spin Scale   =       1.2000000000000000 [-]
	 SCS Same-Spin Energy      =      -0.0216996551430420 [Eh]
	 SCS Opposite-Spin Energy  =      -0.2435931820546067 [Eh]
	 SCS Correlation Energy    =      -0.2652928371976487 [Eh]
	 SCS Total Energy          =     -76.3258045772064975 [Eh]
	-----------------------------------------------------------


*** tstop() called on node37.bme.utexas.edu at Tue Feb 22 18:17:53 2022
Module time:
	user time   =       1.91 seconds =       0.03 minutes
	system time =       0.16 seconds =       0.00 minutes
	total time  =          1 seconds =       0.02 minutes
Total time:
	user time   =       7.55 seconds =       0.13 minutes
	system time =       0.65 seconds =       0.01 minutes
	total time  =          3 seconds =       0.05 minutes

  //>>>>>>>>>>>>>>>>>>>>>>>>>>>>>>>>>>>>//
  // CBS Computation: MP2 / AUG-CC-PVQZ //
  //<<<<<<<<<<<<<<<<<<<<<<<<<<<<<<<<<<<<//

    SCF Algorithm Type (re)set to DF.

*** tstart() called on node37.bme.utexas.edu
*** at Tue Feb 22 18:17:53 2022

   => Loading Basis Set <=

    Name: AUG-CC-PVQZ
    Role: ORBITAL
    Keyword: BASIS
    atoms 1   entry O          line   419 file /home/bdw2292/miniconda3/envs/amoebamdpoltype/share/psi4/basis/aug-cc-pvqz.gbs 
    atoms 2-3 entry H          line    36 file /home/bdw2292/miniconda3/envs/amoebamdpoltype/share/psi4/basis/aug-cc-pvqz.gbs 


         ---------------------------------------------------------
                                   SCF
               by Justin Turney, Rob Parrish, Andy Simmonett
                          and Daniel G. A. Smith
                              RHF Reference
                        4 Threads,  14305 MiB Core
         ---------------------------------------------------------

  ==> Geometry <==

    Molecular point group: c1
    Full point group: C1

    Geometry (in Angstrom), charge = 0, multiplicity = 1:

       Center              X                  Y                   Z               Mass       
    ------------   -----------------  -----------------  -----------------  -----------------
         O           -0.130985364168     3.719865031634     0.057877703930    15.994914619570
         H           -0.218458564168     2.793052031634     0.284025403930     1.007825032230
         H            0.420505835832     3.780838831634    -0.721665496070     1.007825032230

  Running in c1 symmetry.

  Rotational constants: A =     17.54628  B =      0.06915  C =      0.06888 [cm^-1]
  Rotational constants: A = 526024.37300  B =   2072.94171  C =   2064.83002 [MHz]
  Nuclear repulsion =    9.185256376706507

  Charge       = 0
  Multiplicity = 1
  Electrons    = 10
  Nalpha       = 5
  Nbeta        = 5

  ==> Algorithm <==

  SCF Algorithm Type is DF.
  DIIS enabled.
  MOM disabled.
  Fractional occupation disabled.
  Guess Type is SAD.
  Energy threshold   = 1.00e-08
  Density threshold  = 1.00e-08
  Integral threshold = 0.00e+00

  ==> Primary Basis <==

  Basis Set: AUG-CC-PVQZ
    Blend: AUG-CC-PVQZ
    Number of shells: 48
    Number of basis function: 172
    Number of Cartesian functions: 215
    Spherical Harmonics?: true
    Max angular momentum: 4

   => Loading Basis Set <=

    Name: (AUG-CC-PVQZ AUX)
    Role: JKFIT
    Keyword: DF_BASIS_SCF
    atoms 1   entry O          line   318 file /home/bdw2292/miniconda3/envs/amoebamdpoltype/share/psi4/basis/aug-cc-pvqz-jkfit.gbs 
    atoms 2-3 entry H          line    70 file /home/bdw2292/miniconda3/envs/amoebamdpoltype/share/psi4/basis/aug-cc-pvqz-jkfit.gbs 

  ==> Pre-Iterations <==

   -------------------------------------------------------
    Irrep   Nso     Nmo     Nalpha   Nbeta   Ndocc  Nsocc
   -------------------------------------------------------
     A        172     172       0       0       0       0
   -------------------------------------------------------
    Total     172     172       5       5       5       0
   -------------------------------------------------------

  ==> Integral Setup <==

  DFHelper Memory: AOs need 0.074 GiB; user supplied 10.477 GiB. Using in-core AOs.

  ==> MemDFJK: Density-Fitted J/K Matrices <==

    J tasked:                   Yes
    K tasked:                   Yes
    wK tasked:                   No
    OpenMP threads:               4
    Memory [MiB]:             10728
    Algorithm:                 Core
    Schwarz Cutoff:           1E-12
    Mask sparsity (%):       0.0000
    Fitting Condition:        1E-10

   => Auxiliary Basis Set <=

  Basis Set: (AUG-CC-PVQZ AUX)
    Blend: AUG-CC-PVQZ-JKFIT
    Number of shells: 70
    Number of basis function: 294
    Number of Cartesian functions: 400
    Spherical Harmonics?: true
    Max angular momentum: 5

  Minimum eigenvalue in the overlap matrix is 8.5530963444E-05.
  Using Symmetric Orthogonalization.

  SCF Guess: Superposition of Atomic Densities via on-the-fly atomic UHF.

  ==> Iterations <==

                           Total Energy        Delta E     RMS |[F,P]|

   @DF-RHF iter SAD:   -75.47969674116635   -7.54797e+01   0.00000e+00 
   @DF-RHF iter   1:   -75.98168816602730   -5.01991e-01   2.73051e-03 DIIS
   @DF-RHF iter   2:   -76.03423211336319   -5.25439e-02   1.85534e-03 DIIS
   @DF-RHF iter   3:   -76.06548196432065   -3.12499e-02   1.26371e-04 DIIS
   @DF-RHF iter   4:   -76.06587316443117   -3.91200e-04   3.08482e-05 DIIS
   @DF-RHF iter   5:   -76.06589796269172   -2.47983e-05   6.91985e-06 DIIS
   @DF-RHF iter   6:   -76.06589999363123   -2.03094e-06   1.57791e-06 DIIS
   @DF-RHF iter   7:   -76.06590011168248   -1.18051e-07   3.06388e-07 DIIS
   @DF-RHF iter   8:   -76.06590011563507   -3.95259e-09   4.90879e-08 DIIS
   @DF-RHF iter   9:   -76.06590011571750   -8.24230e-11   1.18772e-08 DIIS
   @DF-RHF iter  10:   -76.06590011572180   -4.30589e-12   1.66392e-09 DIIS
  Energy and wave function converged.


  ==> Post-Iterations <==

    Orbital Energies [Eh]
    ---------------------

    Doubly Occupied:                                                      

       1A    -20.563281     2A     -1.350415     3A     -0.724061  
       4A     -0.578449     5A     -0.509483  

    Virtual:                                                              

       6A      0.027122     7A      0.042905     8A      0.114632  
       9A      0.132703    10A      0.150462    11A      0.157965  
      12A      0.185875    13A      0.197121    14A      0.208405  
      15A      0.240852    16A      0.258694    17A      0.290586  
      18A      0.358148    19A      0.390613    20A      0.471560  
      21A      0.506989    22A      0.542938    23A      0.545951  
      24A      0.554431    25A      0.613395    26A      0.633965  
      27A      0.649281    28A      0.662755    29A      0.665820  
      30A      0.689602    31A      0.705311    32A      0.715465  
      33A      0.769611    34A      0.788060    35A      0.803319  
      36A      0.809203    37A      0.846167    38A      0.855262  
      39A      0.967409    40A      1.134444    41A      1.138819  
      42A      1.215992    43A      1.329520    44A      1.421107  
      45A      1.480797    46A      1.506556    47A      1.520866  
      48A      1.525160    49A      1.555642    50A      1.594809  
      51A      1.618565    52A      1.637069    53A      1.660032  
      54A      1.671317    55A      1.686253    56A      1.702608  
      57A      1.721682    58A      1.762009    59A      1.779505  
      60A      1.791739    61A      1.830147    62A      1.863056  
      63A      1.883386    64A      1.902355    65A      1.957374  
      66A      2.013492    67A      2.023493    68A      2.029893  
      69A      2.098887    70A      2.217139    71A      2.225065  
      72A      2.308137    73A      2.485664    74A      2.641216  
      75A      2.642526    76A      2.890688    77A      2.962947  
      78A      3.008743    79A      3.025960    80A      3.061331  
      81A      3.088295    82A      3.259063    83A      3.286044  
      84A      3.306303    85A      3.525274    86A      3.590942  
      87A      3.656632    88A      3.684539    89A      3.738859  
      90A      3.743648    91A      3.921008    92A      4.068174  
      93A      4.160377    94A      4.169975    95A      4.175027  
      96A      4.180928    97A      4.248605    98A      4.342608  
      99A      4.420782   100A      4.568304   101A      4.672802  
     102A      4.759388   103A      4.802843   104A      4.804405  
     105A      4.832813   106A      4.876382   107A      4.998994  
     108A      5.271481   109A      5.316051   110A      5.515375  
     111A      5.545840   112A      5.880471   113A      5.881401  
     114A      6.079672   115A      6.232570   116A      6.841769  
     117A      6.856418   118A      6.865057   119A      6.951892  
     120A      7.716272   121A      7.780543   122A      7.826747  
     123A      7.845727   124A      7.868747   125A      7.918537  
     126A      7.942956   127A      8.009877   128A      8.202910  
     129A      8.320634   130A      8.536681   131A      8.597313  
     132A      8.693465   133A      8.751675   134A      8.799795  
     135A      8.872036   136A      8.982149   137A      9.061039  
     138A      9.153396   139A      9.549910   140A      9.847333  
     141A      9.960195   142A      9.961540   143A     10.012296  
     144A     10.428537   145A     10.480537   146A     10.652075  
     147A     10.996319   148A     11.044312   149A     11.077912  
     150A     11.260900   151A     11.362904   152A     11.436656  
     153A     11.700078   154A     11.797124   155A     11.834360  
     156A     12.010560   157A     12.179169   158A     12.224807  
     159A     12.545824   160A     12.737685   161A     12.872322  
     162A     12.898439   163A     13.208970   164A     14.005939  
     165A     14.038276   166A     14.493730   167A     14.845254  
     168A     14.881046   169A     15.299393   170A     16.920532  
     171A     17.272882   172A     45.498358  

    Final Occupation by Irrep:
              A 
    DOCC [     5 ]

  @DF-RHF Final Energy:   -76.06590011572180

   => Energetics <=

    Nuclear Repulsion Energy =              9.1852563767065067
    One-Electron Energy =                -123.0509359149188811
    Two-Electron Energy =                  37.7997794224905590
    Total Energy =                        -76.0659001157218171

Computation Completed


Properties will be evaluated at  -0.198459,   6.937969,   0.050855 [a0]

Properties computed using the SCF density matrix

  Nuclear Dipole Moment: [e a0]
     X:     0.3862      Y:    -0.7206      Z:    -0.4606

  Electronic Dipole Moment: [e a0]
     X:    -0.0745      Y:     0.1393      Z:     0.0888

  Dipole Moment: [e a0]
     X:     0.3117      Y:    -0.5814      Z:    -0.3718     Total:     0.7572

  Dipole Moment: [D]
     X:     0.7923      Y:    -1.4777      Z:    -0.9449     Total:     1.9246


*** tstop() called on node37.bme.utexas.edu at Tue Feb 22 18:17:58 2022
Module time:
	user time   =      11.36 seconds =       0.19 minutes
	system time =       1.09 seconds =       0.02 minutes
	total time  =          5 seconds =       0.08 minutes
Total time:
	user time   =      18.96 seconds =       0.32 minutes
	system time =       1.74 seconds =       0.03 minutes
	total time  =          8 seconds =       0.13 minutes

*** tstart() called on node37.bme.utexas.edu
*** at Tue Feb 22 18:17:58 2022


  //>>>>>>>>>>>>>>>>>>>>>>>>>>>>>>>>>>>//
  //               DFMP2               //
  //<<<<<<<<<<<<<<<<<<<<<<<<<<<<<<<<<<<//

   => Loading Basis Set <=

    Name: (AUG-CC-PVQZ AUX)
    Role: RIFIT
    Keyword: DF_BASIS_MP2
    atoms 1   entry O          line   332 file /home/bdw2292/miniconda3/envs/amoebamdpoltype/share/psi4/basis/aug-cc-pvqz-ri.gbs 
    atoms 2-3 entry H          line    30 file /home/bdw2292/miniconda3/envs/amoebamdpoltype/share/psi4/basis/aug-cc-pvqz-ri.gbs 

	 --------------------------------------------------------
	                          DF-MP2                         
	      2nd-Order Density-Fitted Moller-Plesset Theory     
	              RMP2 Wavefunction,   4 Threads             
	                                                         
	        Rob Parrish, Justin Turney, Andy Simmonett,      
	           Ed Hohenstein, and C. David Sherrill          
	 --------------------------------------------------------

   => Auxiliary Basis Set <=

  Basis Set: (AUG-CC-PVQZ AUX)
    Blend: AUG-CC-PVQZ-RI
    Number of shells: 76
    Number of basis function: 328
    Number of Cartesian functions: 447
    Spherical Harmonics?: true
    Max angular momentum: 5

	 --------------------------------------------------------
	                 NBF =   172, NAUX =   328
	 --------------------------------------------------------
	   CLASS    FOCC     OCC    AOCC    AVIR     VIR    FVIR
	   PAIRS       1       5       4     167     167       0
	 --------------------------------------------------------

	-----------------------------------------------------------
	 ==================> DF-MP2 Energies <==================== 
	-----------------------------------------------------------
	 Reference Energy          =     -76.0659001157218029 [Eh]
	 Singles Energy            =      -0.0000000000000000 [Eh]
	 Same-Spin Energy          =      -0.0671683327167523 [Eh]
	 Opposite-Spin Energy      =      -0.2185322527635342 [Eh]
	 Correlation Energy        =      -0.2857005854802865 [Eh]
	 Total Energy              =     -76.3516007012020879 [Eh]
	-----------------------------------------------------------
	 ================> DF-SCS-MP2 Energies <================== 
	-----------------------------------------------------------
	 SCS Same-Spin Scale       =       0.3333333333333333 [-]
	 SCS Opposite-Spin Scale   =       1.2000000000000000 [-]
	 SCS Same-Spin Energy      =      -0.0223894442389174 [Eh]
	 SCS Opposite-Spin Energy  =      -0.2622387033162411 [Eh]
	 SCS Correlation Energy    =      -0.2846281475551585 [Eh]
	 SCS Total Energy          =     -76.3505282632769564 [Eh]
	-----------------------------------------------------------


*** tstop() called on node37.bme.utexas.edu at Tue Feb 22 18:17:59 2022
Module time:
	user time   =       2.94 seconds =       0.05 minutes
	system time =       0.19 seconds =       0.00 minutes
	total time  =          1 seconds =       0.02 minutes
Total time:
	user time   =      21.92 seconds =       0.37 minutes
	system time =       1.93 seconds =       0.03 minutes
	total time  =          9 seconds =       0.15 minutes

  //>>>>>>>>>>>>>>>>>>>>>>>>>>>>>>>>>>>//
  //  CBS Results: mp2/aug-cc-pV[TQ]Z  //
  //<<<<<<<<<<<<<<<<<<<<<<<<<<<<<<<<<<<//


   ==> HF <==

   HI-zeta (4) Energy:               -76.065900115722


   ==> Helgaker 2-point correlated extrapolation for method: MP2 <==

   LO-zeta (3) Energy:               -76.328605023817
   HI-zeta (4) Energy:               -76.351600701202
   Alpha (exponent) Value:             3.000000000000
   Extrapolated Energy:              -76.368381330645

   @Extrapolated MP2/(T,Q):          -76.368381330645



   ==> Helgaker 2-point correlated extrapolation for method: HF <==

   LO-zeta (3) Energy:               -76.060511740009
   HI-zeta (4) Energy:               -76.065900115722
   Alpha (exponent) Value:             3.000000000000
   Extrapolated Energy:              -76.069832173675

   @Extrapolated HF/(T,Q):           -76.069832173675


   ==> Components <==

  ---------------------------------------------------------------------------------------------------------
                          Method / Basis                      Rqd      Energy [Eh]   Variable
  ---------------------------------------------------------------------------------------------------------
                              hf / aug-cc-pvtz                  *     -76.06051174   HF TOTAL ENERGY
                             mp2 / aug-cc-pvtz                  *     -76.32860502   MP2 TOTAL ENERGY
                              hf / aug-cc-pvqz                  *     -76.06590012   HF TOTAL ENERGY
                             mp2 / aug-cc-pvqz                  *     -76.35160070   MP2 TOTAL ENERGY
  ---------------------------------------------------------------------------------------------------------

   ==> Stages <==

  ---------------------------------------------------------------------------------------------------------
      Stage               Method / Basis                       Wt      Energy [Eh]   Scheme
  ---------------------------------------------------------------------------------------------------------
        scf                   hf / aug-cc-pvqz                  1     -76.06590012   xtpl_highest_1
       corl                  mp2 / aug-cc-pv[tq]z               1     -76.36838133   corl_xtpl_helgaker_2
       corl                   hf / aug-cc-pv[tq]z              -1     -76.06983217   corl_xtpl_helgaker_2
  ---------------------------------------------------------------------------------------------------------

   ==> CBS <==

  ---------------------------------------------------------------------------------------------------------
      Stage               Method / Basis                               Energy [Eh]   Scheme
  ---------------------------------------------------------------------------------------------------------
        scf                   hf / aug-cc-pvqz                        -76.06590012   xtpl_highest_1
       corl                  mp2 / aug-cc-pv[tq]z                      -0.29854916   corl_xtpl_helgaker_2
      total                  CBS                                      -76.36444927   
  ---------------------------------------------------------------------------------------------------------
   => Loading Basis Set <=

    Name: DEF2-SVP
    Role: ORBITAL
    Keyword: BASIS
    atoms 1   entry O          line   130 file /home/bdw2292/miniconda3/envs/amoebamdpoltype/share/psi4/basis/def2-svp.gbs 
    atoms 2-3 entry H          line    15 file /home/bdw2292/miniconda3/envs/amoebamdpoltype/share/psi4/basis/def2-svp.gbs 


       N-Body: Complex Energy (fragments = (2,), basis = (2,):   -76.36444927269268)

       N-Body: Computing complex (2/4) with fragments (2,) in the basis of fragments (1, 2).


  //>>>>>>>>>>>>>>>>>>>>>>>>>>>>>>>>>>>//
  //   CBS Setup: mp2/aug-cc-pV[TQ]Z   //
  //<<<<<<<<<<<<<<<<<<<<<<<<<<<<<<<<<<<//

    Naive listing of computations required.
             hf / aug-cc-pvqz              for  HF TOTAL ENERGY
            mp2 / aug-cc-pvtz              for  MP2 TOTAL ENERGY
            mp2 / aug-cc-pvqz              for  MP2 TOTAL ENERGY
             hf / aug-cc-pvtz              for  HF TOTAL ENERGY
             hf / aug-cc-pvqz              for  HF TOTAL ENERGY

    Enlightened listing of computations required.
            mp2 / aug-cc-pvtz              for  MP2 TOTAL ENERGY
            mp2 / aug-cc-pvqz              for  MP2 TOTAL ENERGY

    Full listing of computations to be obtained (required and bonus).
             hf / aug-cc-pvtz              for  HF TOTAL ENERGY
            mp2 / aug-cc-pvtz              for  MP2 TOTAL ENERGY
             hf / aug-cc-pvqz              for  HF TOTAL ENERGY
            mp2 / aug-cc-pvqz              for  MP2 TOTAL ENERGY

  //>>>>>>>>>>>>>>>>>>>>>>>>>>>>>>>>>>>>//
  // CBS Computation: MP2 / AUG-CC-PVTZ //
  //<<<<<<<<<<<<<<<<<<<<<<<<<<<<<<<<<<<<//

    SCF Algorithm Type (re)set to DF.

*** tstart() called on node37.bme.utexas.edu
*** at Tue Feb 22 18:18:00 2022

   => Loading Basis Set <=

    Name: AUG-CC-PVTZ
    Role: ORBITAL
    Keyword: BASIS
    atoms 1-2      entry CL         line   984 file /home/bdw2292/miniconda3/envs/amoebamdpoltype/share/psi4/basis/aug-cc-pvtz.gbs 
    atoms 3        entry C          line   235 file /home/bdw2292/miniconda3/envs/amoebamdpoltype/share/psi4/basis/aug-cc-pvtz.gbs 
    atoms 4-5, 7-8 entry H          line    36 file /home/bdw2292/miniconda3/envs/amoebamdpoltype/share/psi4/basis/aug-cc-pvtz.gbs 
    atoms 6        entry O          line   327 file /home/bdw2292/miniconda3/envs/amoebamdpoltype/share/psi4/basis/aug-cc-pvtz.gbs 


         ---------------------------------------------------------
                                   SCF
               by Justin Turney, Rob Parrish, Andy Simmonett
                          and Daniel G. A. Smith
                              RHF Reference
                        4 Threads,  14305 MiB Core
         ---------------------------------------------------------

  ==> Geometry <==

    Molecular point group: c1
    Full point group: C1

    Geometry (in Angstrom), charge = 0, multiplicity = 1:

       Center              X                  Y                   Z               Mass       
    ------------   -----------------  -----------------  -----------------  -----------------
      Gh(CL)         -1.455640664168    -0.801594268366    -0.031369896070    34.968852682000
      Gh(CL)          1.453988335832    -0.418040068366    -0.007761496070    34.968852682000
      Gh(C)           0.127553035832    -1.587033168366     0.056175203930    12.000000000000
      Gh(H)           0.191634435832    -2.130214868366     0.999110303930     1.007825032230
      Gh(H)           0.223730335832    -2.266028268366    -0.791144496070     1.007825032230
         O           -0.130985364168     3.719865031634     0.057877703930    15.994914619570
         H           -0.218458564168     2.793052031634     0.284025403930     1.007825032230
         H            0.420505835832     3.780838831634    -0.721665496070     1.007825032230

  Running in c1 symmetry.

  Rotational constants: A =      0.11191  B =      0.05351  C =      0.03657 [cm^-1]
  Rotational constants: A =   3355.00232  B =   1604.09862  C =   1096.35443 [MHz]
  Nuclear repulsion =    9.185256376706507

  Charge       = 0
  Multiplicity = 1
  Electrons    = 10
  Nalpha       = 5
  Nbeta        = 5

  ==> Algorithm <==

  SCF Algorithm Type is DF.
  DIIS enabled.
  MOM disabled.
  Fractional occupation disabled.
  Guess Type is SAD.
  Energy threshold   = 1.00e-08
  Density threshold  = 1.00e-08
  Integral threshold = 0.00e+00

  ==> Primary Basis <==

  Basis Set: AUG-CC-PVTZ
    Blend: AUG-CC-PVTZ
    Number of shells: 96
    Number of basis function: 284
    Number of Cartesian functions: 328
    Spherical Harmonics?: true
    Max angular momentum: 3

   => Loading Basis Set <=

    Name: (AUG-CC-PVTZ AUX)
    Role: JKFIT
    Keyword: DF_BASIS_SCF
    atoms 1-2      entry CL         line   816 file /home/bdw2292/miniconda3/envs/amoebamdpoltype/share/psi4/basis/aug-cc-pvtz-jkfit.gbs 
    atoms 3        entry C          line   162 file /home/bdw2292/miniconda3/envs/amoebamdpoltype/share/psi4/basis/aug-cc-pvtz-jkfit.gbs 
    atoms 4-5, 7-8 entry H          line    70 file /home/bdw2292/miniconda3/envs/amoebamdpoltype/share/psi4/basis/aug-cc-pvtz-jkfit.gbs 
    atoms 6        entry O          line   286 file /home/bdw2292/miniconda3/envs/amoebamdpoltype/share/psi4/basis/aug-cc-pvtz-jkfit.gbs 

  ==> Pre-Iterations <==

   -------------------------------------------------------
    Irrep   Nso     Nmo     Nalpha   Nbeta   Ndocc  Nsocc
   -------------------------------------------------------
     A        284     284       0       0       0       0
   -------------------------------------------------------
    Total     284     284       5       5       5       0
   -------------------------------------------------------

  ==> Integral Setup <==

  DFHelper Memory: AOs need 0.403 GiB; user supplied 10.477 GiB. Using in-core AOs.

  ==> MemDFJK: Density-Fitted J/K Matrices <==

    J tasked:                   Yes
    K tasked:                   Yes
    wK tasked:                   No
    OpenMP threads:               4
    Memory [MiB]:             10728
    Algorithm:                 Core
    Schwarz Cutoff:           1E-12
    Mask sparsity (%):       7.4464
    Fitting Condition:        1E-10

   => Auxiliary Basis Set <=

  Basis Set: (AUG-CC-PVTZ AUX)
    Blend: AUG-CC-PVTZ-JKFIT
    Number of shells: 200
    Number of basis function: 684
    Number of Cartesian functions: 842
    Spherical Harmonics?: true
    Max angular momentum: 4

  Minimum eigenvalue in the overlap matrix is 6.6185662739E-05.
  Using Symmetric Orthogonalization.

  SCF Guess: Superposition of Atomic Densities via on-the-fly atomic UHF.

  ==> Iterations <==

                           Total Energy        Delta E     RMS |[F,P]|

   @DF-RHF iter SAD:   -75.47454143278669   -7.54745e+01   0.00000e+00 
   @DF-RHF iter   1:   -75.97660751291433   -5.02066e-01   1.65023e-03 DIIS
   @DF-RHF iter   2:   -76.02905184726905   -5.24443e-02   1.11878e-03 DIIS
   @DF-RHF iter   3:   -76.06010742760814   -3.10556e-02   7.59837e-05 DIIS
   @DF-RHF iter   4:   -76.06049662285140   -3.89195e-04   1.81311e-05 DIIS
   @DF-RHF iter   5:   -76.06052053381592   -2.39110e-05   4.08139e-06 DIIS
   @DF-RHF iter   6:   -76.06052248329178   -1.94948e-06   9.06451e-07 DIIS
   @DF-RHF iter   7:   -76.06052259018884   -1.06897e-07   1.70610e-07 DIIS
   @DF-RHF iter   8:   -76.06052259354767   -3.35883e-09   2.83526e-08 DIIS
   @DF-RHF iter   9:   -76.06052259362137   -7.36975e-11   7.03483e-09 DIIS
  Energy and wave function converged.


  ==> Post-Iterations <==

    Orbital Energies [Eh]
    ---------------------

    Doubly Occupied:                                                      

       1A    -20.565748     2A     -1.351146     3A     -0.724100  
       4A     -0.578398     5A     -0.509357  

    Virtual:                                                              

       6A      0.017212     7A      0.035962     8A      0.041206  
       9A      0.050514    10A      0.058513    11A      0.076685  
      12A      0.097652    13A      0.104040    14A      0.107037  
      15A      0.113483    16A      0.116203    17A      0.125017  
      18A      0.143384    19A      0.150261    20A      0.164887  
      21A      0.170056    22A      0.173778    23A      0.195864  
      24A      0.198131    25A      0.214456    26A      0.247869  
      27A      0.262898    28A      0.268665    29A      0.279397  
      30A      0.286194    31A      0.292421    32A      0.304290  
      33A      0.308814    34A      0.312195    35A      0.315212  
      36A      0.328944    37A      0.330639    38A      0.362329  
      39A      0.376265    40A      0.385777    41A      0.387931  
      42A      0.406093    43A      0.421532    44A      0.426595  
      45A      0.443072    46A      0.447809    47A      0.459349  
      48A      0.467872    49A      0.475714    50A      0.487949  
      51A      0.503189    52A      0.534932    53A      0.548925  
      54A      0.563878    55A      0.575651    56A      0.586192  
      57A      0.591600    58A      0.608606    59A      0.630337  
      60A      0.639481    61A      0.643869    62A      0.659310  
      63A      0.678602    64A      0.701190    65A      0.716042  
      66A      0.726015    67A      0.737365    68A      0.741375  
      69A      0.745238    70A      0.754153    71A      0.758929  
      72A      0.780899    73A      0.836512    74A      0.859261  
      75A      0.883101    76A      0.917399    77A      0.931257  
      78A      0.945441    79A      0.949174    80A      0.960431  
      81A      0.974042    82A      0.979241    83A      1.032498  
      84A      1.036406    85A      1.061063    86A      1.069966  
      87A      1.072665    88A      1.078065    89A      1.093791  
      90A      1.098808    91A      1.105867    92A      1.124607  
      93A      1.128030    94A      1.151316    95A      1.159213  
      96A      1.162488    97A      1.176195    98A      1.196179  
      99A      1.220665   100A      1.226572   101A      1.247593  
     102A      1.276243   103A      1.284962   104A      1.301327  
     105A      1.312652   106A      1.340490   107A      1.342729  
     108A      1.357483   109A      1.364994   110A      1.379803  
     111A      1.407636   112A      1.408209   113A      1.411708  
     114A      1.447915   115A      1.458375   116A      1.477631  
     117A      1.484305   118A      1.486715   119A      1.508900  
     120A      1.514368   121A      1.546826   122A      1.567278  
     123A      1.577790   124A      1.590569   125A      1.596873  
     126A      1.603446   127A      1.610104   128A      1.622624  
     129A      1.634443   130A      1.647482   131A      1.678276  
     132A      1.695501   133A      1.703456   134A      1.769721  
     135A      1.815410   136A      1.826293   137A      1.878021  
     138A      1.902093   139A      1.976354   140A      2.028908  
     141A      2.033854   142A      2.046093   143A      2.053767  
     144A      2.064892   145A      2.086605   146A      2.092552  
     147A      2.102745   148A      2.137256   149A      2.182987  
     150A      2.194355   151A      2.213065   152A      2.271396  
     153A      2.275469   154A      2.339145   155A      2.347395  
     156A      2.359294   157A      2.424256   158A      2.441768  
     159A      2.458065   160A      2.460488   161A      2.486924  
     162A      2.506016   163A      2.535487   164A      2.565453  
     165A      2.570202   166A      2.698851   167A      2.706640  
     168A      2.707651   169A      2.731840   170A      2.799981  
     171A      2.874938   172A      2.904456   173A      3.012151  
     174A      3.662665   175A      3.783792   176A      3.800961  
     177A      3.823087   178A      3.891478   179A      3.893392  
     180A      3.953979   181A      3.957293   182A      3.966525  
     183A      3.970438   184A      3.979309   185A      4.003536  
     186A      4.012357   187A      4.027814   188A      4.042524  
     189A      4.060665   190A      4.096987   191A      4.128526  
     192A      4.131410   193A      4.140681   194A      4.154324  
     195A      4.170756   196A      4.174760   197A      4.186142  
     198A      4.209183   199A      4.228406   200A      4.248015  
     201A      4.286654   202A      4.329107   203A      4.333011  
     204A      4.387173   205A      4.391284   206A      4.410412  
     207A      4.443243   208A      4.481661   209A      4.510426  
     210A      4.525708   211A      4.537443   212A      4.543986  
     213A      4.634169   214A      4.676643   215A      4.687466  
     216A      4.727162   217A      4.738846   218A      4.754747  
     219A      4.756981   220A      4.768734   221A      4.778304  
     222A      4.782142   223A      4.829516   224A      4.832374  
     225A      4.838966   226A      4.866454   227A      4.894718  
     228A      4.958170   229A      5.041851   230A      5.110681  
     231A      5.138469   232A      5.175526   233A      5.178303  
     234A      5.194774   235A      5.205556   236A      5.313276  
     237A      5.334846   238A      5.342584   239A      5.346875  
     240A      5.378853   241A      5.429926   242A      5.475340  
     243A      5.517601   244A      5.612633   245A      5.729195  
     246A      5.886757   247A      5.924431   248A      6.042761  
     249A      6.088423   250A      6.156753   251A      6.230692  
     252A      6.275703   253A      6.434335   254A      6.543771  
     255A      6.727474   256A      6.881596   257A      7.017771  
     258A      7.148570   259A      7.272551   260A      7.318655  
     261A      7.320929   262A      7.380572   263A      7.394277  
     264A      7.589036   265A      7.699223   266A      7.848028  
     267A      7.926172   268A      7.960398   269A      7.981265  
     270A      8.139704   271A      8.803158   272A      9.925017  
     273A     15.925578   274A     16.076540   275A     16.439317  
     276A     28.067862   277A     28.069728   278A     28.095980  
     279A     28.140278   280A     28.798250   281A     29.163134  
     282A     48.815389   283A    161.000199   284A    161.040302  

    Final Occupation by Irrep:
              A 
    DOCC [     5 ]

  @DF-RHF Final Energy:   -76.06052259362137

   => Energetics <=

    Nuclear Repulsion Energy =              9.1852563767065067
    One-Electron Energy =                -123.0340587086145234
    Two-Electron Energy =                  37.7882797382866400
    Total Energy =                        -76.0605225936213856

Computation Completed


Properties will be evaluated at  -0.000000,   0.000000,   0.000000 [a0]

Properties computed using the SCF density matrix

  Nuclear Dipole Moment: [e a0]
     X:    -1.5984      Y:    68.6591      Z:     0.0480

  Electronic Dipole Moment: [e a0]
     X:     1.9106      Y:   -69.2414      Z:    -0.4203

  Dipole Moment: [e a0]
     X:     0.3122      Y:    -0.5823      Z:    -0.3723     Total:     0.7584

  Dipole Moment: [D]
     X:     0.7935      Y:    -1.4800      Z:    -0.9463     Total:     1.9276


*** tstop() called on node37.bme.utexas.edu at Tue Feb 22 18:18:10 2022
Module time:
	user time   =      26.68 seconds =       0.44 minutes
	system time =       1.54 seconds =       0.03 minutes
	total time  =         10 seconds =       0.17 minutes
Total time:
	user time   =      50.37 seconds =       0.84 minutes
	system time =       3.52 seconds =       0.06 minutes
	total time  =         20 seconds =       0.33 minutes

*** tstart() called on node37.bme.utexas.edu
*** at Tue Feb 22 18:18:10 2022


  //>>>>>>>>>>>>>>>>>>>>>>>>>>>>>>>>>>>//
  //               DFMP2               //
  //<<<<<<<<<<<<<<<<<<<<<<<<<<<<<<<<<<<//

   => Loading Basis Set <=

    Name: (AUG-CC-PVTZ AUX)
    Role: RIFIT
    Keyword: DF_BASIS_MP2
    atoms 1-2      entry CL         line   742 file /home/bdw2292/miniconda3/envs/amoebamdpoltype/share/psi4/basis/aug-cc-pvtz-ri.gbs 
    atoms 3        entry C          line   148 file /home/bdw2292/miniconda3/envs/amoebamdpoltype/share/psi4/basis/aug-cc-pvtz-ri.gbs 
    atoms 4-5, 7-8 entry H          line    30 file /home/bdw2292/miniconda3/envs/amoebamdpoltype/share/psi4/basis/aug-cc-pvtz-ri.gbs 
    atoms 6        entry O          line   264 file /home/bdw2292/miniconda3/envs/amoebamdpoltype/share/psi4/basis/aug-cc-pvtz-ri.gbs 

	 --------------------------------------------------------
	                          DF-MP2                         
	      2nd-Order Density-Fitted Moller-Plesset Theory     
	              RMP2 Wavefunction,   4 Threads             
	                                                         
	        Rob Parrish, Justin Turney, Andy Simmonett,      
	           Ed Hohenstein, and C. David Sherrill          
	 --------------------------------------------------------

   => Auxiliary Basis Set <=

  Basis Set: (AUG-CC-PVTZ AUX)
    Blend: AUG-CC-PVTZ-RI
    Number of shells: 186
    Number of basis function: 690
    Number of Cartesian functions: 874
    Spherical Harmonics?: true
    Max angular momentum: 4

	 --------------------------------------------------------
	                 NBF =   284, NAUX =   690
	 --------------------------------------------------------
	   CLASS    FOCC     OCC    AOCC    AVIR     VIR    FVIR
	   PAIRS       1       5       4     279     279       0
	 --------------------------------------------------------

	-----------------------------------------------------------
	 ==================> DF-MP2 Energies <==================== 
	-----------------------------------------------------------
	 Reference Energy          =     -76.0605225936213714 [Eh]
	 Singles Energy            =      -0.0000000000000000 [Eh]
	 Same-Spin Energy          =      -0.0651044438452560 [Eh]
	 Opposite-Spin Energy      =      -0.2030399329307617 [Eh]
	 Correlation Energy        =      -0.2681443767760177 [Eh]
	 Total Energy              =     -76.3286669703973928 [Eh]
	-----------------------------------------------------------
	 ================> DF-SCS-MP2 Energies <================== 
	-----------------------------------------------------------
	 SCS Same-Spin Scale       =       0.3333333333333333 [-]
	 SCS Opposite-Spin Scale   =       1.2000000000000000 [-]
	 SCS Same-Spin Energy      =      -0.0217014812817520 [Eh]
	 SCS Opposite-Spin Energy  =      -0.2436479195169141 [Eh]
	 SCS Correlation Energy    =      -0.2653494007986660 [Eh]
	 SCS Total Energy          =     -76.3258719944200408 [Eh]
	-----------------------------------------------------------


*** tstop() called on node37.bme.utexas.edu at Tue Feb 22 18:18:14 2022
Module time:
	user time   =       9.63 seconds =       0.16 minutes
	system time =       0.72 seconds =       0.01 minutes
	total time  =          4 seconds =       0.07 minutes
Total time:
	user time   =      60.00 seconds =       1.00 minutes
	system time =       4.24 seconds =       0.07 minutes
	total time  =         24 seconds =       0.40 minutes

  //>>>>>>>>>>>>>>>>>>>>>>>>>>>>>>>>>>>>//
  // CBS Computation: MP2 / AUG-CC-PVQZ //
  //<<<<<<<<<<<<<<<<<<<<<<<<<<<<<<<<<<<<//

    SCF Algorithm Type (re)set to DF.

*** tstart() called on node37.bme.utexas.edu
*** at Tue Feb 22 18:18:14 2022

   => Loading Basis Set <=

    Name: AUG-CC-PVQZ
    Role: ORBITAL
    Keyword: BASIS
    atoms 1-2      entry CL         line  1218 file /home/bdw2292/miniconda3/envs/amoebamdpoltype/share/psi4/basis/aug-cc-pvqz.gbs 
    atoms 3        entry C          line   299 file /home/bdw2292/miniconda3/envs/amoebamdpoltype/share/psi4/basis/aug-cc-pvqz.gbs 
    atoms 4-5, 7-8 entry H          line    36 file /home/bdw2292/miniconda3/envs/amoebamdpoltype/share/psi4/basis/aug-cc-pvqz.gbs 
    atoms 6        entry O          line   419 file /home/bdw2292/miniconda3/envs/amoebamdpoltype/share/psi4/basis/aug-cc-pvqz.gbs 


         ---------------------------------------------------------
                                   SCF
               by Justin Turney, Rob Parrish, Andy Simmonett
                          and Daniel G. A. Smith
                              RHF Reference
                        4 Threads,  14305 MiB Core
         ---------------------------------------------------------

  ==> Geometry <==

    Molecular point group: c1
    Full point group: C1

    Geometry (in Angstrom), charge = 0, multiplicity = 1:

       Center              X                  Y                   Z               Mass       
    ------------   -----------------  -----------------  -----------------  -----------------
      Gh(CL)         -1.455640664168    -0.801594268366    -0.031369896070    34.968852682000
      Gh(CL)          1.453988335832    -0.418040068366    -0.007761496070    34.968852682000
      Gh(C)           0.127553035832    -1.587033168366     0.056175203930    12.000000000000
      Gh(H)           0.191634435832    -2.130214868366     0.999110303930     1.007825032230
      Gh(H)           0.223730335832    -2.266028268366    -0.791144496070     1.007825032230
         O           -0.130985364168     3.719865031634     0.057877703930    15.994914619570
         H           -0.218458564168     2.793052031634     0.284025403930     1.007825032230
         H            0.420505835832     3.780838831634    -0.721665496070     1.007825032230

  Running in c1 symmetry.

  Rotational constants: A =      0.11191  B =      0.05351  C =      0.03657 [cm^-1]
  Rotational constants: A =   3355.00232  B =   1604.09862  C =   1096.35443 [MHz]
  Nuclear repulsion =    9.185256376706507

  Charge       = 0
  Multiplicity = 1
  Electrons    = 10
  Nalpha       = 5
  Nbeta        = 5

  ==> Algorithm <==

  SCF Algorithm Type is DF.
  DIIS enabled.
  MOM disabled.
  Fractional occupation disabled.
  Guess Type is SAD.
  Energy threshold   = 1.00e-08
  Density threshold  = 1.00e-08
  Integral threshold = 0.00e+00

  ==> Primary Basis <==

  Basis Set: AUG-CC-PVQZ
    Blend: AUG-CC-PVQZ
    Number of shells: 140
    Number of basis function: 512
    Number of Cartesian functions: 648
    Spherical Harmonics?: true
    Max angular momentum: 4

   => Loading Basis Set <=

    Name: (AUG-CC-PVQZ AUX)
    Role: JKFIT
    Keyword: DF_BASIS_SCF
    atoms 1-2      entry CL         line   904 file /home/bdw2292/miniconda3/envs/amoebamdpoltype/share/psi4/basis/aug-cc-pvqz-jkfit.gbs 
    atoms 3        entry C          line   178 file /home/bdw2292/miniconda3/envs/amoebamdpoltype/share/psi4/basis/aug-cc-pvqz-jkfit.gbs 
    atoms 4-5, 7-8 entry H          line    70 file /home/bdw2292/miniconda3/envs/amoebamdpoltype/share/psi4/basis/aug-cc-pvqz-jkfit.gbs 
    atoms 6        entry O          line   318 file /home/bdw2292/miniconda3/envs/amoebamdpoltype/share/psi4/basis/aug-cc-pvqz-jkfit.gbs 

  ==> Pre-Iterations <==

   -------------------------------------------------------
    Irrep   Nso     Nmo     Nalpha   Nbeta   Ndocc  Nsocc
   -------------------------------------------------------
     A        512     512       0       0       0       0
   -------------------------------------------------------
    Total     512     512       5       5       5       0
   -------------------------------------------------------

  ==> Integral Setup <==

  DFHelper Memory: AOs need 1.710 GiB; user supplied 10.477 GiB. Using in-core AOs.

  ==> MemDFJK: Density-Fitted J/K Matrices <==

    J tasked:                   Yes
    K tasked:                   Yes
    wK tasked:                   No
    OpenMP threads:               4
    Memory [MiB]:             10728
    Algorithm:                 Core
    Schwarz Cutoff:           1E-12
    Mask sparsity (%):      12.6366
    Fitting Condition:        1E-10

   => Auxiliary Basis Set <=

  Basis Set: (AUG-CC-PVQZ AUX)
    Blend: AUG-CC-PVQZ-JKFIT
    Number of shells: 232
    Number of basis function: 956
    Number of Cartesian functions: 1294
    Spherical Harmonics?: true
    Max angular momentum: 5

  Minimum eigenvalue in the overlap matrix is 1.4125304923E-05.
  Using Symmetric Orthogonalization.

  SCF Guess: Superposition of Atomic Densities via on-the-fly atomic UHF.

  ==> Iterations <==

                           Total Energy        Delta E     RMS |[F,P]|

   @DF-RHF iter SAD:   -75.47969673567987   -7.54797e+01   0.00000e+00 
   @DF-RHF iter   1:   -75.98169151853926   -5.01995e-01   9.17297e-04 DIIS
   @DF-RHF iter   2:   -76.03423687197554   -5.25454e-02   6.23307e-04 DIIS
   @DF-RHF iter   3:   -76.06548799144424   -3.12511e-02   4.24538e-05 DIIS
   @DF-RHF iter   4:   -76.06587920924457   -3.91218e-04   1.03633e-05 DIIS
   @DF-RHF iter   5:   -76.06590400810460   -2.47989e-05   2.32463e-06 DIIS
   @DF-RHF iter   6:   -76.06590603914078   -2.03104e-06   5.30098e-07 DIIS
   @DF-RHF iter   7:   -76.06590615722499   -1.18084e-07   1.02979e-07 DIIS
   @DF-RHF iter   8:   -76.06590616118328   -3.95829e-09   1.65037e-08 DIIS
   @DF-RHF iter   9:   -76.06590616126607   -8.27924e-11   3.99266e-09 DIIS
  Energy and wave function converged.


  ==> Post-Iterations <==

    Orbital Energies [Eh]
    ---------------------

    Doubly Occupied:                                                      

       1A    -20.563273     2A     -1.350408     3A     -0.724055  
       4A     -0.578444     5A     -0.509480  

    Virtual:                                                              

       6A      0.015394     7A      0.032782     8A      0.037408  
       9A      0.043906    10A      0.052847    11A      0.069018  
      12A      0.084483    13A      0.088773    14A      0.091621  
      15A      0.092666    16A      0.101606    17A      0.108621  
      18A      0.123913    19A      0.130103    20A      0.139908  
      21A      0.144438    22A      0.151743    23A      0.169036  
      24A      0.171669    25A      0.186658    26A      0.209030  
      27A      0.211318    28A      0.224173    29A      0.227997  
      30A      0.231817    31A      0.246072    32A      0.251003  
      33A      0.253166    34A      0.258034    35A      0.263773  
      36A      0.268584    37A      0.272946    38A      0.276100  
      39A      0.305206    40A      0.308215    41A      0.324460  
      42A      0.326617    43A      0.340000    44A      0.345115  
      45A      0.352803    46A      0.353773    47A      0.358371  
      48A      0.364899    49A      0.376198    50A      0.382744  
      51A      0.405227    52A      0.412446    53A      0.425333  
      54A      0.429861    55A      0.444948    56A      0.463922  
      57A      0.468576    58A      0.482103    59A      0.484591  
      60A      0.492472    61A      0.497834    62A      0.512386  
      63A      0.531303    64A      0.544637    65A      0.552627  
      66A      0.558119    67A      0.561922    68A      0.567034  
      69A      0.572294    70A      0.577552    71A      0.594272  
      72A      0.609678    73A      0.645212    74A      0.663915  
      75A      0.669761    76A      0.678392    77A      0.684968  
      78A      0.690830    79A      0.697487    80A      0.706088  
      81A      0.712904    82A      0.730586    83A      0.736868  
      84A      0.749777    85A      0.770516    86A      0.782869  
      87A      0.789299    88A      0.794667    89A      0.800104  
      90A      0.808068    91A      0.817601    92A      0.842339  
      93A      0.843822    94A      0.849348    95A      0.863506  
      96A      0.871051    97A      0.873692    98A      0.888269  
      99A      0.913631   100A      0.924695   101A      0.940651  
     102A      0.944725   103A      0.946271   104A      0.959180  
     105A      0.978882   106A      0.983638   107A      0.987748  
     108A      0.996127   109A      1.007596   110A      1.015112  
     111A      1.018285   112A      1.022427   113A      1.040328  
     114A      1.052702   115A      1.056380   116A      1.064602  
     117A      1.077249   118A      1.093503   119A      1.097759  
     120A      1.111391   121A      1.117317   122A      1.123422  
     123A      1.141048   124A      1.145663   125A      1.159257  
     126A      1.170525   127A      1.185912   128A      1.202538  
     129A      1.204890   130A      1.218959   131A      1.243327  
     132A      1.258982   133A      1.263487   134A      1.311528  
     135A      1.324425   136A      1.384826   137A      1.399305  
     138A      1.427644   139A      1.446094   140A      1.453648  
     141A      1.466637   142A      1.488056   143A      1.506861  
     144A      1.521896   145A      1.529495   146A      1.557028  
     147A      1.564401   148A      1.567150   149A      1.587575  
     150A      1.596161   151A      1.600145   152A      1.604958  
     153A      1.611373   154A      1.624615   155A      1.635267  
     156A      1.646720   157A      1.665622   158A      1.674554  
     159A      1.683528   160A      1.698170   161A      1.703907  
     162A      1.708945   163A      1.716432   164A      1.728879  
     165A      1.744883   166A      1.778553   167A      1.779195  
     168A      1.788772   169A      1.817324   170A      1.844481  
     171A      1.855157   172A      1.861163   173A      1.877415  
     174A      1.886289   175A      1.890832   176A      1.897146  
     177A      1.906208   178A      1.914112   179A      1.915944  
     180A      1.938506   181A      1.941552   182A      1.959883  
     183A      1.978680   184A      1.987488   185A      2.023920  
     186A      2.030894   187A      2.037925   188A      2.042939  
     189A      2.054019   190A      2.062333   191A      2.073147  
     192A      2.080333   193A      2.089700   194A      2.123005  
     195A      2.134102   196A      2.142607   197A      2.158826  
     198A      2.167972   199A      2.172160   200A      2.180751  
     201A      2.188756   202A      2.222814   203A      2.232986  
     204A      2.233832   205A      2.243197   206A      2.253678  
     207A      2.265518   208A      2.325608   209A      2.353283  
     210A      2.360535   211A      2.394859   212A      2.398656  
     213A      2.399742   214A      2.420998   215A      2.433912  
     216A      2.464651   217A      2.475423   218A      2.478638  
     219A      2.501788   220A      2.504574   221A      2.516024  
     222A      2.528312   223A      2.545751   224A      2.567289  
     225A      2.576779   226A      2.586133   227A      2.606127  
     228A      2.613281   229A      2.636148   230A      2.641808  
     231A      2.664324   232A      2.676263   233A      2.696445  
     234A      2.706612   235A      2.729000   236A      2.756547  
     237A      2.786530   238A      2.788498   239A      2.815835  
     240A      2.834462   241A      2.847103   242A      2.898191  
     243A      2.900059   244A      2.901730   245A      2.944843  
     246A      2.974855   247A      2.986452   248A      2.988376  
     249A      3.008269   250A      3.015871   251A      3.023965  
     252A      3.035502   253A      3.056597   254A      3.063525  
     255A      3.090485   256A      3.104104   257A      3.107610  
     258A      3.145806   259A      3.172830   260A      3.221467  
     261A      3.249159   262A      3.263589   263A      3.278320  
     264A      3.317302   265A      3.322743   266A      3.331331  
     267A      3.334863   268A      3.336909   269A      3.366998  
     270A      3.384166   271A      3.399237   272A      3.404475  
     273A      3.442296   274A      3.477078   275A      3.517780  
     276A      3.573841   277A      3.615124   278A      3.619675  
     279A      3.631294   280A      3.637022   281A      3.676551  
     282A      3.699610   283A      3.707136   284A      3.712307  
     285A      3.759564   286A      3.769560   287A      3.787514  
     288A      3.820260   289A      3.848437   290A      3.867174  
     291A      3.896793   292A      3.927343   293A      3.946860  
     294A      4.083638   295A      4.091149   296A      4.103299  
     297A      4.124416   298A      4.128443   299A      4.159810  
     300A      4.165907   301A      4.187980   302A      4.218339  
     303A      4.243710   304A      4.280913   305A      4.299747  
     306A      4.328551   307A      4.406362   308A      4.424035  
     309A      4.436263   310A      4.445001   311A      4.495788  
     312A      4.584218   313A      4.635298   314A      4.682008  
     315A      4.732339   316A      4.779374   317A      4.814089  
     318A      4.814508   319A      4.827128   320A      4.842993  
     321A      4.889371   322A      4.905664   323A      4.936524  
     324A      4.971364   325A      5.025023   326A      5.084124  
     327A      5.228881   328A      5.297731   329A      5.363990  
     330A      5.395209   331A      5.440049   332A      5.464821  
     333A      5.468842   334A      5.479753   335A      5.487066  
     336A      5.536119   337A      5.568354   338A      5.596612  
     339A      5.621745   340A      5.638015   341A      5.652627  
     342A      5.723443   343A      5.753567   344A      5.801187  
     345A      5.815969   346A      5.831417   347A      5.844636  
     348A      5.882204   349A      5.893963   350A      5.896193  
     351A      5.945878   352A      5.996747   353A      6.095594  
     354A      6.107148   355A      6.252845   356A      6.319852  
     357A      6.326562   358A      6.334049   359A      6.362937  
     360A      6.369552   361A      6.427475   362A      6.433662  
     363A      6.461174   364A      6.462417   365A      6.489621  
     366A      6.522603   367A      6.524839   368A      6.585208  
     369A      6.639005   370A      6.851415   371A      6.859826  
     372A      6.871371   373A      6.896153   374A      6.972215  
     375A      6.997746   376A      7.004054   377A      7.061627  
     378A      7.101354   379A      7.115005   380A      7.171614  
     381A      7.259195   382A      7.296936   383A      7.306884  
     384A      7.378430   385A      7.489329   386A      7.538131  
     387A      7.600410   388A      7.629746   389A      7.650073  
     390A      7.669358   391A      7.706133   392A      7.716539  
     393A      7.748211   394A      7.797728   395A      7.839860  
     396A      7.848512   397A      7.851778   398A      7.863926  
     399A      7.865049   400A      7.869169   401A      7.878438  
     402A      7.913862   403A      7.931619   404A      7.952197  
     405A      7.965148   406A      7.973789   407A      7.976077  
     408A      8.046221   409A      8.077298   410A      8.161458  
     411A      8.166124   412A      8.206824   413A      8.243992  
     414A      8.281897   415A      8.309818   416A      8.338523  
     417A      8.376631   418A      8.394389   419A      8.437745  
     420A      8.553080   421A      8.612118   422A      8.650709  
     423A      8.664364   424A      8.691288   425A      8.720844  
     426A      8.778964   427A      8.817125   428A      8.825203  
     429A      8.877209   430A      8.929345   431A      8.988585  
     432A      9.028837   433A      9.084841   434A      9.168662  
     435A      9.172822   436A      9.175118   437A      9.303806  
     438A      9.379050   439A      9.519859   440A      9.523731  
     441A      9.560757   442A      9.562102   443A      9.577098  
     444A      9.684918   445A      9.755747   446A      9.769376  
     447A      9.797299   448A      9.864018   449A      9.982495  
     450A      9.989212   451A     10.018873   452A     10.063259  
     453A     10.112190   454A     10.349904   455A     10.358040  
     456A     10.441753   457A     10.507731   458A     10.664690  
     459A     10.681026   460A     10.709294   461A     10.776806  
     462A     10.792874   463A     10.797070   464A     10.964714  
     465A     11.011885   466A     11.053037   467A     11.089183  
     468A     11.133366   469A     11.281298   470A     11.383881  
     471A     11.410674   472A     11.412800   473A     11.449801  
     474A     11.712917   475A     11.763526   476A     11.814474  
     477A     11.858888   478A     12.026489   479A     12.081157  
     480A     12.192196   481A     12.237482   482A     12.562383  
     483A     12.749284   484A     12.880700   485A     12.904244  
     486A     13.011947   487A     13.025110   488A     13.217125  
     489A     13.894482   490A     14.008895   491A     14.084128  
     492A     14.288512   493A     14.497709   494A     14.847424  
     495A     14.891351   496A     15.315128   497A     16.718307  
     498A     16.945260   499A     17.285072   500A     17.310982  
     501A     31.090071   502A     31.094609   503A     31.106170  
     504A     31.143153   505A     31.310232   506A     31.361117  
     507A     42.718060   508A     43.322690   509A     45.589243  
     510A     70.513481   511A    160.340294   512A    160.414963  

    Final Occupation by Irrep:
              A 
    DOCC [     5 ]

  @DF-RHF Final Energy:   -76.06590616126607

   => Energetics <=

    Nuclear Repulsion Energy =              9.1852563767065067
    One-Electron Energy =                -123.0510019226665861
    Two-Electron Energy =                  37.7998393846939962
    Total Energy =                        -76.0659061612660850

Computation Completed


Properties will be evaluated at  -0.000000,   0.000000,   0.000000 [a0]

Properties computed using the SCF density matrix

  Nuclear Dipole Moment: [e a0]
     X:    -1.5984      Y:    68.6591      Z:     0.0480

  Electronic Dipole Moment: [e a0]
     X:     1.9101      Y:   -69.2405      Z:    -0.4197

  Dipole Moment: [e a0]
     X:     0.3117      Y:    -0.5814      Z:    -0.3717     Total:     0.7572

  Dipole Moment: [D]
     X:     0.7923      Y:    -1.4778      Z:    -0.9449     Total:     1.9247


*** tstop() called on node37.bme.utexas.edu at Tue Feb 22 18:18:41 2022
Module time:
	user time   =      81.71 seconds =       1.36 minutes
	system time =       3.92 seconds =       0.07 minutes
	total time  =         27 seconds =       0.45 minutes
Total time:
	user time   =     141.76 seconds =       2.36 minutes
	system time =       8.17 seconds =       0.14 minutes
	total time  =         51 seconds =       0.85 minutes

*** tstart() called on node37.bme.utexas.edu
*** at Tue Feb 22 18:18:41 2022


  //>>>>>>>>>>>>>>>>>>>>>>>>>>>>>>>>>>>//
  //               DFMP2               //
  //<<<<<<<<<<<<<<<<<<<<<<<<<<<<<<<<<<<//

   => Loading Basis Set <=

    Name: (AUG-CC-PVQZ AUX)
    Role: RIFIT
    Keyword: DF_BASIS_MP2
    atoms 1-2      entry CL         line   914 file /home/bdw2292/miniconda3/envs/amoebamdpoltype/share/psi4/basis/aug-cc-pvqz-ri.gbs 
    atoms 3        entry C          line   184 file /home/bdw2292/miniconda3/envs/amoebamdpoltype/share/psi4/basis/aug-cc-pvqz-ri.gbs 
    atoms 4-5, 7-8 entry H          line    30 file /home/bdw2292/miniconda3/envs/amoebamdpoltype/share/psi4/basis/aug-cc-pvqz-ri.gbs 
    atoms 6        entry O          line   332 file /home/bdw2292/miniconda3/envs/amoebamdpoltype/share/psi4/basis/aug-cc-pvqz-ri.gbs 

	 --------------------------------------------------------
	                          DF-MP2                         
	      2nd-Order Density-Fitted Moller-Plesset Theory     
	              RMP2 Wavefunction,   4 Threads             
	                                                         
	        Rob Parrish, Justin Turney, Andy Simmonett,      
	           Ed Hohenstein, and C. David Sherrill          
	 --------------------------------------------------------

   => Auxiliary Basis Set <=

  Basis Set: (AUG-CC-PVQZ AUX)
    Blend: AUG-CC-PVQZ-RI
    Number of shells: 240
    Number of basis function: 1044
    Number of Cartesian functions: 1430
    Spherical Harmonics?: true
    Max angular momentum: 5

	 --------------------------------------------------------
	                 NBF =   512, NAUX =  1044
	 --------------------------------------------------------
	   CLASS    FOCC     OCC    AOCC    AVIR     VIR    FVIR
	   PAIRS       1       5       4     507     507       0
	 --------------------------------------------------------

	-----------------------------------------------------------
	 ==================> DF-MP2 Energies <==================== 
	-----------------------------------------------------------
	 Reference Energy          =     -76.0659061612660707 [Eh]
	 Singles Energy            =      -0.0000000000000000 [Eh]
	 Same-Spin Energy          =      -0.0671701407228004 [Eh]
	 Opposite-Spin Energy      =      -0.2185576032250222 [Eh]
	 Correlation Energy        =      -0.2857277439478226 [Eh]
	 Total Energy              =     -76.3516339052138875 [Eh]
	-----------------------------------------------------------
	 ================> DF-SCS-MP2 Energies <================== 
	-----------------------------------------------------------
	 SCS Same-Spin Scale       =       0.3333333333333333 [-]
	 SCS Opposite-Spin Scale   =       1.2000000000000000 [-]
	 SCS Same-Spin Energy      =      -0.0223900469076001 [Eh]
	 SCS Opposite-Spin Energy  =      -0.2622691238700266 [Eh]
	 SCS Correlation Energy    =      -0.2846591707776268 [Eh]
	 SCS Total Energy          =     -76.3505653320437006 [Eh]
	-----------------------------------------------------------


*** tstop() called on node37.bme.utexas.edu at Tue Feb 22 18:18:54 2022
Module time:
	user time   =      34.15 seconds =       0.57 minutes
	system time =       3.64 seconds =       0.06 minutes
	total time  =         13 seconds =       0.22 minutes
Total time:
	user time   =     175.91 seconds =       2.93 minutes
	system time =      11.81 seconds =       0.20 minutes
	total time  =         64 seconds =       1.07 minutes

  //>>>>>>>>>>>>>>>>>>>>>>>>>>>>>>>>>>>//
  //  CBS Results: mp2/aug-cc-pV[TQ]Z  //
  //<<<<<<<<<<<<<<<<<<<<<<<<<<<<<<<<<<<//


   ==> HF <==

   HI-zeta (4) Energy:               -76.065906161266


   ==> Helgaker 2-point correlated extrapolation for method: MP2 <==

   LO-zeta (3) Energy:               -76.328666970397
   HI-zeta (4) Energy:               -76.351633905214
   Alpha (exponent) Value:             3.000000000000
   Extrapolated Energy:              -76.368393560350

   @Extrapolated MP2/(T,Q):          -76.368393560350



   ==> Helgaker 2-point correlated extrapolation for method: HF <==

   LO-zeta (3) Energy:               -76.060522593621
   HI-zeta (4) Energy:               -76.065906161266
   Alpha (exponent) Value:             3.000000000000
   Extrapolated Energy:              -76.069834710628

   @Extrapolated HF/(T,Q):           -76.069834710628


   ==> Components <==

  ---------------------------------------------------------------------------------------------------------
                          Method / Basis                      Rqd      Energy [Eh]   Variable
  ---------------------------------------------------------------------------------------------------------
                              hf / aug-cc-pvtz                  *     -76.06052259   HF TOTAL ENERGY
                             mp2 / aug-cc-pvtz                  *     -76.32866697   MP2 TOTAL ENERGY
                              hf / aug-cc-pvqz                  *     -76.06590616   HF TOTAL ENERGY
                             mp2 / aug-cc-pvqz                  *     -76.35163391   MP2 TOTAL ENERGY
  ---------------------------------------------------------------------------------------------------------

   ==> Stages <==

  ---------------------------------------------------------------------------------------------------------
      Stage               Method / Basis                       Wt      Energy [Eh]   Scheme
  ---------------------------------------------------------------------------------------------------------
        scf                   hf / aug-cc-pvqz                  1     -76.06590616   xtpl_highest_1
       corl                  mp2 / aug-cc-pv[tq]z               1     -76.36839356   corl_xtpl_helgaker_2
       corl                   hf / aug-cc-pv[tq]z              -1     -76.06983471   corl_xtpl_helgaker_2
  ---------------------------------------------------------------------------------------------------------

   ==> CBS <==

  ---------------------------------------------------------------------------------------------------------
      Stage               Method / Basis                               Energy [Eh]   Scheme
  ---------------------------------------------------------------------------------------------------------
        scf                   hf / aug-cc-pvqz                        -76.06590616   xtpl_highest_1
       corl                  mp2 / aug-cc-pv[tq]z                      -0.29855885   corl_xtpl_helgaker_2
      total                  CBS                                      -76.36446501   
  ---------------------------------------------------------------------------------------------------------
   => Loading Basis Set <=

    Name: DEF2-SVP
    Role: ORBITAL
    Keyword: BASIS
    atoms 1-2      entry CL         line   356 file /home/bdw2292/miniconda3/envs/amoebamdpoltype/share/psi4/basis/def2-svp.gbs 
    atoms 3        entry C          line    90 file /home/bdw2292/miniconda3/envs/amoebamdpoltype/share/psi4/basis/def2-svp.gbs 
    atoms 4-5, 7-8 entry H          line    15 file /home/bdw2292/miniconda3/envs/amoebamdpoltype/share/psi4/basis/def2-svp.gbs 
    atoms 6        entry O          line   130 file /home/bdw2292/miniconda3/envs/amoebamdpoltype/share/psi4/basis/def2-svp.gbs 


       N-Body: Complex Energy (fragments = (2,), basis = (1, 2):   -76.36446501098789)

       N-Body: Computing complex (3/4) with fragments (1,) in the basis of fragments (1, 2).


  //>>>>>>>>>>>>>>>>>>>>>>>>>>>>>>>>>>>//
  //   CBS Setup: mp2/aug-cc-pV[TQ]Z   //
  //<<<<<<<<<<<<<<<<<<<<<<<<<<<<<<<<<<<//

    Naive listing of computations required.
             hf / aug-cc-pvqz              for  HF TOTAL ENERGY
            mp2 / aug-cc-pvtz              for  MP2 TOTAL ENERGY
            mp2 / aug-cc-pvqz              for  MP2 TOTAL ENERGY
             hf / aug-cc-pvtz              for  HF TOTAL ENERGY
             hf / aug-cc-pvqz              for  HF TOTAL ENERGY

    Enlightened listing of computations required.
            mp2 / aug-cc-pvtz              for  MP2 TOTAL ENERGY
            mp2 / aug-cc-pvqz              for  MP2 TOTAL ENERGY

    Full listing of computations to be obtained (required and bonus).
             hf / aug-cc-pvtz              for  HF TOTAL ENERGY
            mp2 / aug-cc-pvtz              for  MP2 TOTAL ENERGY
             hf / aug-cc-pvqz              for  HF TOTAL ENERGY
            mp2 / aug-cc-pvqz              for  MP2 TOTAL ENERGY

  //>>>>>>>>>>>>>>>>>>>>>>>>>>>>>>>>>>>>//
  // CBS Computation: MP2 / AUG-CC-PVTZ //
  //<<<<<<<<<<<<<<<<<<<<<<<<<<<<<<<<<<<<//

    SCF Algorithm Type (re)set to DF.

*** tstart() called on node37.bme.utexas.edu
*** at Tue Feb 22 18:18:55 2022

   => Loading Basis Set <=

    Name: AUG-CC-PVTZ
    Role: ORBITAL
    Keyword: BASIS
    atoms 1-2      entry CL         line   984 file /home/bdw2292/miniconda3/envs/amoebamdpoltype/share/psi4/basis/aug-cc-pvtz.gbs 
    atoms 3        entry C          line   235 file /home/bdw2292/miniconda3/envs/amoebamdpoltype/share/psi4/basis/aug-cc-pvtz.gbs 
    atoms 4-5, 7-8 entry H          line    36 file /home/bdw2292/miniconda3/envs/amoebamdpoltype/share/psi4/basis/aug-cc-pvtz.gbs 
[...]
      66A      0.340927    67A      0.343976    68A      0.349317  
      69A      0.352611    70A      0.376589    71A      0.378652  
      72A      0.388411    73A      0.393990    74A      0.397383  
      75A      0.414069    76A      0.423670    77A      0.442111  
      78A      0.452366    79A      0.477984    80A      0.494774  
      81A      0.514924    82A      0.521896    83A      0.530070  
      84A      0.539448    85A      0.546972    86A      0.557253  
      87A      0.560276    88A      0.566866    89A      0.576094  
      90A      0.584555    91A      0.589790    92A      0.594118  
      93A      0.597760    94A      0.606745    95A      0.618264  
      96A      0.641992    97A      0.658125    98A      0.669593  
      99A      0.671058   100A      0.674359   101A      0.684753  
     102A      0.689954   103A      0.697146   104A      0.700219  
     105A      0.715082   106A      0.720662   107A      0.725637  
     108A      0.730988   109A      0.738752   110A      0.747573  
     111A      0.758824   112A      0.768630   113A      0.772912  
     114A      0.776074   115A      0.787961   116A      0.793725  
     117A      0.805961   118A      0.817474   119A      0.821477  
     120A      0.825866   121A      0.834952   122A      0.846300  
     123A      0.854692   124A      0.869427   125A      0.884923  
     126A      0.890333   127A      0.902184   128A      0.905252  
     129A      0.927382   130A      0.949023   131A      0.973684  
     132A      0.984884   133A      0.998521   134A      1.008141  
     135A      1.020107   136A      1.030762   137A      1.053809  
     138A      1.070939   139A      1.074482   140A      1.094097  
     141A      1.102489   142A      1.115922   143A      1.130197  
     144A      1.138576   145A      1.139632   146A      1.163098  
     147A      1.172980   148A      1.176904   149A      1.189303  
     150A      1.204169   151A      1.222866   152A      1.224290  
     153A      1.229890   154A      1.235835   155A      1.261857  
     156A      1.275023   157A      1.286216   158A      1.294914  
     159A      1.305280   160A      1.326672   161A      1.351679  
     162A      1.382956   163A      1.422618   164A      1.428194  
     165A      1.451345   166A      1.482095   167A      1.485323  
     168A      1.512888   169A      1.527724   170A      1.544908  
     171A      1.571608   172A      1.592192   173A      1.600743  
     174A      1.626600   175A      1.634967   176A      1.648876  
     177A      1.664281   178A      1.669468   179A      1.685876  
     180A      1.691333   181A      1.709074   182A      1.719423  
     183A      1.721117   184A      1.730744   185A      1.736469  
     186A      1.747301   187A      1.759852   188A      1.763949  
     189A      1.772106   190A      1.791307   191A      1.795631  
     192A      1.810338   193A      1.815134   194A      1.821306  
     195A      1.827796   196A      1.843758   197A      1.861649  
     198A      1.870028   199A      1.873911   200A      1.877614  
     201A      1.888050   202A      1.897358   203A      1.908855  
     204A      1.912525   205A      1.918653   206A      1.926818  
     207A      1.943676   208A      1.958607   209A      1.975592  
     210A      1.978664   211A      1.981434   212A      1.990125  
     213A      1.996536   214A      2.001840   215A      2.012839  
     216A      2.040297   217A      2.047920   218A      2.062893  
     219A      2.070279   220A      2.072890   221A      2.078956  
     222A      2.087778   223A      2.095865   224A      2.100386  
     225A      2.131745   226A      2.135490   227A      2.136967  
     228A      2.141997   229A      2.151072   230A      2.157333  
     231A      2.170385   232A      2.199590   233A      2.202287  
     234A      2.228306   235A      2.240282   236A      2.245318  
     237A      2.249804   238A      2.256791   239A      2.272897  
     240A      2.276645   241A      2.289182   242A      2.296750  
     243A      2.307092   244A      2.329530   245A      2.339235  
     246A      2.355793   247A      2.361581   248A      2.379493  
     249A      2.409072   250A      2.416342   251A      2.427692  
     252A      2.448594   253A      2.456880   254A      2.493214  
     255A      2.494262   256A      2.502558   257A      2.517194  
     258A      2.545368   259A      2.557434   260A      2.600117  
     261A      2.605680   262A      2.636992   263A      2.647382  
     264A      2.659436   265A      2.745117   266A      2.751797  
     267A      2.768212   268A      2.816464   269A      2.836056  
     270A      2.885706   271A      2.886126   272A      2.889724  
     273A      2.894609   274A      2.915566   275A      2.981338  
     276A      2.993301   277A      3.021586   278A      3.036289  
     279A      3.043546   280A      3.064988   281A      3.081129  
     282A      3.103660   283A      3.115925   284A      3.150492  
     285A      3.187250   286A      3.195174   287A      3.231094  
     288A      3.284489   289A      3.309597   290A      3.316668  
     291A      3.325206   292A      3.347493   293A      3.359226  
     294A      3.385047   295A      3.460944   296A      3.470091  
     297A      3.521668   298A      3.570689   299A      3.586910  
     300A      3.620284   301A      3.627411   302A      3.681962  
     303A      3.700627   304A      3.703618   305A      3.721037  
     306A      3.738990   307A      3.740879   308A      3.776773  
     309A      3.790586   310A      3.810396   311A      3.910815  
     312A      3.925335   313A      3.936649   314A      3.955471  
     315A      4.011822   316A      4.078810   317A      4.105672  
     318A      4.144460   319A      4.172460   320A      4.190799  
     321A      4.201298   322A      4.204145   323A      4.228517  
     324A      4.253724   325A      4.306890   326A      4.341574  
     327A      4.370862   328A      4.389970   329A      4.441159  
     330A      4.455840   331A      4.479438   332A      4.507806  
     333A      4.514917   334A      4.547361   335A      4.556262  
     336A      4.564310   337A      4.605261   338A      4.674569  
     339A      4.676899   340A      4.679313   341A      4.686105  
     342A      4.697800   343A      4.719650   344A      4.722575  
     345A      4.744179   346A      4.753189   347A      4.756841  
     348A      4.768191   349A      4.789067   350A      4.795899  
     351A      4.803698   352A      4.810107   353A      4.830098  
     354A      4.835173   355A      4.837026   356A      4.845967  
     357A      4.855353   358A      4.861936   359A      4.883187  
     360A      4.883992   361A      4.893371   362A      4.917121  
     363A      4.940374   364A      4.945088   365A      4.961453  
     366A      4.974618   367A      5.020944   368A      5.036923  
     369A      5.046760   370A      5.054479   371A      5.060297  
     372A      5.108557   373A      5.171980   374A      5.201725  
     375A      5.222834   376A      5.233266   377A      5.302512  
     378A      5.336922   379A      5.382656   380A      5.396814  
     381A      5.399067   382A      5.419960   383A      5.489738  
     384A      5.547280   385A      5.614311   386A      5.654678  
     387A      5.902673   388A      5.904086   389A      6.117075  
     390A      6.266635   391A      6.310653   392A      6.344841  
     393A      6.349723   394A      6.382205   395A      6.382668  
     396A      6.523717   397A      6.571222   398A      6.597654  
     399A      6.652487   400A      6.729168   401A      6.760866  
     402A      6.808484   403A      6.809957   404A      6.826877  
     405A      6.859142   406A      6.865548   407A      6.869532  
     408A      6.880563   409A      6.930912   410A      6.936196  
     411A      6.980205   412A      6.995563   413A      6.999159  
     414A      7.023556   415A      7.146092   416A      7.164767  
     417A      7.211579   418A      7.369711   419A      7.420227  
     420A      7.449697   421A      7.568262   422A      7.579394  
     423A      7.607790   424A      7.660649   425A      7.695930  
     426A      7.753885   427A      7.779267   428A      7.802359  
     429A      7.807638   430A      7.852450   431A      7.871157  
     432A      7.886177   433A      7.941323   434A      7.969347  
     435A      8.012299   436A      8.056233   437A      8.092705  
     438A      8.123037   439A      8.216301   440A      8.316394  
     441A      8.347681   442A      8.499732   443A      8.537751  
     444A      8.561198   445A      8.589101   446A      8.621715  
     447A      8.696866   448A      8.729981   449A      8.787903  
     450A      8.794137   451A      8.832800   452A      8.870451  
     453A      8.886495   454A      8.937519   455A      8.998977  
     456A      9.093437   457A      9.121294   458A      9.182936  
     459A      9.207814   460A      9.425306   461A      9.473026  
     462A      9.491221   463A      9.500017   464A      9.536465  
     465A      9.571563   466A      9.776500   467A      9.872063  
     468A      9.925710   469A      9.949239   470A      9.992862  
     471A      9.999790   472A     10.028255   473A     10.311167  
     474A     10.380635   475A     10.450995   476A     10.517062  
     477A     10.574537   478A     10.715514   479A     10.752832  
     480A     10.769084   481A     11.020909   482A     11.057638  
     483A     11.062856   484A     11.140974   485A     11.290133  
     486A     11.392710   487A     11.458603   488A     11.721822  
     489A     11.823204   490A     11.867086   491A     12.035134  
     492A     12.201135   493A     12.246445   494A     12.571528  
     495A     12.758572   496A     12.889914   497A     12.913397  
     498A     13.006774   499A     13.083722   500A     13.226197  
     501A     14.018282   502A     14.093138   503A     14.506910  
     504A     14.856601   505A     14.900688   506A     15.324361  
     507A     16.954517   508A     17.294280   509A     25.985028  
     510A     26.650446   511A     27.903998   512A     45.598404  

    Final Occupation by Irrep:
              A 
    DOCC [    26 ]

  @DF-RHF Final Energy: -1034.15568605452268

   => Energetics <=

    Nuclear Repulsion Energy =            191.7926652447772824
    One-Electron Energy =               -1809.5030277866121651
    Two-Electron Energy =                 583.5546764873122356
    Total Energy =                      -1034.1556860545226755

Computation Completed


Properties will be evaluated at  -0.000000,   0.000000,   0.000000 [a0]

Properties computed using the SCF density matrix

  Nuclear Dipole Moment: [e a0]
     X:     0.5797      Y:     3.1758      Z:    -0.1792

  Electronic Dipole Moment: [e a0]
     X:    -0.1815      Y:    -4.5539      Z:    -0.1323

  Dipole Moment: [e a0]
     X:     0.3982      Y:    -1.3781      Z:    -0.3115     Total:     1.4679

  Dipole Moment: [D]
     X:     1.0121      Y:    -3.5027      Z:    -0.7919     Total:     3.7310


*** tstop() called on node37.bme.utexas.edu at Tue Feb 22 18:21:49 2022
Module time:
	user time   =     115.69 seconds =       1.93 minutes
	system time =       5.73 seconds =       0.10 minutes
	total time  =         43 seconds =       0.72 minutes
Total time:
	user time   =     610.45 seconds =      10.17 minutes
	system time =      37.12 seconds =       0.62 minutes
	total time  =        239 seconds =       3.98 minutes

*** tstart() called on node37.bme.utexas.edu
*** at Tue Feb 22 18:21:49 2022


  //>>>>>>>>>>>>>>>>>>>>>>>>>>>>>>>>>>>//
  //               DFMP2               //
  //<<<<<<<<<<<<<<<<<<<<<<<<<<<<<<<<<<<//

   => Loading Basis Set <=

    Name: (AUG-CC-PVQZ AUX)
    Role: RIFIT
    Keyword: DF_BASIS_MP2
    atoms 1-2      entry CL         line   914 file /home/bdw2292/miniconda3/envs/amoebamdpoltype/share/psi4/basis/aug-cc-pvqz-ri.gbs 
    atoms 3        entry C          line   184 file /home/bdw2292/miniconda3/envs/amoebamdpoltype/share/psi4/basis/aug-cc-pvqz-ri.gbs 
    atoms 4-5, 7-8 entry H          line    30 file /home/bdw2292/miniconda3/envs/amoebamdpoltype/share/psi4/basis/aug-cc-pvqz-ri.gbs 
    atoms 6        entry O          line   332 file /home/bdw2292/miniconda3/envs/amoebamdpoltype/share/psi4/basis/aug-cc-pvqz-ri.gbs 

	 --------------------------------------------------------
	                          DF-MP2                         
	      2nd-Order Density-Fitted Moller-Plesset Theory     
	              RMP2 Wavefunction,   4 Threads             
	                                                         
	        Rob Parrish, Justin Turney, Andy Simmonett,      
	           Ed Hohenstein, and C. David Sherrill          
	 --------------------------------------------------------

   => Auxiliary Basis Set <=

  Basis Set: (AUG-CC-PVQZ AUX)
    Blend: AUG-CC-PVQZ-RI
    Number of shells: 240
    Number of basis function: 1044
    Number of Cartesian functions: 1430
    Spherical Harmonics?: true
    Max angular momentum: 5

	 --------------------------------------------------------
	                 NBF =   512, NAUX =  1044
	 --------------------------------------------------------
	   CLASS    FOCC     OCC    AOCC    AVIR     VIR    FVIR
	   PAIRS      12      26      14     486     486       0
	 --------------------------------------------------------

	-----------------------------------------------------------
	 ==================> DF-MP2 Energies <==================== 
	-----------------------------------------------------------
	 Reference Energy          =   -1034.1556860545226755 [Eh]
	 Singles Energy            =      -0.0000000000000000 [Eh]
	 Same-Spin Energy          =      -0.2091336009172144 [Eh]
	 Opposite-Spin Energy      =      -0.6861136106819049 [Eh]
	 Correlation Energy        =      -0.8952472115991194 [Eh]
	 Total Energy              =   -1035.0509332661217741 [Eh]
	-----------------------------------------------------------
	 ================> DF-SCS-MP2 Energies <================== 
	-----------------------------------------------------------
	 SCS Same-Spin Scale       =       0.3333333333333333 [-]
	 SCS Opposite-Spin Scale   =       1.2000000000000000 [-]
	 SCS Same-Spin Energy      =      -0.0697112003057381 [Eh]
	 SCS Opposite-Spin Energy  =      -0.8233363328182859 [Eh]
	 SCS Correlation Energy    =      -0.8930475331240241 [Eh]
	 SCS Total Energy          =   -1035.0487335876466659 [Eh]
	-----------------------------------------------------------


*** tstop() called on node37.bme.utexas.edu at Tue Feb 22 18:22:07 2022
Module time:
	user time   =      45.76 seconds =       0.76 minutes
	system time =       2.87 seconds =       0.05 minutes
	total time  =         18 seconds =       0.30 minutes
Total time:
	user time   =     656.21 seconds =      10.94 minutes
	system time =      39.99 seconds =       0.67 minutes
	total time  =        257 seconds =       4.28 minutes

  //>>>>>>>>>>>>>>>>>>>>>>>>>>>>>>>>>>>//
  //  CBS Results: mp2/aug-cc-pV[TQ]Z  //
  //<<<<<<<<<<<<<<<<<<<<<<<<<<<<<<<<<<<//


   ==> HF <==

   HI-zeta (4) Energy:               -1034.155686054523


   ==> Helgaker 2-point correlated extrapolation for method: MP2 <==

   LO-zeta (3) Energy:               -1034.975338412502
   HI-zeta (4) Energy:               -1035.050933266122
   Alpha (exponent) Value:             3.000000000000
   Extrapolated Energy:              -1035.106097078223

   @Extrapolated MP2/(T,Q):          -1035.106097078223



   ==> Helgaker 2-point correlated extrapolation for method: HF <==

   LO-zeta (3) Energy:               -1034.140620152238
   HI-zeta (4) Energy:               -1034.155686054523
   Alpha (exponent) Value:             3.000000000000
   Extrapolated Energy:              -1034.166680091325

   @Extrapolated HF/(T,Q):           -1034.166680091325


   ==> Components <==

  ---------------------------------------------------------------------------------------------------------
                          Method / Basis                      Rqd      Energy [Eh]   Variable
  ---------------------------------------------------------------------------------------------------------
                              hf / aug-cc-pvtz                  *   -1034.14062015   HF TOTAL ENERGY
                             mp2 / aug-cc-pvtz                  *   -1034.97533841   MP2 TOTAL ENERGY
                              hf / aug-cc-pvqz                  *   -1034.15568605   HF TOTAL ENERGY
                             mp2 / aug-cc-pvqz                  *   -1035.05093327   MP2 TOTAL ENERGY
  ---------------------------------------------------------------------------------------------------------

   ==> Stages <==

  ---------------------------------------------------------------------------------------------------------
      Stage               Method / Basis                       Wt      Energy [Eh]   Scheme
  ---------------------------------------------------------------------------------------------------------
        scf                   hf / aug-cc-pvqz                  1   -1034.15568605   xtpl_highest_1
       corl                  mp2 / aug-cc-pv[tq]z               1   -1035.10609708   corl_xtpl_helgaker_2
       corl                   hf / aug-cc-pv[tq]z              -1   -1034.16668009   corl_xtpl_helgaker_2
  ---------------------------------------------------------------------------------------------------------

   ==> CBS <==

  ---------------------------------------------------------------------------------------------------------
      Stage               Method / Basis                               Energy [Eh]   Scheme
  ---------------------------------------------------------------------------------------------------------
        scf                   hf / aug-cc-pvqz                      -1034.15568605   xtpl_highest_1
       corl                  mp2 / aug-cc-pv[tq]z                      -0.93941699   corl_xtpl_helgaker_2
      total                  CBS                                    -1035.09510304   
  ---------------------------------------------------------------------------------------------------------
   => Loading Basis Set <=

    Name: DEF2-SVP
    Role: ORBITAL
    Keyword: BASIS
    atoms 1-2      entry CL         line   356 file /home/bdw2292/miniconda3/envs/amoebamdpoltype/share/psi4/basis/def2-svp.gbs 
    atoms 3        entry C          line    90 file /home/bdw2292/miniconda3/envs/amoebamdpoltype/share/psi4/basis/def2-svp.gbs 
    atoms 4-5, 7-8 entry H          line    15 file /home/bdw2292/miniconda3/envs/amoebamdpoltype/share/psi4/basis/def2-svp.gbs 
    atoms 6        entry O          line   130 file /home/bdw2292/miniconda3/envs/amoebamdpoltype/share/psi4/basis/def2-svp.gbs 


       N-Body: Complex Energy (fragments = (1, 2), basis = (1, 2): -1035.09510304142054)

   ==> N-Body: Counterpoise Corrected (CP) energies <==

   n-Body     Total Energy [Eh]       I.E. [kcal/mol]      Delta [kcal/mol]
        1    -1035.093316277625        0.000000000000        0.000000000000
        2    -1035.095065569812       -1.097697419757       -1.097697419757

   => Loading Basis Set <=

    Name: DEF2-SVP
    Role: ORBITAL
    Keyword: BASIS
    atoms 1-2      entry CL         line   356 file /home/bdw2292/miniconda3/envs/amoebamdpoltype/share/psi4/basis/def2-svp.gbs 
    atoms 3        entry C          line    90 file /home/bdw2292/miniconda3/envs/amoebamdpoltype/share/psi4/basis/def2-svp.gbs 
    atoms 4-5, 7-8 entry H          line    15 file /home/bdw2292/miniconda3/envs/amoebamdpoltype/share/psi4/basis/def2-svp.gbs 
    atoms 6        entry O          line   130 file /home/bdw2292/miniconda3/envs/amoebamdpoltype/share/psi4/basis/def2-svp.gbs 

CP Energy =  -0.001749
    Psi4 stopped on: Tuesday, 22 February 2022 06:22PM
    Psi4 wall time for execution: 0:04:18.33

*** Psi4 exiting successfully. Buy a developer a beer!
