
    -----------------------------------------------------------------------
          Psi4: An Open-Source Ab Initio Electronic Structure Package
                               Psi4 1.3.2 release

                         Git: Rev {HEAD} ecbda83 


    R. M. Parrish, L. A. Burns, D. G. A. Smith, A. C. Simmonett,
    A. E. DePrince III, E. G. Hohenstein, U. Bozkaya, A. Yu. Sokolov,
    R. Di Remigio, R. M. Richard, J. F. Gonthier, A. M. James,
    H. R. McAlexander, A. Kumar, M. Saitow, X. Wang, B. P. Pritchard,
    P. Verma, H. F. Schaefer III, K. Patkowski, R. A. King, E. F. Valeev,
    F. A. Evangelista, J. M. Turney, T. D. Crawford, and C. D. Sherrill,
    J. Chem. Theory Comput. 13(7) pp 3185--3197 (2017).
    (doi: 10.1021/acs.jctc.7b00174)


                         Additional Contributions by
    P. Kraus, H. Kruse, M. H. Lechner, M. C. Schieber, R. A. Shaw,
    A. Alenaizan, R. Galvelis, Z. L. Glick, S. Lehtola, and J. P. Misiewicz

    -----------------------------------------------------------------------


    Psi4 started on: Tuesday, 22 February 2022 06:22PM

    Process ID: 31405
    Host:       node37.bme.utexas.edu
    PSIDATADIR: /home/bdw2292/miniconda3/envs/amoebamdpoltype/share/psi4
    Memory:     500.0 MiB
    Threads:    1
    
  ==> Input File <==

--------------------------------------------------------------------------
molecule { 
0 1
 Cl                 -1.5388435    -0.1931364     0.6760242
 Cl                  1.2369893     0.3960644    -0.1472336
  C                  0.0155402    -0.8508783     0.1416569
  H                  0.3883584    -1.5173747     0.9193488
  H                 -0.1425503    -1.3959932    -0.7887828
--
0 1
 Cl                 -3.5785606     2.8289795    -2.2382798
 Cl                 -0.6491335     2.4941198    -2.0804941
  C                 -2.2253279     1.6923913    -2.1426370
  H                 -2.3409977     1.0992038    -1.2360197
  H                 -2.2502912     1.0562836    -3.0272853
}
memory 15GB
set_num_threads(4)
psi4_io.set_default_path("/scratch/bdw2292/Psi4-CH2Cl2")
set maxiter 500
set freeze_core True
set PROPERTIES_ORIGIN ["COM"]
e_dim= energy('mp2/aug-cc-pV[TQ]Z',bsse_type='cp')

psi4.print_out('CP Energy = %10.6f' % (e_dim))
clean()
--------------------------------------------------------------------------

  Memory set to  13.970 GiB by Python driver.
  Threads set to 4 by Python driver.


   ===> N-Body Interaction Abacus <===
        BSSE Treatment:                     cp
        Number of 1-body computations:     4
        Number of 2-body computations:     1

   ==> N-Body: Now computing 1-body complexes <==


       N-Body: Computing complex (1/4) with fragments (2,) in the basis of fragments (2,).


  //>>>>>>>>>>>>>>>>>>>>>>>>>>>>>>>>>>>//
  //   CBS Setup: mp2/aug-cc-pV[TQ]Z   //
  //<<<<<<<<<<<<<<<<<<<<<<<<<<<<<<<<<<<//

    Naive listing of computations required.
             hf / aug-cc-pvqz              for  HF TOTAL ENERGY
            mp2 / aug-cc-pvtz              for  MP2 TOTAL ENERGY
            mp2 / aug-cc-pvqz              for  MP2 TOTAL ENERGY
             hf / aug-cc-pvtz              for  HF TOTAL ENERGY
             hf / aug-cc-pvqz              for  HF TOTAL ENERGY

    Enlightened listing of computations required.
            mp2 / aug-cc-pvtz              for  MP2 TOTAL ENERGY
            mp2 / aug-cc-pvqz              for  MP2 TOTAL ENERGY

    Full listing of computations to be obtained (required and bonus).
             hf / aug-cc-pvtz              for  HF TOTAL ENERGY
            mp2 / aug-cc-pvtz              for  MP2 TOTAL ENERGY
             hf / aug-cc-pvqz              for  HF TOTAL ENERGY
            mp2 / aug-cc-pvqz              for  MP2 TOTAL ENERGY

  //>>>>>>>>>>>>>>>>>>>>>>>>>>>>>>>>>>>>//
  // CBS Computation: MP2 / AUG-CC-PVTZ //
  //<<<<<<<<<<<<<<<<<<<<<<<<<<<<<<<<<<<<//

    SCF Algorithm Type (re)set to DF.

*** tstart() called on node37.bme.utexas.edu
*** at Tue Feb 22 18:22:17 2022

   => Loading Basis Set <=

    Name: AUG-CC-PVTZ
    Role: ORBITAL
    Keyword: BASIS
    atoms 1-2 entry CL         line   984 file /home/bdw2292/miniconda3/envs/amoebamdpoltype/share/psi4/basis/aug-cc-pvtz.gbs 
    atoms 3   entry C          line   235 file /home/bdw2292/miniconda3/envs/amoebamdpoltype/share/psi4/basis/aug-cc-pvtz.gbs 
    atoms 4-5 entry H          line    36 file /home/bdw2292/miniconda3/envs/amoebamdpoltype/share/psi4/basis/aug-cc-pvtz.gbs 


         ---------------------------------------------------------
                                   SCF
               by Justin Turney, Rob Parrish, Andy Simmonett
                          and Daniel G. A. Smith
                              RHF Reference
                        4 Threads,  14305 MiB Core
         ---------------------------------------------------------

  ==> Geometry <==

    Molecular point group: c1
    Full point group: C1

    Geometry (in Angstrom), charge = 0, multiplicity = 1:

       Center              X                  Y                   Z               Mass       
    ------------   -----------------  -----------------  -----------------  -----------------
         CL          -2.451208137552     1.622516824403    -1.281151845551    34.968852682000
         CL           0.478218962448     1.287657124403    -1.123366145551    34.968852682000
         C           -1.097975437552     0.485928624403    -1.185509045551    12.000000000000
         H           -1.213645237552    -0.107258875597    -0.278891745551     1.007825032230
         H           -1.122938737552    -0.150179075597    -2.070157345551     1.007825032230

  Running in c1 symmetry.

  Rotational constants: A =      0.18089  B =      0.03967  C =      0.03346 [cm^-1]
  Rotational constants: A =   5422.86949  B =   1189.24349  C =   1002.95822 [MHz]
  Nuclear repulsion =  134.224883749703650

  Charge       = 0
  Multiplicity = 1
  Electrons    = 42
  Nalpha       = 21
  Nbeta        = 21

  ==> Algorithm <==

  SCF Algorithm Type is DF.
  DIIS enabled.
  MOM disabled.
  Fractional occupation disabled.
  Guess Type is SAD.
  Energy threshold   = 1.00e-08
  Density threshold  = 1.00e-08
  Integral threshold = 0.00e+00

  ==> Primary Basis <==

  Basis Set: AUG-CC-PVTZ
    Blend: AUG-CC-PVTZ
    Number of shells: 64
    Number of basis function: 192
    Number of Cartesian functions: 223
    Spherical Harmonics?: true
    Max angular momentum: 3

   => Loading Basis Set <=

    Name: (AUG-CC-PVTZ AUX)
    Role: JKFIT
    Keyword: DF_BASIS_SCF
    atoms 1-2 entry CL         line   816 file /home/bdw2292/miniconda3/envs/amoebamdpoltype/share/psi4/basis/aug-cc-pvtz-jkfit.gbs 
    atoms 3   entry C          line   162 file /home/bdw2292/miniconda3/envs/amoebamdpoltype/share/psi4/basis/aug-cc-pvtz-jkfit.gbs 
    atoms 4-5 entry H          line    70 file /home/bdw2292/miniconda3/envs/amoebamdpoltype/share/psi4/basis/aug-cc-pvtz-jkfit.gbs 

  ==> Pre-Iterations <==

   -------------------------------------------------------
    Irrep   Nso     Nmo     Nalpha   Nbeta   Ndocc  Nsocc
   -------------------------------------------------------
     A        192     192       0       0       0       0
   -------------------------------------------------------
    Total     192     192      21      21      21       0
   -------------------------------------------------------

  ==> Integral Setup <==

  DFHelper Memory: AOs need 0.144 GiB; user supplied 10.477 GiB. Using in-core AOs.

  ==> MemDFJK: Density-Fitted J/K Matrices <==

    J tasked:                   Yes
    K tasked:                   Yes
    wK tasked:                   No
    OpenMP threads:               4
    Memory [MiB]:             10728
    Algorithm:                 Core
    Schwarz Cutoff:           1E-12
    Mask sparsity (%):       0.0000
    Fitting Condition:        1E-10

   => Auxiliary Basis Set <=

  Basis Set: (AUG-CC-PVTZ AUX)
    Blend: AUG-CC-PVTZ-JKFIT
    Number of shells: 142
    Number of basis function: 488
    Number of Cartesian functions: 601
    Spherical Harmonics?: true
    Max angular momentum: 4

  Minimum eigenvalue in the overlap matrix is 6.8388790638E-05.
  Using Symmetric Orthogonalization.

  SCF Guess: Superposition of Atomic Densities via on-the-fly atomic UHF.

  ==> Iterations <==

                           Total Energy        Delta E     RMS |[F,P]|

   @DF-RHF iter SAD:  -957.79895696508947   -9.57799e+02   0.00000e+00 
   @DF-RHF iter   1:  -958.05052842855548   -2.51571e-01   1.05871e-03 DIIS
   @DF-RHF iter   2:  -958.07560228356522   -2.50739e-02   3.30470e-04 DIIS
   @DF-RHF iter   3:  -958.07825647082177   -2.65419e-03   1.38011e-04 DIIS
   @DF-RHF iter   4:  -958.07882459413224   -5.68123e-04   4.50455e-05 DIIS
   @DF-RHF iter   5:  -958.07889050328993   -6.59092e-05   9.85646e-06 DIIS
   @DF-RHF iter   6:  -958.07889609427127   -5.59098e-06   2.89464e-06 DIIS
   @DF-RHF iter   7:  -958.07889654597989   -4.51709e-07   7.92944e-07 DIIS
   @DF-RHF iter   8:  -958.07889657765554   -3.16757e-08   1.52693e-07 DIIS
   @DF-RHF iter   9:  -958.07889657872272   -1.06718e-09   3.19544e-08 DIIS
   @DF-RHF iter  10:  -958.07889657876513   -4.24052e-11   8.22604e-09 DIIS
  Energy and wave function converged.


  ==> Post-Iterations <==

    Orbital Energies [Eh]
    ---------------------

    Doubly Occupied:                                                      

       1A   -104.850720     2A   -104.850692     3A    -11.367252  
       4A    -10.575075     5A    -10.575056     6A     -8.041929  
       7A     -8.041912     8A     -8.039963     9A     -8.039945  
      10A     -8.039868    11A     -8.039850    12A     -1.192718  
      13A     -1.097642    14A     -0.895191    15A     -0.674241  
      16A     -0.616870    17A     -0.586140    18A     -0.474699  
      19A     -0.471017    20A     -0.449203    21A     -0.445847  

    Virtual:                                                              

      22A      0.029440    23A      0.042765    24A      0.064275  
      25A      0.066912    26A      0.113152    27A      0.114136  
      28A      0.120838    29A      0.132623    30A      0.132910  
      31A      0.133426    32A      0.145194    33A      0.161313  
      34A      0.187899    35A      0.205688    36A      0.231133  
      37A      0.234745    38A      0.266944    39A      0.269750  
      40A      0.273062    41A      0.322267    42A      0.324379  
      43A      0.327737    44A      0.353547    45A      0.360690  
      46A      0.373866    47A      0.386681    48A      0.411976  
      49A      0.422187    50A      0.434614    51A      0.434838  
      52A      0.455796    53A      0.456592    54A      0.464549  
      55A      0.491769    56A      0.502903    57A      0.516027  
      58A      0.519046    59A      0.553688    60A      0.554444  
      61A      0.695063    62A      0.697810    63A      0.698860  
      64A      0.722945    65A      0.750133    66A      0.766607  
      67A      0.778815    68A      0.823954    69A      0.837727  
      70A      0.841928    71A      0.848894    72A      0.872000  
      73A      0.893562    74A      0.897274    75A      0.898008  
      76A      0.914063    77A      0.937540    78A      0.947858  
      79A      0.954485    80A      0.970916    81A      1.005396  
      82A      1.022890    83A      1.041261    84A      1.043137  
      85A      1.067992    86A      1.086352    87A      1.088996  
      88A      1.098357    89A      1.115102    90A      1.117399  
      91A      1.131527    92A      1.144537    93A      1.200764  
      94A      1.226878    95A      1.253207    96A      1.260504  
      97A      1.298187    98A      1.355780    99A      1.366153  
     100A      1.401848   101A      1.458208   102A      1.495335  
     103A      1.508705   104A      1.542949   105A      1.551587  
     106A      1.567018   107A      1.616098   108A      1.685186  
     109A      1.716748   110A      1.724618   111A      1.725613  
     112A      1.734355   113A      1.752720   114A      1.760362  
     115A      1.822712   116A      1.840902   117A      1.910765  
     118A      1.924833   119A      1.932517   120A      1.937500  
     121A      1.943277   122A      2.024726   123A      2.099236  
     124A      2.138279   125A      2.206834   126A      2.450167  
     127A      2.579493   128A      2.592619   129A      2.596640  
     130A      2.634162   131A      2.647900   132A      2.654880  
     133A      2.665898   134A      2.701561   135A      2.710198  
     136A      2.732647   137A      2.884420   138A      2.931868  
     139A      2.936723   140A      2.972593   141A      3.029139  
     142A      3.043106   143A      3.052758   144A      3.058244  
     145A      3.076047   146A      3.107088   147A      3.108288  
     148A      3.150960   149A      3.168075   150A      3.186032  
     151A      3.188571   152A      3.193497   153A      3.206170  
     154A      3.254314   155A      3.292114   156A      3.309554  
     157A      3.409930   158A      3.443856   159A      3.595086  
     160A      3.597323   161A      3.606553   162A      3.642089  
     163A      3.727066   164A      3.748898   165A      3.905919  
     166A      3.918121   167A      3.977890   168A      4.052770  
     169A      4.087168   170A      4.180603   171A      4.193237  
     172A      4.245795   173A      4.343066   174A      4.378987  
     175A      4.529744   176A      4.690450   177A      4.718969  
     178A      4.794254   179A      4.908175   180A      4.945085  
     181A      4.970168   182A      5.164640   183A      5.256659  
     184A      5.312705   185A      5.341840   186A      5.726959  
     187A      5.774405   188A      5.911769   189A      6.568609  
     190A      7.340062   191A      7.688332   192A     15.535851  

    Final Occupation by Irrep:
              A 
    DOCC [    21 ]

  @DF-RHF Final Energy:  -958.07889657876513

   => Energetics <=

    Nuclear Repulsion Energy =            134.2248837497036504
    One-Electron Energy =               -1589.8759032875143475
    Two-Electron Energy =                 497.5721229590456005
    Total Energy =                       -958.0788965787651250

Computation Completed


Properties will be evaluated at  -1.902565,   2.416077,  -2.266158 [a0]

Properties computed using the SCF density matrix

  Nuclear Dipole Moment: [e a0]
     X:    -0.3400      Y:    -2.9618      Z:     0.0519

  Electronic Dipole Moment: [e a0]
     X:     0.2579      Y:     2.2474      Z:    -0.0394

  Dipole Moment: [e a0]
     X:    -0.0820      Y:    -0.7143      Z:     0.0125     Total:     0.7191

  Dipole Moment: [D]
     X:    -0.2085      Y:    -1.8157      Z:     0.0318     Total:     1.8279


*** tstop() called on node37.bme.utexas.edu at Tue Feb 22 18:22:25 2022
Module time:
	user time   =      17.42 seconds =       0.29 minutes
	system time =       1.24 seconds =       0.02 minutes
	total time  =          8 seconds =       0.13 minutes
Total time:
	user time   =      17.42 seconds =       0.29 minutes
	system time =       1.24 seconds =       0.02 minutes
	total time  =          8 seconds =       0.13 minutes

*** tstart() called on node37.bme.utexas.edu
*** at Tue Feb 22 18:22:25 2022


  //>>>>>>>>>>>>>>>>>>>>>>>>>>>>>>>>>>>//
  //               DFMP2               //
  //<<<<<<<<<<<<<<<<<<<<<<<<<<<<<<<<<<<//

   => Loading Basis Set <=

    Name: (AUG-CC-PVTZ AUX)
    Role: RIFIT
    Keyword: DF_BASIS_MP2
    atoms 1-2 entry CL         line   742 file /home/bdw2292/miniconda3/envs/amoebamdpoltype/share/psi4/basis/aug-cc-pvtz-ri.gbs 
    atoms 3   entry C          line   148 file /home/bdw2292/miniconda3/envs/amoebamdpoltype/share/psi4/basis/aug-cc-pvtz-ri.gbs 
    atoms 4-5 entry H          line    30 file /home/bdw2292/miniconda3/envs/amoebamdpoltype/share/psi4/basis/aug-cc-pvtz-ri.gbs 

	 --------------------------------------------------------
	                          DF-MP2                         
	      2nd-Order Density-Fitted Moller-Plesset Theory     
	              RMP2 Wavefunction,   4 Threads             
	                                                         
	        Rob Parrish, Justin Turney, Andy Simmonett,      
	           Ed Hohenstein, and C. David Sherrill          
	 --------------------------------------------------------

   => Auxiliary Basis Set <=

  Basis Set: (AUG-CC-PVTZ AUX)
    Blend: AUG-CC-PVTZ-RI
    Number of shells: 130
    Number of basis function: 492
    Number of Cartesian functions: 628
    Spherical Harmonics?: true
    Max angular momentum: 4

	 --------------------------------------------------------
	                 NBF =   192, NAUX =   492
	 --------------------------------------------------------
	   CLASS    FOCC     OCC    AOCC    AVIR     VIR    FVIR
	   PAIRS      11      21      10     171     171       0
	 --------------------------------------------------------

	-----------------------------------------------------------
	 ==================> DF-MP2 Energies <==================== 
	-----------------------------------------------------------
	 Reference Energy          =    -958.0788965787651250 [Eh]
	 Singles Energy            =      -0.0000000000000000 [Eh]
	 Same-Spin Energy          =      -0.1372550634001810 [Eh]
	 Opposite-Spin Energy      =      -0.4286502501271625 [Eh]
	 Correlation Energy        =      -0.5659053135273435 [Eh]
	 Total Energy              =    -958.6448018922924348 [Eh]
	-----------------------------------------------------------
	 ================> DF-SCS-MP2 Energies <================== 
	-----------------------------------------------------------
	 SCS Same-Spin Scale       =       0.3333333333333333 [-]
	 SCS Opposite-Spin Scale   =       1.2000000000000000 [-]
	 SCS Same-Spin Energy      =      -0.0457516878000603 [Eh]
	 SCS Opposite-Spin Energy  =      -0.5143803001525949 [Eh]
	 SCS Correlation Energy    =      -0.5601319879526553 [Eh]
	 SCS Total Energy          =    -958.6390285667177977 [Eh]
	-----------------------------------------------------------


*** tstop() called on node37.bme.utexas.edu at Tue Feb 22 18:22:27 2022
Module time:
	user time   =       5.54 seconds =       0.09 minutes
	system time =       0.43 seconds =       0.01 minutes
	total time  =          2 seconds =       0.03 minutes
Total time:
	user time   =      22.97 seconds =       0.38 minutes
	system time =       1.67 seconds =       0.03 minutes
	total time  =         10 seconds =       0.17 minutes

  //>>>>>>>>>>>>>>>>>>>>>>>>>>>>>>>>>>>>//
  // CBS Computation: MP2 / AUG-CC-PVQZ //
  //<<<<<<<<<<<<<<<<<<<<<<<<<<<<<<<<<<<<//

    SCF Algorithm Type (re)set to DF.

*** tstart() called on node37.bme.utexas.edu
*** at Tue Feb 22 18:22:27 2022

   => Loading Basis Set <=

    Name: AUG-CC-PVQZ
    Role: ORBITAL
    Keyword: BASIS
    atoms 1-2 entry CL         line  1218 file /home/bdw2292/miniconda3/envs/amoebamdpoltype/share/psi4/basis/aug-cc-pvqz.gbs 
    atoms 3   entry C          line   299 file /home/bdw2292/miniconda3/envs/amoebamdpoltype/share/psi4/basis/aug-cc-pvqz.gbs 
    atoms 4-5 entry H          line    36 file /home/bdw2292/miniconda3/envs/amoebamdpoltype/share/psi4/basis/aug-cc-pvqz.gbs 


         ---------------------------------------------------------
                                   SCF
               by Justin Turney, Rob Parrish, Andy Simmonett
                          and Daniel G. A. Smith
                              RHF Reference
                        4 Threads,  14305 MiB Core
         ---------------------------------------------------------

  ==> Geometry <==

    Molecular point group: c1
    Full point group: C1

    Geometry (in Angstrom), charge = 0, multiplicity = 1:

       Center              X                  Y                   Z               Mass       
    ------------   -----------------  -----------------  -----------------  -----------------
         CL          -2.451208137552     1.622516824403    -1.281151845551    34.968852682000
         CL           0.478218962448     1.287657124403    -1.123366145551    34.968852682000
         C           -1.097975437552     0.485928624403    -1.185509045551    12.000000000000
         H           -1.213645237552    -0.107258875597    -0.278891745551     1.007825032230
         H           -1.122938737552    -0.150179075597    -2.070157345551     1.007825032230

  Running in c1 symmetry.

  Rotational constants: A =      0.18089  B =      0.03967  C =      0.03346 [cm^-1]
  Rotational constants: A =   5422.86949  B =   1189.24349  C =   1002.95822 [MHz]
  Nuclear repulsion =  134.224883749703650

  Charge       = 0
  Multiplicity = 1
  Electrons    = 42
  Nalpha       = 21
  Nbeta        = 21

  ==> Algorithm <==

  SCF Algorithm Type is DF.
  DIIS enabled.
  MOM disabled.
  Fractional occupation disabled.
  Guess Type is SAD.
  Energy threshold   = 1.00e-08
  Density threshold  = 1.00e-08
  Integral threshold = 0.00e+00

  ==> Primary Basis <==

  Basis Set: AUG-CC-PVQZ
    Blend: AUG-CC-PVQZ
    Number of shells: 92
    Number of basis function: 340
    Number of Cartesian functions: 433
    Spherical Harmonics?: true
    Max angular momentum: 4

   => Loading Basis Set <=

    Name: (AUG-CC-PVQZ AUX)
    Role: JKFIT
    Keyword: DF_BASIS_SCF
    atoms 1-2 entry CL         line   904 file /home/bdw2292/miniconda3/envs/amoebamdpoltype/share/psi4/basis/aug-cc-pvqz-jkfit.gbs 
    atoms 3   entry C          line   178 file /home/bdw2292/miniconda3/envs/amoebamdpoltype/share/psi4/basis/aug-cc-pvqz-jkfit.gbs 
    atoms 4-5 entry H          line    70 file /home/bdw2292/miniconda3/envs/amoebamdpoltype/share/psi4/basis/aug-cc-pvqz-jkfit.gbs 

  ==> Pre-Iterations <==

   -------------------------------------------------------
    Irrep   Nso     Nmo     Nalpha   Nbeta   Ndocc  Nsocc
   -------------------------------------------------------
     A        340     340       0       0       0       0
   -------------------------------------------------------
    Total     340     340      21      21      21       0
   -------------------------------------------------------

  ==> Integral Setup <==

  DFHelper Memory: AOs need 0.604 GiB; user supplied 10.477 GiB. Using in-core AOs.

  ==> MemDFJK: Density-Fitted J/K Matrices <==

    J tasked:                   Yes
    K tasked:                   Yes
    wK tasked:                   No
    OpenMP threads:               4
    Memory [MiB]:             10728
    Algorithm:                 Core
    Schwarz Cutoff:           1E-12
    Mask sparsity (%):       0.1713
    Fitting Condition:        1E-10

   => Auxiliary Basis Set <=

  Basis Set: (AUG-CC-PVQZ AUX)
    Blend: AUG-CC-PVQZ-JKFIT
    Number of shells: 162
    Number of basis function: 662
    Number of Cartesian functions: 894
    Spherical Harmonics?: true
    Max angular momentum: 5

  Minimum eigenvalue in the overlap matrix is 1.4671018390E-05.
  Using Symmetric Orthogonalization.

  SCF Guess: Superposition of Atomic Densities via on-the-fly atomic UHF.

  ==> Iterations <==

                           Total Energy        Delta E     RMS |[F,P]|

   @DF-RHF iter SAD:  -957.80646603934815   -9.57806e+02   0.00000e+00 
   @DF-RHF iter   1:  -958.05972938169975   -2.53263e-01   6.37368e-04 DIIS
   @DF-RHF iter   2:  -958.08523453288547   -2.55052e-02   1.96604e-04 DIIS
   @DF-RHF iter   3:  -958.08793908589894   -2.70455e-03   7.78758e-05 DIIS
   @DF-RHF iter   4:  -958.08851977287804   -5.80687e-04   2.79358e-05 DIIS
   @DF-RHF iter   5:  -958.08859607352042   -7.63006e-05   6.09645e-06 DIIS
   @DF-RHF iter   6:  -958.08860259830794   -6.52479e-06   1.75429e-06 DIIS
   @DF-RHF iter   7:  -958.08860311459762   -5.16290e-07   5.05321e-07 DIIS
   @DF-RHF iter   8:  -958.08860315288098   -3.82834e-08   9.86663e-08 DIIS
   @DF-RHF iter   9:  -958.08860315423374   -1.35276e-09   2.16628e-08 DIIS
   @DF-RHF iter  10:  -958.08860315429627   -6.25278e-11   5.55473e-09 DIIS
  Energy and wave function converged.


  ==> Post-Iterations <==

    Orbital Energies [Eh]
    ---------------------

    Doubly Occupied:                                                      

       1A   -104.848454     2A   -104.848426     3A    -11.365403  
       4A    -10.574010     5A    -10.573991     6A     -8.041081  
       7A     -8.041063     8A     -8.039276     9A     -8.039258  
      10A     -8.039185    11A     -8.039166    12A     -1.192006  
      13A     -1.097136    14A     -0.894849    15A     -0.673927  
      16A     -0.616778    17A     -0.586102    18A     -0.474547  
      19A     -0.470873    20A     -0.449069    21A     -0.445713  

    Virtual:                                                              

      22A      0.026462    23A      0.038546    24A      0.054432  
      25A      0.056133    26A      0.095959    27A      0.097672  
      28A      0.099539    29A      0.103234    30A      0.110454  
      31A      0.116413    32A      0.127414    33A      0.138783  
      34A      0.163048    35A      0.179716    36A      0.196781  
      37A      0.200272    38A      0.233080    39A      0.235694  
      40A      0.237118    41A      0.260750    42A      0.262066  
      43A      0.265855    44A      0.294320    45A      0.298185  
      46A      0.299239    47A      0.305766    48A      0.319706  
      49A      0.335221    50A      0.341739    51A      0.347170  
      52A      0.350576    53A      0.354403    54A      0.359168  
      55A      0.371739    56A      0.388318    57A      0.396652  
      58A      0.397265    59A      0.415820    60A      0.449636  
      61A      0.506918    62A      0.529943    63A      0.536498  
      64A      0.552556    65A      0.553198    66A      0.569136  
      67A      0.585061    68A      0.591510    69A      0.597770  
      70A      0.603692    71A      0.615741    72A      0.647571  
      73A      0.649915    74A      0.674251    75A      0.674795  
      76A      0.678681    77A      0.716911    78A      0.725137  
      79A      0.728753    80A      0.730619    81A      0.764748  
      82A      0.776812    83A      0.777864    84A      0.779001  
      85A      0.794480    86A      0.828527    87A      0.829032  
      88A      0.831608    89A      0.844245    90A      0.861934  
      91A      0.872783    92A      0.918782    93A      0.920508  
      94A      0.935298    95A      0.939200    96A      0.976087  
      97A      0.992618    98A      1.026463    99A      1.033141  
     100A      1.057419   101A      1.066320   102A      1.093434  
     103A      1.114401   104A      1.126931   105A      1.131599  
     106A      1.135296   107A      1.159935   108A      1.170397  
     109A      1.184700   110A      1.208072   111A      1.212181  
     112A      1.230614   113A      1.234702   114A      1.257226  
     115A      1.267501   116A      1.278710   117A      1.306815  
     118A      1.313183   119A      1.333731   120A      1.410129  
     121A      1.416212   122A      1.482191   123A      1.484844  
     124A      1.530356   125A      1.606555   126A      1.629226  
     127A      1.678175   128A      1.707662   129A      1.718736  
     130A      1.741862   131A      1.741973   132A      1.766896  
     133A      1.770380   134A      1.775581   135A      1.808669  
     136A      1.813863   137A      1.822269   138A      1.854914  
     139A      1.862977   140A      1.865725   141A      1.902303  
     142A      1.902567   143A      1.907175   144A      1.926456  
     145A      1.956586   146A      1.963025   147A      1.979489  
     148A      1.991705   149A      1.994563   150A      2.011087  
     151A      2.019240   152A      2.040428   153A      2.059723  
     154A      2.065006   155A      2.070910   156A      2.084649  
     157A      2.102356   158A      2.110941   159A      2.124398  
     160A      2.141715   161A      2.150672   162A      2.151209  
     163A      2.161001   164A      2.197512   165A      2.199259  
     166A      2.209375   167A      2.242283   168A      2.247805  
     169A      2.250132   170A      2.260085   171A      2.270721  
     172A      2.299359   173A      2.301182   174A      2.340322  
     175A      2.344910   176A      2.356422   177A      2.413693  
     178A      2.418390   179A      2.423044   180A      2.437301  
     181A      2.451486   182A      2.465337   183A      2.472505  
     184A      2.495451   185A      2.498301   186A      2.552799  
     187A      2.601158   188A      2.613381   189A      2.630115  
     190A      2.631233   191A      2.742831   192A      2.752187  
     193A      2.806865   194A      2.814840   195A      2.891189  
     196A      2.892544   197A      2.893959   198A      2.898296  
     199A      2.986062   200A      3.014698   201A      3.031534  
     202A      3.086817   203A      3.112085   204A      3.151351  
     205A      3.193245   206A      3.207717   207A      3.302440  
     208A      3.316289   209A      3.352764   210A      3.355778  
     211A      3.452465   212A      3.475693   213A      3.517878  
     214A      3.563948   215A      3.612926   216A      3.706477  
     217A      3.708321   218A      3.743435   219A      3.744844  
     220A      3.811242   221A      3.901125   222A      3.920378  
     223A      3.945563   224A      4.015914   225A      4.075893  
     226A      4.144239   227A      4.193231   228A      4.200231  
     229A      4.344946   230A      4.370612   231A      4.387872  
     232A      4.463510   233A      4.481624   234A      4.505685  
     235A      4.541247   236A      4.542505   237A      4.568815  
     238A      4.679060   239A      4.681921   240A      4.682030  
     241A      4.686326   242A      4.721490   243A      4.724513  
     244A      4.725217   245A      4.741375   246A      4.752252  
     247A      4.763514   248A      4.764495   249A      4.794837  
     250A      4.800692   251A      4.805488   252A      4.839934  
     253A      4.846364   254A      4.856257   255A      4.894670  
     256A      4.902222   257A      4.919601   258A      4.932106  
     259A      4.942933   260A      4.953628   261A      4.983510  
     262A      5.041937   263A      5.046758   264A      5.058206  
     265A      5.081092   266A      5.170065   267A      5.194731  
     268A      5.209121   269A      5.245186   270A      5.290883  
     271A      5.385963   272A      5.404365   273A      5.405070  
     274A      5.505312   275A      5.646987   276A      6.306249  
     277A      6.346438   278A      6.353120   279A      6.372224  
     280A      6.388782   281A      6.532039   282A      6.567554  
     283A      6.609698   284A      6.655870   285A      6.731526  
     286A      6.769103   287A      6.811512   288A      6.817833  
     289A      6.830717   290A      6.869402   291A      6.942482  
     292A      6.944228   293A      6.984387   294A      7.000646  
     295A      7.026220   296A      7.144409   297A      7.170988  
     298A      7.220438   299A      7.350714   300A      7.430149  
     301A      7.449034   302A      7.569242   303A      7.586471  
     304A      7.612342   305A      7.666162   306A      7.712579  
     307A      7.757408   308A      7.808654   309A      8.011567  
     310A      8.090883   311A      8.119508   312A      8.316202  
     313A      8.500248   314A      8.537444   315A      8.585656  
     316A      8.719565   317A      8.807471   318A      8.868241  
     319A      8.935751   320A      9.126111   321A      9.212688  
     322A      9.426993   323A      9.464049   324A      9.498195  
     325A      9.505858   326A      9.540827   327A      9.772203  
     328A      9.931525   329A      9.951146   330A     10.311117  
     331A     10.391331   332A     10.583798   333A     10.758191  
     334A     10.773195   335A     11.061729   336A     13.005281  
     337A     13.088775   338A     25.965349   339A     26.588669  
     340A     27.887037  

    Final Occupation by Irrep:
              A 
    DOCC [    21 ]

  @DF-RHF Final Energy:  -958.08860315429627

   => Energetics <=

    Nuclear Repulsion Energy =            134.2248837497036504
    One-Electron Energy =               -1589.9263473063842866
    Two-Electron Energy =                 497.6128604023843991
    Total Energy =                       -958.0886031542962655

Computation Completed


Properties will be evaluated at  -1.902565,   2.416077,  -2.266158 [a0]

Properties computed using the SCF density matrix

  Nuclear Dipole Moment: [e a0]
     X:    -0.3400      Y:    -2.9618      Z:     0.0519

  Electronic Dipole Moment: [e a0]
     X:     0.2584      Y:     2.2517      Z:    -0.0394

  Dipole Moment: [e a0]
     X:    -0.0815      Y:    -0.7101      Z:     0.0124     Total:     0.7149

  Dipole Moment: [D]
     X:    -0.2072      Y:    -1.8049      Z:     0.0316     Total:     1.8170


*** tstop() called on node37.bme.utexas.edu at Tue Feb 22 18:22:44 2022
Module time:
	user time   =      42.61 seconds =       0.71 minutes
	system time =       3.17 seconds =       0.05 minutes
	total time  =         17 seconds =       0.28 minutes
Total time:
	user time   =      65.63 seconds =       1.09 minutes
	system time =       4.84 seconds =       0.08 minutes
	total time  =         27 seconds =       0.45 minutes

*** tstart() called on node37.bme.utexas.edu
*** at Tue Feb 22 18:22:44 2022


  //>>>>>>>>>>>>>>>>>>>>>>>>>>>>>>>>>>>//
  //               DFMP2               //
  //<<<<<<<<<<<<<<<<<<<<<<<<<<<<<<<<<<<//

   => Loading Basis Set <=

    Name: (AUG-CC-PVQZ AUX)
    Role: RIFIT
    Keyword: DF_BASIS_MP2
    atoms 1-2 entry CL         line   914 file /home/bdw2292/miniconda3/envs/amoebamdpoltype/share/psi4/basis/aug-cc-pvqz-ri.gbs 
    atoms 3   entry C          line   184 file /home/bdw2292/miniconda3/envs/amoebamdpoltype/share/psi4/basis/aug-cc-pvqz-ri.gbs 
    atoms 4-5 entry H          line    30 file /home/bdw2292/miniconda3/envs/amoebamdpoltype/share/psi4/basis/aug-cc-pvqz-ri.gbs 

	 --------------------------------------------------------
	                          DF-MP2                         
	      2nd-Order Density-Fitted Moller-Plesset Theory     
	              RMP2 Wavefunction,   4 Threads             
	                                                         
	        Rob Parrish, Justin Turney, Andy Simmonett,      
	           Ed Hohenstein, and C. David Sherrill          
	 --------------------------------------------------------

   => Auxiliary Basis Set <=

  Basis Set: (AUG-CC-PVQZ AUX)
    Blend: AUG-CC-PVQZ-RI
    Number of shells: 164
    Number of basis function: 716
    Number of Cartesian functions: 983
    Spherical Harmonics?: true
    Max angular momentum: 5

	 --------------------------------------------------------
	                 NBF =   340, NAUX =   716
	 --------------------------------------------------------
	   CLASS    FOCC     OCC    AOCC    AVIR     VIR    FVIR
	   PAIRS      11      21      10     319     319       0
	 --------------------------------------------------------

	-----------------------------------------------------------
	 ==================> DF-MP2 Energies <==================== 
	-----------------------------------------------------------
	 Reference Energy          =    -958.0886031542962655 [Eh]
	 Singles Energy            =      -0.0000000000000000 [Eh]
	 Same-Spin Energy          =      -0.1416202432504196 [Eh]
	 Opposite-Spin Energy      =      -0.4672537355418623 [Eh]
	 Correlation Energy        =      -0.6088739787922819 [Eh]
	 Total Energy              =    -958.6974771330885687 [Eh]
	-----------------------------------------------------------
	 ================> DF-SCS-MP2 Energies <================== 
	-----------------------------------------------------------
	 SCS Same-Spin Scale       =       0.3333333333333333 [-]
	 SCS Opposite-Spin Scale   =       1.2000000000000000 [-]
	 SCS Same-Spin Energy      =      -0.0472067477501399 [Eh]
	 SCS Opposite-Spin Energy  =      -0.5607044826502348 [Eh]
	 SCS Correlation Energy    =      -0.6079112304003746 [Eh]
	 SCS Total Energy          =    -958.6965143846966839 [Eh]
	-----------------------------------------------------------


*** tstop() called on node37.bme.utexas.edu at Tue Feb 22 18:22:50 2022
Module time:
	user time   =      15.66 seconds =       0.26 minutes
	system time =       1.19 seconds =       0.02 minutes
	total time  =          6 seconds =       0.10 minutes
Total time:
	user time   =      81.29 seconds =       1.35 minutes
	system time =       6.03 seconds =       0.10 minutes
	total time  =         33 seconds =       0.55 minutes

  //>>>>>>>>>>>>>>>>>>>>>>>>>>>>>>>>>>>//
  //  CBS Results: mp2/aug-cc-pV[TQ]Z  //
  //<<<<<<<<<<<<<<<<<<<<<<<<<<<<<<<<<<<//


   ==> HF <==

   HI-zeta (4) Energy:               -958.088603154296


   ==> Helgaker 2-point correlated extrapolation for method: MP2 <==

   LO-zeta (3) Energy:               -958.644801892292
   HI-zeta (4) Energy:               -958.697477133089
   Alpha (exponent) Value:             3.000000000000
   Extrapolated Energy:              -958.735915822318

   @Extrapolated MP2/(T,Q):          -958.735915822318



   ==> Helgaker 2-point correlated extrapolation for method: HF <==

   LO-zeta (3) Energy:               -958.078896578765
   HI-zeta (4) Energy:               -958.088603154296
   Alpha (exponent) Value:             3.000000000000
   Extrapolated Energy:              -958.095686331035

   @Extrapolated HF/(T,Q):           -958.095686331035


   ==> Components <==

  ---------------------------------------------------------------------------------------------------------
                          Method / Basis                      Rqd      Energy [Eh]   Variable
  ---------------------------------------------------------------------------------------------------------
                              hf / aug-cc-pvtz                  *    -958.07889658   HF TOTAL ENERGY
                             mp2 / aug-cc-pvtz                  *    -958.64480189   MP2 TOTAL ENERGY
                              hf / aug-cc-pvqz                  *    -958.08860315   HF TOTAL ENERGY
                             mp2 / aug-cc-pvqz                  *    -958.69747713   MP2 TOTAL ENERGY
  ---------------------------------------------------------------------------------------------------------

   ==> Stages <==

  ---------------------------------------------------------------------------------------------------------
      Stage               Method / Basis                       Wt      Energy [Eh]   Scheme
  ---------------------------------------------------------------------------------------------------------
        scf                   hf / aug-cc-pvqz                  1    -958.08860315   xtpl_highest_1
       corl                  mp2 / aug-cc-pv[tq]z               1    -958.73591582   corl_xtpl_helgaker_2
       corl                   hf / aug-cc-pv[tq]z              -1    -958.09568633   corl_xtpl_helgaker_2
  ---------------------------------------------------------------------------------------------------------

   ==> CBS <==

  ---------------------------------------------------------------------------------------------------------
      Stage               Method / Basis                               Energy [Eh]   Scheme
  ---------------------------------------------------------------------------------------------------------
        scf                   hf / aug-cc-pvqz                       -958.08860315   xtpl_highest_1
       corl                  mp2 / aug-cc-pv[tq]z                      -0.64022949   corl_xtpl_helgaker_2
      total                  CBS                                     -958.72883265   
  ---------------------------------------------------------------------------------------------------------
   => Loading Basis Set <=

    Name: DEF2-SVP
    Role: ORBITAL
    Keyword: BASIS
    atoms 1-2 entry CL         line   356 file /home/bdw2292/miniconda3/envs/amoebamdpoltype/share/psi4/basis/def2-svp.gbs 
    atoms 3   entry C          line    90 file /home/bdw2292/miniconda3/envs/amoebamdpoltype/share/psi4/basis/def2-svp.gbs 
    atoms 4-5 entry H          line    15 file /home/bdw2292/miniconda3/envs/amoebamdpoltype/share/psi4/basis/def2-svp.gbs 


       N-Body: Complex Energy (fragments = (2,), basis = (2,):  -958.72883264557925)

       N-Body: Computing complex (2/4) with fragments (2,) in the basis of fragments (1, 2).


  //>>>>>>>>>>>>>>>>>>>>>>>>>>>>>>>>>>>//
  //   CBS Setup: mp2/aug-cc-pV[TQ]Z   //
  //<<<<<<<<<<<<<<<<<<<<<<<<<<<<<<<<<<<//

    Naive listing of computations required.
             hf / aug-cc-pvqz              for  HF TOTAL ENERGY
            mp2 / aug-cc-pvtz              for  MP2 TOTAL ENERGY
            mp2 / aug-cc-pvqz              for  MP2 TOTAL ENERGY
             hf / aug-cc-pvtz              for  HF TOTAL ENERGY
             hf / aug-cc-pvqz              for  HF TOTAL ENERGY

    Enlightened listing of computations required.
            mp2 / aug-cc-pvtz              for  MP2 TOTAL ENERGY
            mp2 / aug-cc-pvqz              for  MP2 TOTAL ENERGY

    Full listing of computations to be obtained (required and bonus).
             hf / aug-cc-pvtz              for  HF TOTAL ENERGY
            mp2 / aug-cc-pvtz              for  MP2 TOTAL ENERGY
             hf / aug-cc-pvqz              for  HF TOTAL ENERGY
            mp2 / aug-cc-pvqz              for  MP2 TOTAL ENERGY

  //>>>>>>>>>>>>>>>>>>>>>>>>>>>>>>>>>>>>//
  // CBS Computation: MP2 / AUG-CC-PVTZ //
  //<<<<<<<<<<<<<<<<<<<<<<<<<<<<<<<<<<<<//

    SCF Algorithm Type (re)set to DF.

*** tstart() called on node37.bme.utexas.edu
*** at Tue Feb 22 18:22:53 2022

   => Loading Basis Set <=

    Name: AUG-CC-PVTZ
    Role: ORBITAL
    Keyword: BASIS
    atoms 1-2, 6-7  entry CL         line   984 file /home/bdw2292/miniconda3/envs/amoebamdpoltype/share/psi4/basis/aug-cc-pvtz.gbs 
    atoms 3, 8      entry C          line   235 file /home/bdw2292/miniconda3/envs/amoebamdpoltype/share/psi4/basis/aug-cc-pvtz.gbs 
    atoms 4-5, 9-10 entry H          line    36 file /home/bdw2292/miniconda3/envs/amoebamdpoltype/share/psi4/basis/aug-cc-pvtz.gbs 


         ---------------------------------------------------------
                                   SCF
               by Justin Turney, Rob Parrish, Andy Simmonett
                          and Daniel G. A. Smith
                              RHF Reference
                        4 Threads,  14305 MiB Core
         ---------------------------------------------------------

  ==> Geometry <==

    Molecular point group: c1
    Full point group: C1

    Geometry (in Angstrom), charge = 0, multiplicity = 1:

       Center              X                  Y                   Z               Mass       
    ------------   -----------------  -----------------  -----------------  -----------------
      Gh(CL)         -0.411491037552    -1.399599075597     1.633152154449    34.968852682000
      Gh(CL)          2.364341762448    -0.810398275597     0.809894354449    34.968852682000
      Gh(C)           1.142892662448    -2.057340975597     1.098784854449    12.000000000000
      Gh(H)           1.515710862448    -2.723837375597     1.876476754449     1.007825032230
      Gh(H)           0.984802162448    -2.602455875597     0.168345154449     1.007825032230
         CL          -2.451208137552     1.622516824403    -1.281151845551    34.968852682000
         CL           0.478218962448     1.287657124403    -1.123366145551    34.968852682000
         C           -1.097975437552     0.485928624403    -1.185509045551    12.000000000000
         H           -1.213645237552    -0.107258875597    -0.278891745551     1.007825032230
         H           -1.122938737552    -0.150179075597    -2.070157345551     1.007825032230

  Running in c1 symmetry.

  Rotational constants: A =      0.06793  B =      0.02133  C =      0.01676 [cm^-1]
  Rotational constants: A =   2036.47110  B =    639.58636  C =    502.31010 [MHz]
  Nuclear repulsion =  134.224883749703650

  Charge       = 0
  Multiplicity = 1
  Electrons    = 42
  Nalpha       = 21
  Nbeta        = 21

  ==> Algorithm <==

  SCF Algorithm Type is DF.
  DIIS enabled.
  MOM disabled.
  Fractional occupation disabled.
  Guess Type is SAD.
  Energy threshold   = 1.00e-08
  Density threshold  = 1.00e-08
  Integral threshold = 0.00e+00

  ==> Primary Basis <==

  Basis Set: AUG-CC-PVTZ
    Blend: AUG-CC-PVTZ
    Number of shells: 128
    Number of basis function: 384
    Number of Cartesian functions: 446
    Spherical Harmonics?: true
    Max angular momentum: 3

   => Loading Basis Set <=

    Name: (AUG-CC-PVTZ AUX)
    Role: JKFIT
    Keyword: DF_BASIS_SCF
    atoms 1-2, 6-7  entry CL         line   816 file /home/bdw2292/miniconda3/envs/amoebamdpoltype/share/psi4/basis/aug-cc-pvtz-jkfit.gbs 
    atoms 3, 8      entry C          line   162 file /home/bdw2292/miniconda3/envs/amoebamdpoltype/share/psi4/basis/aug-cc-pvtz-jkfit.gbs 
    atoms 4-5, 9-10 entry H          line    70 file /home/bdw2292/miniconda3/envs/amoebamdpoltype/share/psi4/basis/aug-cc-pvtz-jkfit.gbs 

  ==> Pre-Iterations <==

   -------------------------------------------------------
    Irrep   Nso     Nmo     Nalpha   Nbeta   Ndocc  Nsocc
   -------------------------------------------------------
     A        384     384       0       0       0       0
   -------------------------------------------------------
    Total     384     384      21      21      21       0
   -------------------------------------------------------

  ==> Integral Setup <==

  DFHelper Memory: AOs need 1.074 GiB; user supplied 10.477 GiB. Using in-core AOs.

  ==> MemDFJK: Density-Fitted J/K Matrices <==

    J tasked:                   Yes
    K tasked:                   Yes
    wK tasked:                   No
    OpenMP threads:               4
    Memory [MiB]:             10728
    Algorithm:                 Core
    Schwarz Cutoff:           1E-12
    Mask sparsity (%):       3.7164
    Fitting Condition:        1E-10

   => Auxiliary Basis Set <=

  Basis Set: (AUG-CC-PVTZ AUX)
    Blend: AUG-CC-PVTZ-JKFIT
    Number of shells: 284
    Number of basis function: 976
    Number of Cartesian functions: 1202
    Spherical Harmonics?: true
    Max angular momentum: 4

  Minimum eigenvalue in the overlap matrix is 4.2966607122E-05.
  Using Symmetric Orthogonalization.

  SCF Guess: Superposition of Atomic Densities via on-the-fly atomic UHF.

  ==> Iterations <==

                           Total Energy        Delta E     RMS |[F,P]|

   @DF-RHF iter SAD:  -957.79895778180673   -9.57799e+02   0.00000e+00 
   @DF-RHF iter   1:  -958.05059861722987   -2.51641e-01   5.29806e-04 DIIS
   @DF-RHF iter   2:  -958.07567922851035   -2.50806e-02   1.65335e-04 DIIS
   @DF-RHF iter   3:  -958.07833420151292   -2.65497e-03   6.90014e-05 DIIS
   @DF-RHF iter   4:  -958.07890243916245   -5.68238e-04   2.25490e-05 DIIS
   @DF-RHF iter   5:  -958.07896845338496   -6.60142e-05   4.93272e-06 DIIS
   @DF-RHF iter   6:  -958.07897405368942   -5.60030e-06   1.44845e-06 DIIS
   @DF-RHF iter   7:  -958.07897450616179   -4.52472e-07   3.97009e-07 DIIS
   @DF-RHF iter   8:  -958.07897453791452   -3.17527e-08   7.64775e-08 DIIS
   @DF-RHF iter   9:  -958.07897453898283   -1.06832e-09   1.60072e-08 DIIS
   @DF-RHF iter  10:  -958.07897453902899   -4.61569e-11   4.12593e-09 DIIS
  Energy and wave function converged.


  ==> Post-Iterations <==

    Orbital Energies [Eh]
    ---------------------

    Doubly Occupied:                                                      

       1A   -104.850769     2A   -104.850747     3A    -11.367217  
       4A    -10.575070     5A    -10.575034     6A     -8.041918  
       7A     -8.041887     8A     -8.039960     9A     -8.039922  
      10A     -8.039865    11A     -8.039828    12A     -1.192683  
      13A     -1.097609    14A     -0.895160    15A     -0.674210  
      16A     -0.616846    17A     -0.586114    18A     -0.474674  
      19A     -0.470998    20A     -0.449185    21A     -0.445822  

    Virtual:                                                              

      22A      0.020829    23A      0.035512    24A      0.044449  
      25A      0.051667    26A      0.058217    27A      0.070890  
      28A      0.080118    29A      0.094445    30A      0.097840  
      31A      0.100338    32A      0.108744    33A      0.121159  
      34A      0.125529    35A      0.130703    36A      0.135267  
      37A      0.139026    38A      0.142684    39A      0.146653  
      40A      0.154001    41A      0.163463    42A      0.167879  
      43A      0.172762    44A      0.174881    45A      0.186270  
      46A      0.194987    47A      0.203501    48A      0.206917  
      49A      0.218014    50A      0.255209    51A      0.258969  
      52A      0.266239    53A      0.272722    54A      0.286281  
      55A      0.288091    56A      0.301169    57A      0.309411  
      58A      0.317432    59A      0.322400    60A      0.327108  
      61A      0.338009    62A      0.339744    63A      0.349829  
      64A      0.361070    65A      0.365618    66A      0.372236  
      67A      0.385879    68A      0.390294    69A      0.396418  
      70A      0.402781    71A      0.410186    72A      0.420844  
      73A      0.431080    74A      0.435831    75A      0.437884  
      76A      0.447078    77A      0.452601    78A      0.459490  
      79A      0.465389    80A      0.475608    81A      0.496220  
      82A      0.501105    83A      0.503882    84A      0.515948  
      85A      0.522341    86A      0.527686    87A      0.539686  
      88A      0.542548    89A      0.553024    90A      0.567764  
      91A      0.573588    92A      0.595805    93A      0.601238  
      94A      0.614729    95A      0.621653    96A      0.626663  
      97A      0.638183    98A      0.649064    99A      0.667997  
     100A      0.678078   101A      0.691486   102A      0.700218  
     103A      0.711980   104A      0.721553   105A      0.733150  
     106A      0.737086   107A      0.758960   108A      0.769832  
     109A      0.774097   110A      0.783349   111A      0.788473  
     112A      0.798554   113A      0.809855   114A      0.823451  
     115A      0.842174   116A      0.859015   117A      0.872141  
     118A      0.875371   119A      0.889183   120A      0.902716  
     121A      0.905611   122A      0.920542   123A      0.928037  
     124A      0.937100   125A      0.956228   126A      0.983070  
     127A      0.999109   128A      1.004647   129A      1.014180  
     130A      1.029667   131A      1.039138   132A      1.045786  
     133A      1.054576   134A      1.062489   135A      1.071347  
     136A      1.074349   137A      1.085580   138A      1.097306  
     139A      1.103805   140A      1.112160   141A      1.115875  
     142A      1.123865   143A      1.132606   144A      1.149403  
     145A      1.152299   146A      1.159205   147A      1.171167  
     148A      1.178447   149A      1.189565   150A      1.195859  
     151A      1.214193   152A      1.222342   153A      1.240190  
     154A      1.249485   155A      1.256129   156A      1.265022  
     157A      1.282936   158A      1.299217   159A      1.307494  
     160A      1.318466   161A      1.347212   162A      1.364933  
     163A      1.369523   164A      1.378385   165A      1.386935  
     166A      1.400316   167A      1.410643   168A      1.418045  
     169A      1.424131   170A      1.429473   171A      1.435634  
     172A      1.456694   173A      1.467892   174A      1.485715  
     175A      1.501926   176A      1.504584   177A      1.509164  
     178A      1.522044   179A      1.533375   180A      1.541444  
     181A      1.545991   182A      1.562274   183A      1.576358  
     184A      1.581917   185A      1.602727   186A      1.616702  
     187A      1.627796   188A      1.634471   189A      1.650382  
     190A      1.660902   191A      1.680780   192A      1.682419  
     193A      1.696069   194A      1.712798   195A      1.719595  
     196A      1.736184   197A      1.755770   198A      1.766359  
     199A      1.778470   200A      1.784148   201A      1.797215  
     202A      1.817696   203A      1.838377   204A      1.853877  
     205A      1.871597   206A      1.883262   207A      1.889334  
     208A      1.919008   209A      1.923418   210A      1.934812  
     211A      1.970355   212A      1.987801   213A      1.993542  
     214A      2.007481   215A      2.023602   216A      2.037519  
     217A      2.057473   218A      2.067504   219A      2.087710  
     220A      2.102635   221A      2.109558   222A      2.119085  
     223A      2.135669   224A      2.160556   225A      2.210555  
     226A      2.221901   227A      2.229173   228A      2.244624  
     229A      2.265092   230A      2.294259   231A      2.304713  
     232A      2.396478   233A      2.458880   234A      2.497211  
     235A      2.530921   236A      2.549906   237A      2.585072  
     238A      2.609935   239A      2.617068   240A      2.625132  
     241A      2.642229   242A      2.674931   243A      2.689765  
     244A      2.711778   245A      2.719328   246A      2.725271  
     247A      2.747566   248A      2.762364   249A      2.775443  
     250A      2.816907   251A      2.924903   252A      2.975455  
     253A      2.997489   254A      3.033145   255A      3.044755  
     256A      3.076489   257A      3.078921   258A      3.086576  
     259A      3.123408   260A      3.134275   261A      3.146586  
     262A      3.169366   263A      3.187441   264A      3.205505  
     265A      3.216045   266A      3.235033   267A      3.272602  
     268A      3.302320   269A      3.318278   270A      3.339467  
     271A      3.369379   272A      3.435436   273A      3.475389  
     274A      3.622584   275A      3.644172   276A      3.660219  
     277A      3.696390   278A      3.773769   279A      3.798399  
     280A      3.845313   281A      3.865936   282A      3.935345  
     283A      3.941190   284A      3.947540   285A      3.970474  
     286A      3.973382   287A      3.988828   288A      4.003410  
     289A      4.022928   290A      4.039279   291A      4.045850  
     292A      4.063292   293A      4.085558   294A      4.091257  
     295A      4.110743   296A      4.135791   297A      4.146376  
     298A      4.180874   299A      4.187118   300A      4.198269  
     301A      4.202063   302A      4.213201   303A      4.227824  
     304A      4.256349   305A      4.279782   306A      4.298993  
     307A      4.332904   308A      4.351719   309A      4.363220  
     310A      4.388574   311A      4.391144   312A      4.421049  
     313A      4.481161   314A      4.509606   315A      4.544500  
     316A      4.560013   317A      4.572874   318A      4.577471  
     319A      4.666489   320A      4.689852   321A      4.710981  
     322A      4.740768   323A      4.753564   324A      4.758404  
     325A      4.777700   326A      4.782822   327A      4.810446  
     328A      4.824681   329A      4.837823   330A      4.864716  
     331A      4.871062   332A      4.883806   333A      4.910858  
     334A      4.935546   335A      4.979945   336A      4.995703  
     337A      5.018026   338A      5.035637   339A      5.113423  
     340A      5.154783   341A      5.180851   342A      5.205869  
     343A      5.218476   344A      5.261791   345A      5.300963  
     346A      5.334105   347A      5.358625   348A      5.376217  
     349A      5.394509   350A      5.417514   351A      5.445082  
     352A      5.513719   353A      5.650140   354A      5.820205  
     355A      5.874487   356A      5.897105   357A      5.932452  
     358A      5.970227   359A      6.068079   360A      6.096923  
     361A      6.280952   362A      6.300807   363A      6.480309  
     364A      6.609765   365A      7.030074   366A      7.486372  
     367A      7.740923   368A      7.838908   369A      7.872769  
     370A      7.990673   371A      8.192807   372A      9.958799  
     373A     16.207445   374A     16.363702   375A     16.703133  
     376A     28.087419   377A     28.113111   378A     28.239645  
     379A     28.364580   380A     28.875029   381A     29.194981  
     382A     49.017233   383A    161.019228   384A    161.058596  

    Final Occupation by Irrep:
              A 
    DOCC [    21 ]

  @DF-RHF Final Energy:  -958.07897453902899

   => Energetics <=

    Nuclear Repulsion Energy =            134.2248837497036504
    One-Electron Energy =               -1589.8766753292168232
    Two-Electron Energy =                 497.5728170404842103
    Total Energy =                       -958.0789745390289909

Computation Completed


Properties will be evaluated at   0.000000,  -0.000000,  -0.000000 [a0]

Properties computed using the SCF density matrix

  Nuclear Dipole Moment: [e a0]
     X:   -80.2477      Y:    98.5135      Z:   -95.1268

  Electronic Dipole Moment: [e a0]
     X:    80.1658      Y:   -99.2274      Z:    95.1389

  Dipole Moment: [e a0]
     X:    -0.0819      Y:    -0.7140      Z:     0.0122     Total:     0.7187

  Dipole Moment: [D]
     X:    -0.2083      Y:    -1.8147      Z:     0.0310     Total:     1.8269


*** tstop() called on node37.bme.utexas.edu at Tue Feb 22 18:23:20 2022
Module time:
	user time   =      75.47 seconds =       1.26 minutes
	system time =       4.11 seconds =       0.07 minutes
	total time  =         27 seconds =       0.45 minutes
Total time:
	user time   =     158.94 seconds =       2.65 minutes
	system time =      10.19 seconds =       0.17 minutes
	total time  =         63 seconds =       1.05 minutes

*** tstart() called on node37.bme.utexas.edu
*** at Tue Feb 22 18:23:20 2022


  //>>>>>>>>>>>>>>>>>>>>>>>>>>>>>>>>>>>//
  //               DFMP2               //
  //<<<<<<<<<<<<<<<<<<<<<<<<<<<<<<<<<<<//

   => Loading Basis Set <=

    Name: (AUG-CC-PVTZ AUX)
    Role: RIFIT
    Keyword: DF_BASIS_MP2
    atoms 1-2, 6-7  entry CL         line   742 file /home/bdw2292/miniconda3/envs/amoebamdpoltype/share/psi4/basis/aug-cc-pvtz-ri.gbs 
    atoms 3, 8      entry C          line   148 file /home/bdw2292/miniconda3/envs/amoebamdpoltype/share/psi4/basis/aug-cc-pvtz-ri.gbs 
    atoms 4-5, 9-10 entry H          line    30 file /home/bdw2292/miniconda3/envs/amoebamdpoltype/share/psi4/basis/aug-cc-pvtz-ri.gbs 

	 --------------------------------------------------------
	                          DF-MP2                         
	      2nd-Order Density-Fitted Moller-Plesset Theory     
	              RMP2 Wavefunction,   4 Threads             
	                                                         
	        Rob Parrish, Justin Turney, Andy Simmonett,      
	           Ed Hohenstein, and C. David Sherrill          
	 --------------------------------------------------------

   => Auxiliary Basis Set <=

  Basis Set: (AUG-CC-PVTZ AUX)
    Blend: AUG-CC-PVTZ-RI
    Number of shells: 260
    Number of basis function: 984
    Number of Cartesian functions: 1256
    Spherical Harmonics?: true
    Max angular momentum: 4

	 --------------------------------------------------------
	                 NBF =   384, NAUX =   984
	 --------------------------------------------------------
	   CLASS    FOCC     OCC    AOCC    AVIR     VIR    FVIR
	   PAIRS      11      21      10     363     363       0
	 --------------------------------------------------------

	-----------------------------------------------------------
	 ==================> DF-MP2 Energies <==================== 
	-----------------------------------------------------------
	 Reference Energy          =    -958.0789745390289909 [Eh]
	 Singles Energy            =      -0.0000000000000000 [Eh]
	 Same-Spin Energy          =      -0.1373100606069254 [Eh]
	 Opposite-Spin Energy      =      -0.4290738325352728 [Eh]
	 Correlation Energy        =      -0.5663838931421981 [Eh]
	 Total Energy              =    -958.6453584321711787 [Eh]
	-----------------------------------------------------------
	 ================> DF-SCS-MP2 Energies <================== 
	-----------------------------------------------------------
	 SCS Same-Spin Scale       =       0.3333333333333333 [-]
	 SCS Opposite-Spin Scale   =       1.2000000000000000 [-]
	 SCS Same-Spin Energy      =      -0.0457700202023084 [Eh]
	 SCS Opposite-Spin Energy  =      -0.5148885990423273 [Eh]
	 SCS Correlation Energy    =      -0.5606586192446358 [Eh]
	 SCS Total Energy          =    -958.6396331582736821 [Eh]
	-----------------------------------------------------------


*** tstop() called on node37.bme.utexas.edu at Tue Feb 22 18:23:34 2022
Module time:
	user time   =      30.71 seconds =       0.51 minutes
	system time =       2.23 seconds =       0.04 minutes
	total time  =         14 seconds =       0.23 minutes
Total time:
	user time   =     189.65 seconds =       3.16 minutes
	system time =      12.42 seconds =       0.21 minutes
	total time  =         77 seconds =       1.28 minutes

  //>>>>>>>>>>>>>>>>>>>>>>>>>>>>>>>>>>>>//
  // CBS Computation: MP2 / AUG-CC-PVQZ //
  //<<<<<<<<<<<<<<<<<<<<<<<<<<<<<<<<<<<<//

    SCF Algorithm Type (re)set to DF.

*** tstart() called on node37.bme.utexas.edu
*** at Tue Feb 22 18:23:34 2022

   => Loading Basis Set <=

    Name: AUG-CC-PVQZ
    Role: ORBITAL
    Keyword: BASIS
    atoms 1-2, 6-7  entry CL         line  1218 file /home/bdw2292/miniconda3/envs/amoebamdpoltype/share/psi4/basis/aug-cc-pvqz.gbs 
    atoms 3, 8      entry C          line   299 file /home/bdw2292/miniconda3/envs/amoebamdpoltype/share/psi4/basis/aug-cc-pvqz.gbs 
    atoms 4-5, 9-10 entry H          line    36 file /home/bdw2292/miniconda3/envs/amoebamdpoltype/share/psi4/basis/aug-cc-pvqz.gbs 


         ---------------------------------------------------------
                                   SCF
               by Justin Turney, Rob Parrish, Andy Simmonett
                          and Daniel G. A. Smith
                              RHF Reference
                        4 Threads,  14305 MiB Core
         ---------------------------------------------------------

  ==> Geometry <==

    Molecular point group: c1
    Full point group: C1

    Geometry (in Angstrom), charge = 0, multiplicity = 1:

       Center              X                  Y                   Z               Mass       
    ------------   -----------------  -----------------  -----------------  -----------------
      Gh(CL)         -0.411491037552    -1.399599075597     1.633152154449    34.968852682000
      Gh(CL)          2.364341762448    -0.810398275597     0.809894354449    34.968852682000
      Gh(C)           1.142892662448    -2.057340975597     1.098784854449    12.000000000000
      Gh(H)           1.515710862448    -2.723837375597     1.876476754449     1.007825032230
      Gh(H)           0.984802162448    -2.602455875597     0.168345154449     1.007825032230
         CL          -2.451208137552     1.622516824403    -1.281151845551    34.968852682000
         CL           0.478218962448     1.287657124403    -1.123366145551    34.968852682000
         C           -1.097975437552     0.485928624403    -1.185509045551    12.000000000000
         H           -1.213645237552    -0.107258875597    -0.278891745551     1.007825032230
         H           -1.122938737552    -0.150179075597    -2.070157345551     1.007825032230

  Running in c1 symmetry.

  Rotational constants: A =      0.06793  B =      0.02133  C =      0.01676 [cm^-1]
  Rotational constants: A =   2036.47110  B =    639.58636  C =    502.31010 [MHz]
  Nuclear repulsion =  134.224883749703650

  Charge       = 0
  Multiplicity = 1
  Electrons    = 42
  Nalpha       = 21
  Nbeta        = 21

  ==> Algorithm <==

  SCF Algorithm Type is DF.
  DIIS enabled.
  MOM disabled.
  Fractional occupation disabled.
  Guess Type is SAD.
  Energy threshold   = 1.00e-08
  Density threshold  = 1.00e-08
  Integral threshold = 0.00e+00

  ==> Primary Basis <==

  Basis Set: AUG-CC-PVQZ
    Blend: AUG-CC-PVQZ
    Number of shells: 184
    Number of basis function: 680
    Number of Cartesian functions: 866
    Spherical Harmonics?: true
    Max angular momentum: 4

   => Loading Basis Set <=

    Name: (AUG-CC-PVQZ AUX)
    Role: JKFIT
    Keyword: DF_BASIS_SCF
    atoms 1-2, 6-7  entry CL         line   904 file /home/bdw2292/miniconda3/envs/amoebamdpoltype/share/psi4/basis/aug-cc-pvqz-jkfit.gbs 
    atoms 3, 8      entry C          line   178 file /home/bdw2292/miniconda3/envs/amoebamdpoltype/share/psi4/basis/aug-cc-pvqz-jkfit.gbs 
    atoms 4-5, 9-10 entry H          line    70 file /home/bdw2292/miniconda3/envs/amoebamdpoltype/share/psi4/basis/aug-cc-pvqz-jkfit.gbs 

  ==> Pre-Iterations <==

   -------------------------------------------------------
    Irrep   Nso     Nmo     Nalpha   Nbeta   Ndocc  Nsocc
   -------------------------------------------------------
     A        680     680       0       0       0       0
   -------------------------------------------------------
    Total     680     680      21      21      21       0
   -------------------------------------------------------

  ==> Integral Setup <==

  DFHelper Memory: AOs need 4.356 GiB; user supplied 10.477 GiB. Using in-core AOs.

  ==> MemDFJK: Density-Fitted J/K Matrices <==

    J tasked:                   Yes
    K tasked:                   Yes
    wK tasked:                   No
    OpenMP threads:               4
    Memory [MiB]:             10728
    Algorithm:                 Disk
    Schwarz Cutoff:           1E-12
    Mask sparsity (%):       7.5735
    Fitting Condition:        1E-10

   => Auxiliary Basis Set <=

  Basis Set: (AUG-CC-PVQZ AUX)
    Blend: AUG-CC-PVQZ-JKFIT
    Number of shells: 324
    Number of basis function: 1324
    Number of Cartesian functions: 1788
    Spherical Harmonics?: true
    Max angular momentum: 5

  Minimum eigenvalue in the overlap matrix is 8.5641350523E-06.
  Using Symmetric Orthogonalization.

  SCF Guess: Superposition of Atomic Densities via on-the-fly atomic UHF.

  ==> Iterations <==

                           Total Energy        Delta E     RMS |[F,P]|

   @DF-RHF iter SAD:  -957.80646620709786   -9.57806e+02   0.00000e+00 
   @DF-RHF iter   1:  -958.05974964461916   -2.53283e-01   3.18732e-04 DIIS
   @DF-RHF iter   2:  -958.08525661943577   -2.55070e-02   9.83144e-05 DIIS
   @DF-RHF iter   3:  -958.08796135998762   -2.70474e-03   3.89384e-05 DIIS
   @DF-RHF iter   4:  -958.08854208011041   -5.80720e-04   1.39711e-05 DIIS
   @DF-RHF iter   5:  -958.08861840322368   -7.63231e-05   3.04884e-06 DIIS
   @DF-RHF iter   6:  -958.08862492946150   -6.52624e-06   8.77362e-07 DIIS
   @DF-RHF iter   7:  -958.08862544596957   -5.16508e-07   2.52743e-07 DIIS
   @DF-RHF iter   8:  -958.08862548427032   -3.83008e-08   4.93604e-08 DIIS
   @DF-RHF iter   9:  -958.08862548562365   -1.35333e-09   1.08397e-08 DIIS
   @DF-RHF iter  10:  -958.08862548568868   -6.50289e-11   2.77948e-09 DIIS
  Energy and wave function converged.


  ==> Post-Iterations <==

    Orbital Energies [Eh]
    ---------------------

    Doubly Occupied:                                                      

       1A   -104.848458     2A   -104.848429     3A    -11.365398  
       4A    -10.574007     5A    -10.573987     6A     -8.041079  
       7A     -8.041060     8A     -8.039274     9A     -8.039255  
      10A     -8.039182    11A     -8.039163    12A     -1.191999  
      13A     -1.097130    14A     -0.894843    15A     -0.673922  
      16A     -0.616774    17A     -0.586098    18A     -0.474542  
      19A     -0.470870    20A     -0.449066    21A     -0.445709  

    Virtual:                                                              

      22A      0.018794    23A      0.032044    24A      0.039627  
      25A      0.045347    26A      0.051931    27A      0.061363  
      28A      0.069238    29A      0.082711    30A      0.085343  
      31A      0.086708    32A      0.089296    33A      0.105170  
      34A      0.107639    35A      0.110724    36A      0.115011  
      37A      0.117030    38A      0.122797    39A      0.126474  
      40A      0.134230    41A      0.138842    42A      0.144826  
      43A      0.149311    44A      0.150737    45A      0.161708  
      46A      0.170243    47A      0.173405    48A      0.177577  
      49A      0.188986    50A      0.217428    51A      0.224194  
      52A      0.228275    53A      0.233856    54A      0.238446  
      55A      0.249957    56A      0.253282    57A      0.256960  
      58A      0.264141    59A      0.265006    60A      0.268869  
      61A      0.280293    62A      0.281698    63A      0.291123  
      64A      0.291764    65A      0.296137    66A      0.304348  
      67A      0.314419    68A      0.317709    69A      0.326010  
      70A      0.332490    71A      0.335216    72A      0.341680  
      73A      0.343918    74A      0.344138    75A      0.350181  
      76A      0.353940    77A      0.356203    78A      0.360478  
      79A      0.375615    80A      0.380032    81A      0.382932  
      82A      0.389103    83A      0.393499    84A      0.405077  
      85A      0.409853    86A      0.415617    87A      0.422456  
      88A      0.427464    89A      0.438851    90A      0.445957  
      91A      0.454506    92A      0.462823    93A      0.465563  
      94A      0.481276    95A      0.490680    96A      0.495410  
      97A      0.506165    98A      0.510578    99A      0.514797  
     100A      0.524715   101A      0.539191   102A      0.549035  
     103A      0.557365   104A      0.561597   105A      0.563560  
     106A      0.571653   107A      0.580321   108A      0.583025  
     109A      0.591370   110A      0.598234   111A      0.607019  
     112A      0.611367   113A      0.619456   114A      0.624870  
     115A      0.635693   116A      0.642184   117A      0.653774  
     118A      0.662256   119A      0.669099   120A      0.676629  
     121A      0.680799   122A      0.693418   123A      0.700630  
     124A      0.702244   125A      0.721967   126A      0.729940  
     127A      0.736107   128A      0.741266   129A      0.746284  
     130A      0.756510   131A      0.769524   132A      0.772010  
     133A      0.789463   134A      0.793414   135A      0.802718  
     136A      0.811515   137A      0.820392   138A      0.823977  
     139A      0.825612   140A      0.840500   141A      0.845562  
     142A      0.855829   143A      0.865498   144A      0.868470  
     145A      0.875519   146A      0.882599   147A      0.894373  
     148A      0.899705   149A      0.905592   150A      0.922878  
     151A      0.931758   152A      0.936519   153A      0.942525  
     154A      0.947130   155A      0.955008   156A      0.971580  
     157A      0.979107   158A      0.983635   159A      0.995579  
     160A      1.001967   161A      1.005361   162A      1.013850  
     163A      1.018949   164A      1.027417   165A      1.043507  
     166A      1.051971   167A      1.052328   168A      1.058706  
     169A      1.070111   170A      1.072928   171A      1.077188  
     172A      1.081333   173A      1.092337   174A      1.099852  
     175A      1.102672   176A      1.117102   177A      1.119611  
     178A      1.126149   179A      1.137182   180A      1.137995  
     181A      1.147299   182A      1.159215   183A      1.162156  
     184A      1.166861   185A      1.183486   186A      1.187247  
     187A      1.189522   188A      1.197182   189A      1.207587  
     190A      1.213266   191A      1.231155   192A      1.233729  
     193A      1.240038   194A      1.246291   195A      1.250711  
     196A      1.266171   197A      1.271423   198A      1.277599  
     199A      1.283577   200A      1.285469   201A      1.294005  
     202A      1.318555   203A      1.331994   204A      1.344968  
     205A      1.357290   206A      1.367271   207A      1.381718  
     208A      1.392560   209A      1.400212   210A      1.410672  
     211A      1.421177   212A      1.457732   213A      1.463670  
     214A      1.477310   215A      1.491643   216A      1.498247  
     217A      1.503805   218A      1.524287   219A      1.542339  
     220A      1.548492   221A      1.571325   222A      1.583511  
     223A      1.598798   224A      1.601254   225A      1.605844  
     226A      1.609137   227A      1.623801   228A      1.639003  
     229A      1.651591   230A      1.662380   231A      1.683059  
     232A      1.705735   233A      1.726876   234A      1.738201  
     235A      1.740026   236A      1.758421   237A      1.773831  
     238A      1.791970   239A      1.796800   240A      1.798170  
     241A      1.818183   242A      1.824723   243A      1.834036  
     244A      1.842540   245A      1.858940   246A      1.869574  
     247A      1.873063   248A      1.889290   249A      1.897434  
     250A      1.905209   251A      1.908659   252A      1.919611  
     253A      1.928062   254A      1.937147   255A      1.942017  
     256A      1.949607   257A      1.954567   258A      1.962443  
     259A      1.965838   260A      1.980895   261A      1.999165  
     262A      2.004568   263A      2.017180   264A      2.021132  
     265A      2.027801   266A      2.039177   267A      2.043592  
     268A      2.056881   269A      2.068199   270A      2.075582  
     271A      2.081197   272A      2.085757   273A      2.090407  
     274A      2.097612   275A      2.100960   276A      2.113357  
     277A      2.129505   278A      2.133454   279A      2.140469  
     280A      2.147710   281A      2.151439   282A      2.156904  
     283A      2.166845   284A      2.180608   285A      2.186382  
     286A      2.196238   287A      2.203424   288A      2.208519  
     289A      2.222678   290A      2.227802   291A      2.233353  
     292A      2.236258   293A      2.254360   294A      2.259598  
     295A      2.273624   296A      2.287224   297A      2.289700  
     298A      2.296245   299A      2.303993   300A      2.313482  
     301A      2.322223   302A      2.333068   303A      2.344276  
     304A      2.345289   305A      2.347856   306A      2.349888  
     307A      2.361857   308A      2.385927   309A      2.386667  
     310A      2.399645   311A      2.411529   312A      2.413773  
     313A      2.431635   314A      2.437351   315A      2.449438  
     316A      2.457150   317A      2.464841   318A      2.474296  
     319A      2.486647   320A      2.493252   321A      2.504009  
     322A      2.508033   323A      2.516334   324A      2.531093  
     325A      2.535658   326A      2.546818   327A      2.554878  
     328A      2.563911   329A      2.584769   330A      2.587791  
     331A      2.598346   332A      2.601764   333A      2.616144  
     334A      2.623647   335A      2.629272   336A      2.643098  
     337A      2.653959   338A      2.663411   339A      2.673683  
     340A      2.679508   341A      2.700012   342A      2.701359  
     343A      2.713004   344A      2.726922   345A      2.749333  
     346A      2.763981   347A      2.777854   348A      2.779347  
     349A      2.794745   350A      2.801603   351A      2.817291  
     352A      2.832461   353A      2.835792   354A      2.857783  
     355A      2.860092   356A      2.881492   357A      2.892170  
     358A      2.911469   359A      2.925959   360A      2.940437  
     361A      2.953069   362A      2.963079   363A      2.974670  
     364A      2.985629   365A      3.002300   366A      3.022026  
     367A      3.030839   368A      3.036098   369A      3.055635  
     370A      3.075620   371A      3.076763   372A      3.109656  
     373A      3.121394   374A      3.128372   375A      3.136957  
     376A      3.151009   377A      3.176920   378A      3.196033  
     379A      3.199265   380A      3.225914   381A      3.238865  
     382A      3.245657   383A      3.263740   384A      3.303615  
     385A      3.310340   386A      3.340292   387A      3.353271  
     388A      3.358207   389A      3.376038   390A      3.391191  
     391A      3.415216   392A      3.417758   393A      3.426961  
     394A      3.440655   395A      3.453966   396A      3.457778  
     397A      3.484933   398A      3.494501   399A      3.512980  
     400A      3.531618   401A      3.552256   402A      3.564030  
     403A      3.585535   404A      3.618198   405A      3.643920  
     406A      3.660593   407A      3.664687   408A      3.683923  
     409A      3.730352   410A      3.746053   411A      3.758610  
     412A      3.780590   413A      3.793937   414A      3.805268  
     415A      3.844459   416A      3.856692   417A      3.889173  
     418A      3.898182   419A      3.913372   420A      3.917685  
     421A      3.936837   422A      3.977919   423A      3.980528  
     424A      4.007317   425A      4.049665   426A      4.104163  
     427A      4.127577   428A      4.143342   429A      4.163165  
     430A      4.166024   431A      4.181644   432A      4.237810  
     433A      4.244779   434A      4.295891   435A      4.304017  
     436A      4.332627   437A      4.379465   438A      4.436802  
     439A      4.443474   440A      4.456551   441A      4.462418  
     442A      4.474017   443A      4.486198   444A      4.515281  
     445A      4.537996   446A      4.558858   447A      4.586098  
     448A      4.619956   449A      4.661527   450A      4.686371  
     451A      4.702028   452A      4.709223   453A      4.729325  
     454A      4.744391   455A      4.749758   456A      4.755289  
     457A      4.759199   458A      4.765718   459A      4.779062  
     460A      4.798269   461A      4.804167   462A      4.827694  
     463A      4.851863   464A      4.869885   465A      4.880132  
     466A      4.886189   467A      4.903941   468A      4.909410  
     469A      4.924402   470A      4.937702   471A      4.949683  
     472A      4.952952   473A      4.967404   474A      4.975355  
     475A      4.980452   476A      4.998709   477A      5.006639  
     478A      5.029688   479A      5.055829   480A      5.091239  
     481A      5.101133   482A      5.111250   483A      5.138240  
     484A      5.174337   485A      5.213381   486A      5.234879  
     487A      5.257559   488A      5.278391   489A      5.303316  
     490A      5.319282   491A      5.415108   492A      5.426536  
     493A      5.445047   494A      5.469109   495A      5.502201  
     496A      5.541069   497A      5.549011   498A      5.581561  
     499A      5.607416   500A      5.620378   501A      5.625175  
     502A      5.690419   503A      5.696704   504A      5.711834  
     505A      5.733522   506A      5.771978   507A      5.803546  
     508A      5.864692   509A      5.891921   510A      5.914020  
     511A      5.938910   512A      6.008557   513A      6.045193  
     514A      6.098258   515A      6.167539   516A      6.342810  
     517A      6.374439   518A      6.380862   519A      6.391338  
     520A      6.410881   521A      6.425809   522A      6.432970  
     523A      6.444504   524A      6.468705   525A      6.474235  
     526A      6.480913   527A      6.496115   528A      6.525990  
     529A      6.536625   530A      6.560949   531A      6.565696  
     532A      6.603317   533A      6.617164   534A      6.630315  
     535A      6.657797   536A      6.660740   537A      6.714113  
     538A      6.779871   539A      6.805389   540A      6.867785  
     541A      6.874887   542A      6.895429   543A      6.903155  
     544A      6.923119   545A      6.936002   546A      6.997361  
     547A      7.018581   548A      7.037820   549A      7.038526  
     550A      7.054319   551A      7.064978   552A      7.080341  
     553A      7.106215   554A      7.141517   555A      7.156731  
[...]
     217A      1.247382   218A      1.255055   219A      1.255728  
     220A      1.266585   221A      1.271462   222A      1.273034  
     223A      1.281273   224A      1.291259   225A      1.304679  
     226A      1.316827   227A      1.325532   228A      1.338207  
     229A      1.351194   230A      1.361778   231A      1.365082  
     232A      1.370781   233A      1.380424   234A      1.389311  
     235A      1.404264   236A      1.406156   237A      1.430772  
     238A      1.450212   239A      1.454331   240A      1.460088  
     241A      1.480475   242A      1.491903   243A      1.508208  
     244A      1.537434   245A      1.549252   246A      1.591454  
     247A      1.619244   248A      1.622307   249A      1.634623  
     250A      1.644902   251A      1.662705   252A      1.676193  
     253A      1.694511   254A      1.709806   255A      1.729566  
     256A      1.730918   257A      1.744698   258A      1.766229  
     259A      1.769230   260A      1.782343   261A      1.785076  
     262A      1.792338   263A      1.797593   264A      1.809646  
     265A      1.818770   266A      1.825552   267A      1.839971  
     268A      1.848850   269A      1.858571   270A      1.867725  
     271A      1.868091   272A      1.872811   273A      1.892754  
     274A      1.896866   275A      1.906498   276A      1.912710  
     277A      1.921628   278A      1.932868   279A      1.940490  
     280A      1.944616   281A      1.948424   282A      1.954950  
     283A      1.963955   284A      1.969101   285A      1.979719  
     286A      1.983482   287A      1.988770   288A      1.990962  
     289A      2.004269   290A      2.014231   291A      2.020793  
     292A      2.030941   293A      2.032934   294A      2.037152  
     295A      2.040945   296A      2.055067   297A      2.059642  
     298A      2.069304   299A      2.076016   300A      2.095658  
     301A      2.106940   302A      2.109167   303A      2.112046  
     304A      2.118025   305A      2.125813   306A      2.127710  
     307A      2.133913   308A      2.142311   309A      2.144052  
     310A      2.159692   311A      2.162956   312A      2.166738  
     313A      2.176484   314A      2.180035   315A      2.187384  
     316A      2.196455   317A      2.204603   318A      2.215675  
     319A      2.217720   320A      2.227515   321A      2.236528  
     322A      2.242098   323A      2.252612   324A      2.254579  
     325A      2.261183   326A      2.267624   327A      2.275757  
     328A      2.283012   329A      2.286923   330A      2.288613  
     331A      2.303059   332A      2.309784   333A      2.316695  
     334A      2.321527   335A      2.331105   336A      2.337040  
     337A      2.339252   338A      2.353997   339A      2.360260  
     340A      2.366701   341A      2.382783   342A      2.394123  
     343A      2.403672   344A      2.415020   345A      2.416694  
     346A      2.422703   347A      2.434242   348A      2.436825  
     349A      2.441622   350A      2.450851   351A      2.458766  
     352A      2.465864   353A      2.468193   354A      2.472615  
     355A      2.483635   356A      2.489068   357A      2.507390  
     358A      2.515003   359A      2.530503   360A      2.531772  
     361A      2.542319   362A      2.549383   363A      2.565049  
     364A      2.573475   365A      2.581960   366A      2.591113  
     367A      2.599836   368A      2.613899   369A      2.627836  
     370A      2.633781   371A      2.659676   372A      2.663287  
     373A      2.675320   374A      2.681409   375A      2.698337  
     376A      2.712675   377A      2.759159   378A      2.763301  
     379A      2.782576   380A      2.807193   381A      2.826576  
     382A      2.845054   383A      2.857943   384A      2.875352  
     385A      2.880331   386A      2.889104   387A      2.910576  
     388A      2.916996   389A      2.937147   390A      2.937969  
     391A      2.955214   392A      2.964564   393A      2.987040  
     394A      2.997632   395A      3.010413   396A      3.029120  
     397A      3.058880   398A      3.068178   399A      3.082430  
     400A      3.094596   401A      3.129000   402A      3.134701  
     403A      3.145673   404A      3.162988   405A      3.187274  
     406A      3.205909   407A      3.225316   408A      3.243596  
     409A      3.248201   410A      3.263170   411A      3.288189  
     412A      3.341688   413A      3.368496   414A      3.374827  
     415A      3.377976   416A      3.403716   417A      3.419655  
     418A      3.427430   419A      3.459657   420A      3.499375  
     421A      3.504210   422A      3.522191   423A      3.538020  
     424A      3.548594   425A      3.557852   426A      3.575928  
     427A      3.609432   428A      3.628614   429A      3.671150  
     430A      3.719783   431A      3.736042   432A      3.744464  
     433A      3.767446   434A      3.775778   435A      3.805681  
     436A      3.813056   437A      3.850672   438A      3.875234  
     439A      3.890403   440A      3.897929   441A      3.920651  
     442A      3.944942   443A      3.966587   444A      4.003216  
     445A      4.012579   446A      4.024151   447A      4.080592  
     448A      4.110303   449A      4.138785   450A      4.154631  
     451A      4.195650   452A      4.221781   453A      4.235305  
     454A      4.281752   455A      4.295879   456A      4.324480  
     457A      4.390386   458A      4.411238   459A      4.417762  
     460A      4.439529   461A      4.451140   462A      4.480970  
     463A      4.500241   464A      4.514185   465A      4.520357  
     466A      4.540314   467A      4.562956   468A      4.575139  
     469A      4.585760   470A      4.598290   471A      4.622418  
     472A      4.653907   473A      4.664939   474A      4.672127  
     475A      4.692955   476A      4.698649   477A      4.701075  
     478A      4.709108   479A      4.716444   480A      4.729848  
     481A      4.733381   482A      4.740680   483A      4.754827  
     484A      4.756347   485A      4.759469   486A      4.768792  
     487A      4.772689   488A      4.785308   489A      4.793906  
     490A      4.804321   491A      4.822313   492A      4.833031  
     493A      4.840238   494A      4.849102   495A      4.851891  
     496A      4.859923   497A      4.866740   498A      4.876920  
     499A      4.882837   500A      4.894359   501A      4.905354  
     502A      4.906264   503A      4.925536   504A      4.928895  
     505A      4.935141   506A      4.941448   507A      4.949850  
     508A      4.953443   509A      4.958570   510A      4.977219  
     511A      4.988614   512A      4.991334   513A      5.000852  
     514A      5.022940   515A      5.029490   516A      5.037088  
     517A      5.050852   518A      5.058077   519A      5.062100  
     520A      5.071716   521A      5.083643   522A      5.106581  
     523A      5.117448   524A      5.132644   525A      5.139782  
     526A      5.151527   527A      5.160433   528A      5.170255  
     529A      5.200182   530A      5.220448   531A      5.227363  
     532A      5.244771   533A      5.265463   534A      5.286278  
     535A      5.309107   536A      5.317367   537A      5.330093  
     538A      5.343778   539A      5.366030   540A      5.413444  
     541A      5.419325   542A      5.431236   543A      5.453176  
     544A      5.467645   545A      5.500017   546A      5.503238  
     547A      5.548489   548A      5.622885   549A      5.672494  
     550A      5.723534   551A      6.326815   552A      6.344741  
     553A      6.350693   554A      6.373197   555A      6.391011  
     556A      6.405626   557A      6.429795   558A      6.454281  
     559A      6.462201   560A      6.507884   561A      6.551802  
     562A      6.590489   563A      6.606168   564A      6.628905  
     565A      6.633498   566A      6.660035   567A      6.678016  
     568A      6.702741   569A      6.762356   570A      6.778135  
     571A      6.801245   572A      6.833529   573A      6.839321  
     574A      6.843199   575A      6.877724   576A      6.886293  
     577A      6.899253   578A      6.904060   579A      6.924211  
     580A      6.938111   581A      6.951634   582A      7.001314  
     583A      7.019702   584A      7.028101   585A      7.033341  
     586A      7.047686   587A      7.048296   588A      7.075110  
     589A      7.090210   590A      7.120591   591A      7.172045  
     592A      7.197588   593A      7.226937   594A      7.238653  
     595A      7.255534   596A      7.289737   597A      7.383104  
     598A      7.400818   599A      7.466223   600A      7.483477  
     601A      7.504061   602A      7.531810   603A      7.589991  
     604A      7.602719   605A      7.645421   606A      7.660164  
     607A      7.685238   608A      7.704574   609A      7.715964  
     610A      7.739934   611A      7.744882   612A      7.755283  
     613A      7.780737   614A      7.809931   615A      7.840937  
     616A      7.924441   617A      8.045398   618A      8.068977  
     619A      8.109398   620A      8.121123   621A      8.146743  
     622A      8.177960   623A      8.337952   624A      8.368823  
     625A      8.531363   626A      8.556084   627A      8.580700  
     628A      8.604510   629A      8.613339   630A      8.714846  
     631A      8.755775   632A      8.768221   633A      8.817189  
     634A      8.875696   635A      8.882791   636A      8.897624  
     637A      8.986960   638A      9.067263   639A      9.158976  
     640A      9.200220   641A      9.216320   642A      9.280036  
     643A      9.442008   644A      9.480200   645A      9.485260  
     646A      9.525940   647A      9.540462   648A      9.553167  
     649A      9.563266   650A      9.601817   651A      9.623644  
     652A      9.650851   653A      9.785579   654A      9.823250  
     655A      9.952301   656A      9.987696   657A     10.012198  
     658A     10.038010   659A     10.325984   660A     10.338992  
     661A     10.388442   662A     10.424810   663A     10.587650  
     664A     10.613516   665A     10.787411   666A     10.792109  
     667A     10.814690   668A     10.861546   669A     11.066555  
     670A     11.086654   671A     13.051061   672A     13.087334  
     673A     13.152151   674A     13.190557   675A     26.200743  
     676A     26.383079   677A     26.839064   678A     26.954935  
     679A     27.993206   680A     28.026033  

    Final Occupation by Irrep:
              A 
    DOCC [    42 ]

  @DF-RHF Final Energy: -1916.16919729632650

   => Energetics <=

    Nuclear Repulsion Energy =            487.6817389226478667
    One-Electron Energy =               -3618.3835205485966071
    Two-Electron Energy =                1214.5325843296220683
    Total Energy =                      -1916.1691972963265016

Computation Completed


Properties will be evaluated at   0.000000,  -0.000000,  -0.000000 [a0]

Properties computed using the SCF density matrix

  Nuclear Dipole Moment: [e a0]
     X:     0.1721      Y:    -5.8755      Z:    -0.3205

  Electronic Dipole Moment: [e a0]
     X:     0.0066      Y:     4.4324      Z:     0.3578

  Dipole Moment: [e a0]
     X:     0.1787      Y:    -1.4432      Z:     0.0373     Total:     1.4547

  Dipole Moment: [D]
     X:     0.4541      Y:    -3.6682      Z:     0.0948     Total:     3.6974


*** tstop() called on node37.bme.utexas.edu at Tue Feb 22 18:37:54 2022
Module time:
	user time   =     432.02 seconds =       7.20 minutes
	system time =      80.59 seconds =       1.34 minutes
	total time  =        210 seconds =       3.50 minutes
Total time:
	user time   =    1896.00 seconds =      31.60 minutes
	system time =     289.63 seconds =       4.83 minutes
	total time  =        937 seconds =      15.62 minutes

*** tstart() called on node37.bme.utexas.edu
*** at Tue Feb 22 18:37:54 2022


  //>>>>>>>>>>>>>>>>>>>>>>>>>>>>>>>>>>>//
  //               DFMP2               //
  //<<<<<<<<<<<<<<<<<<<<<<<<<<<<<<<<<<<//

   => Loading Basis Set <=

    Name: (AUG-CC-PVQZ AUX)
    Role: RIFIT
    Keyword: DF_BASIS_MP2
    atoms 1-2, 6-7  entry CL         line   914 file /home/bdw2292/miniconda3/envs/amoebamdpoltype/share/psi4/basis/aug-cc-pvqz-ri.gbs 
    atoms 3, 8      entry C          line   184 file /home/bdw2292/miniconda3/envs/amoebamdpoltype/share/psi4/basis/aug-cc-pvqz-ri.gbs 
    atoms 4-5, 9-10 entry H          line    30 file /home/bdw2292/miniconda3/envs/amoebamdpoltype/share/psi4/basis/aug-cc-pvqz-ri.gbs 

	 --------------------------------------------------------
	                          DF-MP2                         
	      2nd-Order Density-Fitted Moller-Plesset Theory     
	              RMP2 Wavefunction,   4 Threads             
	                                                         
	        Rob Parrish, Justin Turney, Andy Simmonett,      
	           Ed Hohenstein, and C. David Sherrill          
	 --------------------------------------------------------

   => Auxiliary Basis Set <=

  Basis Set: (AUG-CC-PVQZ AUX)
    Blend: AUG-CC-PVQZ-RI
    Number of shells: 328
    Number of basis function: 1432
    Number of Cartesian functions: 1966
    Spherical Harmonics?: true
    Max angular momentum: 5

	 --------------------------------------------------------
	                 NBF =   680, NAUX =  1432
	 --------------------------------------------------------
	   CLASS    FOCC     OCC    AOCC    AVIR     VIR    FVIR
	   PAIRS      22      42      20     638     638       0
	 --------------------------------------------------------

	-----------------------------------------------------------
	 ==================> DF-MP2 Energies <==================== 
	-----------------------------------------------------------
	 Reference Energy          =   -1916.1691972963265016 [Eh]
	 Singles Energy            =      -0.0000000000000000 [Eh]
	 Same-Spin Energy          =      -0.2874625261073588 [Eh]
	 Opposite-Spin Energy      =      -0.9393778340225915 [Eh]
	 Correlation Energy        =      -1.2268403601299502 [Eh]
	 Total Energy              =   -1917.3960376564564285 [Eh]
	-----------------------------------------------------------
	 ================> DF-SCS-MP2 Energies <================== 
	-----------------------------------------------------------
	 SCS Same-Spin Scale       =       0.3333333333333333 [-]
	 SCS Opposite-Spin Scale   =       1.2000000000000000 [-]
	 SCS Same-Spin Energy      =      -0.0958208420357863 [Eh]
	 SCS Opposite-Spin Energy  =      -1.1272534008271098 [Eh]
	 SCS Correlation Energy    =      -1.2230742428628960 [Eh]
	 SCS Total Energy          =   -1917.3922715391893234 [Eh]
	-----------------------------------------------------------


*** tstop() called on node37.bme.utexas.edu at Tue Feb 22 18:38:45 2022
Module time:
	user time   =     129.16 seconds =       2.15 minutes
	system time =       7.36 seconds =       0.12 minutes
	total time  =         51 seconds =       0.85 minutes
Total time:
	user time   =    2025.16 seconds =      33.75 minutes
	system time =     296.99 seconds =       4.95 minutes
	total time  =        988 seconds =      16.47 minutes

  //>>>>>>>>>>>>>>>>>>>>>>>>>>>>>>>>>>>//
  //  CBS Results: mp2/aug-cc-pV[TQ]Z  //
  //<<<<<<<<<<<<<<<<<<<<<<<<<<<<<<<<<<<//


   ==> HF <==

   HI-zeta (4) Energy:               -1916.169197296327


   ==> Helgaker 2-point correlated extrapolation for method: MP2 <==

   LO-zeta (3) Energy:               -1917.290990802519
   HI-zeta (4) Energy:               -1917.396037656456
   Alpha (exponent) Value:             3.000000000000
   Extrapolated Energy:              -1917.472693468789

   @Extrapolated MP2/(T,Q):          -1917.472693468789



   ==> Helgaker 2-point correlated extrapolation for method: HF <==

   LO-zeta (3) Energy:               -1916.149919347751
   HI-zeta (4) Energy:               -1916.169197296327
   Alpha (exponent) Value:             3.000000000000
   Extrapolated Energy:              -1916.183264988530

   @Extrapolated HF/(T,Q):           -1916.183264988530


   ==> Components <==

  ---------------------------------------------------------------------------------------------------------
                          Method / Basis                      Rqd      Energy [Eh]   Variable
  ---------------------------------------------------------------------------------------------------------
                              hf / aug-cc-pvtz                  *   -1916.14991935   HF TOTAL ENERGY
                             mp2 / aug-cc-pvtz                  *   -1917.29099080   MP2 TOTAL ENERGY
                              hf / aug-cc-pvqz                  *   -1916.16919730   HF TOTAL ENERGY
                             mp2 / aug-cc-pvqz                  *   -1917.39603766   MP2 TOTAL ENERGY
  ---------------------------------------------------------------------------------------------------------

   ==> Stages <==

  ---------------------------------------------------------------------------------------------------------
      Stage               Method / Basis                       Wt      Energy [Eh]   Scheme
  ---------------------------------------------------------------------------------------------------------
        scf                   hf / aug-cc-pvqz                  1   -1916.16919730   xtpl_highest_1
       corl                  mp2 / aug-cc-pv[tq]z               1   -1917.47269347   corl_xtpl_helgaker_2
       corl                   hf / aug-cc-pv[tq]z              -1   -1916.18326499   corl_xtpl_helgaker_2
  ---------------------------------------------------------------------------------------------------------

   ==> CBS <==

  ---------------------------------------------------------------------------------------------------------
      Stage               Method / Basis                               Energy [Eh]   Scheme
  ---------------------------------------------------------------------------------------------------------
        scf                   hf / aug-cc-pvqz                      -1916.16919730   xtpl_highest_1
       corl                  mp2 / aug-cc-pv[tq]z                      -1.28942848   corl_xtpl_helgaker_2
      total                  CBS                                    -1917.45862578   
  ---------------------------------------------------------------------------------------------------------
   => Loading Basis Set <=

    Name: DEF2-SVP
    Role: ORBITAL
    Keyword: BASIS
    atoms 1-2, 6-7  entry CL         line   356 file /home/bdw2292/miniconda3/envs/amoebamdpoltype/share/psi4/basis/def2-svp.gbs 
    atoms 3, 8      entry C          line    90 file /home/bdw2292/miniconda3/envs/amoebamdpoltype/share/psi4/basis/def2-svp.gbs 
    atoms 4-5, 9-10 entry H          line    15 file /home/bdw2292/miniconda3/envs/amoebamdpoltype/share/psi4/basis/def2-svp.gbs 


       N-Body: Complex Energy (fragments = (1, 2), basis = (1, 2): -1917.45862577658590)

   ==> N-Body: Counterpoise Corrected (CP) energies <==

   n-Body     Total Energy [Eh]       I.E. [kcal/mol]      Delta [kcal/mol]
        1    -1917.457641960433        0.000000000000        0.000000000000
        2    -1917.458422048834       -0.489512861816       -0.489512861816

   => Loading Basis Set <=

    Name: DEF2-SVP
    Role: ORBITAL
    Keyword: BASIS
    atoms 1-2, 6-7  entry CL         line   356 file /home/bdw2292/miniconda3/envs/amoebamdpoltype/share/psi4/basis/def2-svp.gbs 
    atoms 3, 8      entry C          line    90 file /home/bdw2292/miniconda3/envs/amoebamdpoltype/share/psi4/basis/def2-svp.gbs 
    atoms 4-5, 9-10 entry H          line    15 file /home/bdw2292/miniconda3/envs/amoebamdpoltype/share/psi4/basis/def2-svp.gbs 

CP Energy =  -0.000780
    Psi4 stopped on: Tuesday, 22 February 2022 06:38PM
    Psi4 wall time for execution: 0:16:30.12

*** Psi4 exiting successfully. Buy a developer a beer!
