
    -----------------------------------------------------------------------
          Psi4: An Open-Source Ab Initio Electronic Structure Package
                               Psi4 1.3.2 release

                         Git: Rev {HEAD} ecbda83 


    R. M. Parrish, L. A. Burns, D. G. A. Smith, A. C. Simmonett,
    A. E. DePrince III, E. G. Hohenstein, U. Bozkaya, A. Yu. Sokolov,
    R. Di Remigio, R. M. Richard, J. F. Gonthier, A. M. James,
    H. R. McAlexander, A. Kumar, M. Saitow, X. Wang, B. P. Pritchard,
    P. Verma, H. F. Schaefer III, K. Patkowski, R. A. King, E. F. Valeev,
    F. A. Evangelista, J. M. Turney, T. D. Crawford, and C. D. Sherrill,
    J. Chem. Theory Comput. 13(7) pp 3185--3197 (2017).
    (doi: 10.1021/acs.jctc.7b00174)


                         Additional Contributions by
    P. Kraus, H. Kruse, M. H. Lechner, M. C. Schieber, R. A. Shaw,
    A. Alenaizan, R. Galvelis, Z. L. Glick, S. Lehtola, and J. P. Misiewicz

    -----------------------------------------------------------------------


    Psi4 started on: Tuesday, 22 February 2022 06:22PM

    Process ID: 31404
    Host:       node37.bme.utexas.edu
    PSIDATADIR: /home/bdw2292/miniconda3/envs/amoebamdpoltype/share/psi4
    Memory:     500.0 MiB
    Threads:    1
    
  ==> Input File <==

--------------------------------------------------------------------------
molecule { 
0 1
 Cl                 -1.5388435    -0.1931364     0.6760242
 Cl                  1.2369893     0.3960644    -0.1472336
  C                  0.0155402    -0.8508783     0.1416569
  H                  0.3883584    -1.5173747     0.9193488
  H                 -0.1425503    -1.3959932    -0.7887828
--
0 1
 Cl                 -3.5313751     2.7529595    -2.1258067
 Cl                 -0.6019480     2.4180998    -1.9680209
  C                 -2.1781424     1.6163713    -2.0301639
  H                 -2.2938122     1.0231838    -1.1235465
  H                 -2.2031056     0.9802636    -2.9148121
}
memory 15GB
set_num_threads(4)
psi4_io.set_default_path("/scratch/bdw2292/Psi4-CH2Cl2")
set maxiter 500
set freeze_core True
set PROPERTIES_ORIGIN ["COM"]
e_dim= energy('mp2/aug-cc-pV[TQ]Z',bsse_type='cp')

psi4.print_out('CP Energy = %10.6f' % (e_dim))
clean()
--------------------------------------------------------------------------

  Memory set to  13.970 GiB by Python driver.
  Threads set to 4 by Python driver.


   ===> N-Body Interaction Abacus <===
        BSSE Treatment:                     cp
        Number of 1-body computations:     4
        Number of 2-body computations:     1

   ==> N-Body: Now computing 1-body complexes <==


       N-Body: Computing complex (1/4) with fragments (2,) in the basis of fragments (2,).


  //>>>>>>>>>>>>>>>>>>>>>>>>>>>>>>>>>>>//
  //   CBS Setup: mp2/aug-cc-pV[TQ]Z   //
  //<<<<<<<<<<<<<<<<<<<<<<<<<<<<<<<<<<<//

    Naive listing of computations required.
             hf / aug-cc-pvqz              for  HF TOTAL ENERGY
            mp2 / aug-cc-pvtz              for  MP2 TOTAL ENERGY
            mp2 / aug-cc-pvqz              for  MP2 TOTAL ENERGY
             hf / aug-cc-pvtz              for  HF TOTAL ENERGY
             hf / aug-cc-pvqz              for  HF TOTAL ENERGY

    Enlightened listing of computations required.
            mp2 / aug-cc-pvtz              for  MP2 TOTAL ENERGY
            mp2 / aug-cc-pvqz              for  MP2 TOTAL ENERGY

    Full listing of computations to be obtained (required and bonus).
             hf / aug-cc-pvtz              for  HF TOTAL ENERGY
            mp2 / aug-cc-pvtz              for  MP2 TOTAL ENERGY
             hf / aug-cc-pvqz              for  HF TOTAL ENERGY
            mp2 / aug-cc-pvqz              for  MP2 TOTAL ENERGY

  //>>>>>>>>>>>>>>>>>>>>>>>>>>>>>>>>>>>>//
  // CBS Computation: MP2 / AUG-CC-PVTZ //
  //<<<<<<<<<<<<<<<<<<<<<<<<<<<<<<<<<<<<//

    SCF Algorithm Type (re)set to DF.

*** tstart() called on node37.bme.utexas.edu
*** at Tue Feb 22 18:22:17 2022

   => Loading Basis Set <=

    Name: AUG-CC-PVTZ
    Role: ORBITAL
    Keyword: BASIS
    atoms 1-2 entry CL         line   984 file /home/bdw2292/miniconda3/envs/amoebamdpoltype/share/psi4/basis/aug-cc-pvtz.gbs 
    atoms 3   entry C          line   235 file /home/bdw2292/miniconda3/envs/amoebamdpoltype/share/psi4/basis/aug-cc-pvtz.gbs 
    atoms 4-5 entry H          line    36 file /home/bdw2292/miniconda3/envs/amoebamdpoltype/share/psi4/basis/aug-cc-pvtz.gbs 


         ---------------------------------------------------------
                                   SCF
               by Justin Turney, Rob Parrish, Andy Simmonett
                          and Daniel G. A. Smith
                              RHF Reference
                        4 Threads,  14305 MiB Core
         ---------------------------------------------------------

  ==> Geometry <==

    Molecular point group: c1
    Full point group: C1

    Geometry (in Angstrom), charge = 0, multiplicity = 1:

       Center              X                  Y                   Z               Mass       
    ------------   -----------------  -----------------  -----------------  -----------------
         CL          -2.427615388153     1.584506824403    -1.224915317577    34.968852682000
         CL           0.501811711847     1.249647124403    -1.067129517577    34.968852682000
         C           -1.074382688153     0.447918624403    -1.129272517577    12.000000000000
         H           -1.190052488153    -0.145268875597    -0.222655117577     1.007825032230
         H           -1.099345888153    -0.188189075597    -2.013920717577     1.007825032230

  Running in c1 symmetry.

  Rotational constants: A =      0.18511  B =      0.04174  C =      0.03505 [cm^-1]
  Rotational constants: A =   5549.54758  B =   1251.19157  C =   1050.72769 [MHz]
  Nuclear repulsion =  134.224883599305628

  Charge       = 0
  Multiplicity = 1
  Electrons    = 42
  Nalpha       = 21
  Nbeta        = 21

  ==> Algorithm <==

  SCF Algorithm Type is DF.
  DIIS enabled.
  MOM disabled.
  Fractional occupation disabled.
  Guess Type is SAD.
  Energy threshold   = 1.00e-08
  Density threshold  = 1.00e-08
  Integral threshold = 0.00e+00

  ==> Primary Basis <==

  Basis Set: AUG-CC-PVTZ
    Blend: AUG-CC-PVTZ
    Number of shells: 64
    Number of basis function: 192
    Number of Cartesian functions: 223
    Spherical Harmonics?: true
    Max angular momentum: 3

   => Loading Basis Set <=

    Name: (AUG-CC-PVTZ AUX)
    Role: JKFIT
    Keyword: DF_BASIS_SCF
    atoms 1-2 entry CL         line   816 file /home/bdw2292/miniconda3/envs/amoebamdpoltype/share/psi4/basis/aug-cc-pvtz-jkfit.gbs 
    atoms 3   entry C          line   162 file /home/bdw2292/miniconda3/envs/amoebamdpoltype/share/psi4/basis/aug-cc-pvtz-jkfit.gbs 
    atoms 4-5 entry H          line    70 file /home/bdw2292/miniconda3/envs/amoebamdpoltype/share/psi4/basis/aug-cc-pvtz-jkfit.gbs 

  ==> Pre-Iterations <==

   -------------------------------------------------------
    Irrep   Nso     Nmo     Nalpha   Nbeta   Ndocc  Nsocc
   -------------------------------------------------------
     A        192     192       0       0       0       0
   -------------------------------------------------------
    Total     192     192      21      21      21       0
   -------------------------------------------------------

  ==> Integral Setup <==

  DFHelper Memory: AOs need 0.144 GiB; user supplied 10.477 GiB. Using in-core AOs.

  ==> MemDFJK: Density-Fitted J/K Matrices <==

    J tasked:                   Yes
    K tasked:                   Yes
    wK tasked:                   No
    OpenMP threads:               4
    Memory [MiB]:             10728
    Algorithm:                 Core
    Schwarz Cutoff:           1E-12
    Mask sparsity (%):       0.0000
    Fitting Condition:        1E-10

   => Auxiliary Basis Set <=

  Basis Set: (AUG-CC-PVTZ AUX)
    Blend: AUG-CC-PVTZ-JKFIT
    Number of shells: 142
    Number of basis function: 488
    Number of Cartesian functions: 601
    Spherical Harmonics?: true
    Max angular momentum: 4

  Minimum eigenvalue in the overlap matrix is 6.8388790804E-05.
  Using Symmetric Orthogonalization.

  SCF Guess: Superposition of Atomic Densities via on-the-fly atomic UHF.

  ==> Iterations <==

                           Total Energy        Delta E     RMS |[F,P]|

   @DF-RHF iter SAD:  -957.79895695968264   -9.57799e+02   0.00000e+00 
   @DF-RHF iter   1:  -958.05052842827104   -2.51571e-01   1.05871e-03 DIIS
   @DF-RHF iter   2:  -958.07560228328555   -2.50739e-02   3.30470e-04 DIIS
   @DF-RHF iter   3:  -958.07825647055017   -2.65419e-03   1.38011e-04 DIIS
   @DF-RHF iter   4:  -958.07882459386633   -5.68123e-04   4.50455e-05 DIIS
   @DF-RHF iter   5:  -958.07889050302651   -6.59092e-05   9.85646e-06 DIIS
   @DF-RHF iter   6:  -958.07889609400638   -5.59098e-06   2.89464e-06 DIIS
   @DF-RHF iter   7:  -958.07889654571522   -4.51709e-07   7.92944e-07 DIIS
   @DF-RHF iter   8:  -958.07889657738883   -3.16736e-08   1.52693e-07 DIIS
   @DF-RHF iter   9:  -958.07889657845419   -1.06536e-09   3.19544e-08 DIIS
   @DF-RHF iter  10:  -958.07889657850023   -4.60432e-11   8.22604e-09 DIIS
  Energy and wave function converged.


  ==> Post-Iterations <==

    Orbital Energies [Eh]
    ---------------------

    Doubly Occupied:                                                      

       1A   -104.850720     2A   -104.850692     3A    -11.367252  
       4A    -10.575075     5A    -10.575056     6A     -8.041929  
       7A     -8.041912     8A     -8.039963     9A     -8.039945  
      10A     -8.039868    11A     -8.039850    12A     -1.192718  
      13A     -1.097642    14A     -0.895191    15A     -0.674241  
      16A     -0.616870    17A     -0.586140    18A     -0.474699  
      19A     -0.471017    20A     -0.449203    21A     -0.445847  

    Virtual:                                                              

      22A      0.029440    23A      0.042765    24A      0.064275  
      25A      0.066912    26A      0.113152    27A      0.114136  
      28A      0.120838    29A      0.132623    30A      0.132910  
      31A      0.133426    32A      0.145194    33A      0.161313  
      34A      0.187899    35A      0.205688    36A      0.231133  
      37A      0.234745    38A      0.266944    39A      0.269750  
      40A      0.273062    41A      0.322267    42A      0.324379  
      43A      0.327737    44A      0.353547    45A      0.360690  
      46A      0.373866    47A      0.386681    48A      0.411976  
      49A      0.422187    50A      0.434614    51A      0.434838  
      52A      0.455796    53A      0.456592    54A      0.464549  
      55A      0.491769    56A      0.502903    57A      0.516027  
      58A      0.519046    59A      0.553688    60A      0.554444  
      61A      0.695063    62A      0.697810    63A      0.698860  
      64A      0.722945    65A      0.750133    66A      0.766607  
      67A      0.778815    68A      0.823954    69A      0.837727  
      70A      0.841928    71A      0.848894    72A      0.872000  
      73A      0.893562    74A      0.897274    75A      0.898008  
      76A      0.914063    77A      0.937540    78A      0.947858  
      79A      0.954485    80A      0.970916    81A      1.005396  
      82A      1.022890    83A      1.041261    84A      1.043137  
      85A      1.067992    86A      1.086352    87A      1.088996  
      88A      1.098357    89A      1.115102    90A      1.117399  
      91A      1.131527    92A      1.144537    93A      1.200764  
      94A      1.226878    95A      1.253207    96A      1.260504  
      97A      1.298187    98A      1.355780    99A      1.366153  
     100A      1.401848   101A      1.458208   102A      1.495335  
     103A      1.508705   104A      1.542949   105A      1.551587  
     106A      1.567018   107A      1.616098   108A      1.685186  
     109A      1.716748   110A      1.724618   111A      1.725613  
     112A      1.734355   113A      1.752720   114A      1.760362  
     115A      1.822712   116A      1.840902   117A      1.910765  
     118A      1.924833   119A      1.932517   120A      1.937500  
     121A      1.943277   122A      2.024726   123A      2.099236  
     124A      2.138279   125A      2.206834   126A      2.450167  
     127A      2.579493   128A      2.592619   129A      2.596640  
     130A      2.634162   131A      2.647900   132A      2.654880  
     133A      2.665898   134A      2.701561   135A      2.710198  
     136A      2.732647   137A      2.884420   138A      2.931868  
     139A      2.936723   140A      2.972593   141A      3.029139  
     142A      3.043106   143A      3.052758   144A      3.058244  
     145A      3.076047   146A      3.107088   147A      3.108288  
     148A      3.150960   149A      3.168075   150A      3.186032  
     151A      3.188571   152A      3.193497   153A      3.206170  
     154A      3.254314   155A      3.292114   156A      3.309554  
     157A      3.409930   158A      3.443856   159A      3.595086  
     160A      3.597323   161A      3.606553   162A      3.642089  
     163A      3.727066   164A      3.748898   165A      3.905919  
     166A      3.918121   167A      3.977890   168A      4.052770  
     169A      4.087168   170A      4.180603   171A      4.193237  
     172A      4.245795   173A      4.343066   174A      4.378987  
     175A      4.529744   176A      4.690450   177A      4.718969  
     178A      4.794254   179A      4.908175   180A      4.945085  
     181A      4.970168   182A      5.164640   183A      5.256659  
     184A      5.312705   185A      5.341840   186A      5.726959  
     187A      5.774405   188A      5.911769   189A      6.568609  
     190A      7.340062   191A      7.688332   192A     15.535851  

    Final Occupation by Irrep:
              A 
    DOCC [    21 ]

  @DF-RHF Final Energy:  -958.07889657850023

   => Energetics <=

    Nuclear Repulsion Energy =            134.2248835993056275
    One-Electron Energy =               -1589.8759029880432081
    Two-Electron Energy =                 497.5721228102373175
    Total Energy =                       -958.0788965785002347

Computation Completed


Properties will be evaluated at  -1.857981,   2.344249,  -2.159886 [a0]

Properties computed using the SCF density matrix

  Nuclear Dipole Moment: [e a0]
     X:    -0.3400      Y:    -2.9618      Z:     0.0519

  Electronic Dipole Moment: [e a0]
     X:     0.2579      Y:     2.2474      Z:    -0.0394

  Dipole Moment: [e a0]
     X:    -0.0820      Y:    -0.7143      Z:     0.0125     Total:     0.7191

  Dipole Moment: [D]
     X:    -0.2085      Y:    -1.8157      Z:     0.0318     Total:     1.8279


*** tstop() called on node37.bme.utexas.edu at Tue Feb 22 18:22:23 2022
Module time:
	user time   =      14.52 seconds =       0.24 minutes
	system time =       0.88 seconds =       0.01 minutes
	total time  =          6 seconds =       0.10 minutes
Total time:
	user time   =      14.52 seconds =       0.24 minutes
	system time =       0.88 seconds =       0.01 minutes
	total time  =          6 seconds =       0.10 minutes

*** tstart() called on node37.bme.utexas.edu
*** at Tue Feb 22 18:22:23 2022


  //>>>>>>>>>>>>>>>>>>>>>>>>>>>>>>>>>>>//
  //               DFMP2               //
  //<<<<<<<<<<<<<<<<<<<<<<<<<<<<<<<<<<<//

   => Loading Basis Set <=

    Name: (AUG-CC-PVTZ AUX)
    Role: RIFIT
    Keyword: DF_BASIS_MP2
    atoms 1-2 entry CL         line   742 file /home/bdw2292/miniconda3/envs/amoebamdpoltype/share/psi4/basis/aug-cc-pvtz-ri.gbs 
    atoms 3   entry C          line   148 file /home/bdw2292/miniconda3/envs/amoebamdpoltype/share/psi4/basis/aug-cc-pvtz-ri.gbs 
    atoms 4-5 entry H          line    30 file /home/bdw2292/miniconda3/envs/amoebamdpoltype/share/psi4/basis/aug-cc-pvtz-ri.gbs 

	 --------------------------------------------------------
	                          DF-MP2                         
	      2nd-Order Density-Fitted Moller-Plesset Theory     
	              RMP2 Wavefunction,   4 Threads             
	                                                         
	        Rob Parrish, Justin Turney, Andy Simmonett,      
	           Ed Hohenstein, and C. David Sherrill          
	 --------------------------------------------------------

   => Auxiliary Basis Set <=

  Basis Set: (AUG-CC-PVTZ AUX)
    Blend: AUG-CC-PVTZ-RI
    Number of shells: 130
    Number of basis function: 492
    Number of Cartesian functions: 628
    Spherical Harmonics?: true
    Max angular momentum: 4

	 --------------------------------------------------------
	                 NBF =   192, NAUX =   492
	 --------------------------------------------------------
	   CLASS    FOCC     OCC    AOCC    AVIR     VIR    FVIR
	   PAIRS      11      21      10     171     171       0
	 --------------------------------------------------------

	-----------------------------------------------------------
	 ==================> DF-MP2 Energies <==================== 
	-----------------------------------------------------------
	 Reference Energy          =    -958.0788965785002347 [Eh]
	 Singles Energy            =      -0.0000000000000000 [Eh]
	 Same-Spin Energy          =      -0.1372550633797179 [Eh]
	 Opposite-Spin Energy      =      -0.4286502501445105 [Eh]
	 Correlation Energy        =      -0.5659053135242285 [Eh]
	 Total Energy              =    -958.6448018920244749 [Eh]
	-----------------------------------------------------------
	 ================> DF-SCS-MP2 Energies <================== 
	-----------------------------------------------------------
	 SCS Same-Spin Scale       =       0.3333333333333333 [-]
	 SCS Opposite-Spin Scale   =       1.2000000000000000 [-]
	 SCS Same-Spin Energy      =      -0.0457516877932393 [Eh]
	 SCS Opposite-Spin Energy  =      -0.5143803001734126 [Eh]
	 SCS Correlation Energy    =      -0.5601319879666520 [Eh]
	 SCS Total Energy          =    -958.6390285664668909 [Eh]
	-----------------------------------------------------------


*** tstop() called on node37.bme.utexas.edu at Tue Feb 22 18:22:25 2022
Module time:
	user time   =       5.04 seconds =       0.08 minutes
	system time =       0.31 seconds =       0.01 minutes
	total time  =          2 seconds =       0.03 minutes
Total time:
	user time   =      19.57 seconds =       0.33 minutes
	system time =       1.19 seconds =       0.02 minutes
	total time  =          8 seconds =       0.13 minutes

  //>>>>>>>>>>>>>>>>>>>>>>>>>>>>>>>>>>>>//
  // CBS Computation: MP2 / AUG-CC-PVQZ //
  //<<<<<<<<<<<<<<<<<<<<<<<<<<<<<<<<<<<<//

    SCF Algorithm Type (re)set to DF.

*** tstart() called on node37.bme.utexas.edu
*** at Tue Feb 22 18:22:25 2022

   => Loading Basis Set <=

    Name: AUG-CC-PVQZ
    Role: ORBITAL
    Keyword: BASIS
    atoms 1-2 entry CL         line  1218 file /home/bdw2292/miniconda3/envs/amoebamdpoltype/share/psi4/basis/aug-cc-pvqz.gbs 
    atoms 3   entry C          line   299 file /home/bdw2292/miniconda3/envs/amoebamdpoltype/share/psi4/basis/aug-cc-pvqz.gbs 
    atoms 4-5 entry H          line    36 file /home/bdw2292/miniconda3/envs/amoebamdpoltype/share/psi4/basis/aug-cc-pvqz.gbs 


         ---------------------------------------------------------
                                   SCF
               by Justin Turney, Rob Parrish, Andy Simmonett
                          and Daniel G. A. Smith
                              RHF Reference
                        4 Threads,  14305 MiB Core
         ---------------------------------------------------------

  ==> Geometry <==

    Molecular point group: c1
    Full point group: C1

    Geometry (in Angstrom), charge = 0, multiplicity = 1:

       Center              X                  Y                   Z               Mass       
    ------------   -----------------  -----------------  -----------------  -----------------
         CL          -2.427615388153     1.584506824403    -1.224915317577    34.968852682000
         CL           0.501811711847     1.249647124403    -1.067129517577    34.968852682000
         C           -1.074382688153     0.447918624403    -1.129272517577    12.000000000000
         H           -1.190052488153    -0.145268875597    -0.222655117577     1.007825032230
         H           -1.099345888153    -0.188189075597    -2.013920717577     1.007825032230

  Running in c1 symmetry.

  Rotational constants: A =      0.18511  B =      0.04174  C =      0.03505 [cm^-1]
  Rotational constants: A =   5549.54758  B =   1251.19157  C =   1050.72769 [MHz]
  Nuclear repulsion =  134.224883599305628

  Charge       = 0
  Multiplicity = 1
  Electrons    = 42
  Nalpha       = 21
  Nbeta        = 21

  ==> Algorithm <==

  SCF Algorithm Type is DF.
  DIIS enabled.
  MOM disabled.
  Fractional occupation disabled.
  Guess Type is SAD.
  Energy threshold   = 1.00e-08
  Density threshold  = 1.00e-08
  Integral threshold = 0.00e+00

  ==> Primary Basis <==

  Basis Set: AUG-CC-PVQZ
    Blend: AUG-CC-PVQZ
    Number of shells: 92
    Number of basis function: 340
    Number of Cartesian functions: 433
    Spherical Harmonics?: true
    Max angular momentum: 4

   => Loading Basis Set <=

    Name: (AUG-CC-PVQZ AUX)
    Role: JKFIT
    Keyword: DF_BASIS_SCF
    atoms 1-2 entry CL         line   904 file /home/bdw2292/miniconda3/envs/amoebamdpoltype/share/psi4/basis/aug-cc-pvqz-jkfit.gbs 
    atoms 3   entry C          line   178 file /home/bdw2292/miniconda3/envs/amoebamdpoltype/share/psi4/basis/aug-cc-pvqz-jkfit.gbs 
    atoms 4-5 entry H          line    70 file /home/bdw2292/miniconda3/envs/amoebamdpoltype/share/psi4/basis/aug-cc-pvqz-jkfit.gbs 

  ==> Pre-Iterations <==

   -------------------------------------------------------
    Irrep   Nso     Nmo     Nalpha   Nbeta   Ndocc  Nsocc
   -------------------------------------------------------
     A        340     340       0       0       0       0
   -------------------------------------------------------
    Total     340     340      21      21      21       0
   -------------------------------------------------------

  ==> Integral Setup <==

  DFHelper Memory: AOs need 0.604 GiB; user supplied 10.477 GiB. Using in-core AOs.

  ==> MemDFJK: Density-Fitted J/K Matrices <==

    J tasked:                   Yes
    K tasked:                   Yes
    wK tasked:                   No
    OpenMP threads:               4
    Memory [MiB]:             10728
    Algorithm:                 Core
    Schwarz Cutoff:           1E-12
    Mask sparsity (%):       0.1713
    Fitting Condition:        1E-10

   => Auxiliary Basis Set <=

  Basis Set: (AUG-CC-PVQZ AUX)
    Blend: AUG-CC-PVQZ-JKFIT
    Number of shells: 162
    Number of basis function: 662
    Number of Cartesian functions: 894
    Spherical Harmonics?: true
    Max angular momentum: 5

  Minimum eigenvalue in the overlap matrix is 1.4671018402E-05.
  Using Symmetric Orthogonalization.

  SCF Guess: Superposition of Atomic Densities via on-the-fly atomic UHF.

  ==> Iterations <==

                           Total Energy        Delta E     RMS |[F,P]|

   @DF-RHF iter SAD:  -957.80646603410787   -9.57806e+02   0.00000e+00 
   @DF-RHF iter   1:  -958.05972938157811   -2.53263e-01   6.37368e-04 DIIS
   @DF-RHF iter   2:  -958.08523453276734   -2.55052e-02   1.96604e-04 DIIS
   @DF-RHF iter   3:  -958.08793908579275   -2.70455e-03   7.78758e-05 DIIS
   @DF-RHF iter   4:  -958.08851977277811   -5.80687e-04   2.79358e-05 DIIS
   @DF-RHF iter   5:  -958.08859607341572   -7.63006e-05   6.09645e-06 DIIS
   @DF-RHF iter   6:  -958.08860259820744   -6.52479e-06   1.75429e-06 DIIS
   @DF-RHF iter   7:  -958.08860311449484   -5.16287e-07   5.05321e-07 DIIS
   @DF-RHF iter   8:  -958.08860315278196   -3.82871e-08   9.86663e-08 DIIS
   @DF-RHF iter   9:  -958.08860315413187   -1.34992e-09   2.16628e-08 DIIS
   @DF-RHF iter  10:  -958.08860315419179   -5.99130e-11   5.55473e-09 DIIS
  Energy and wave function converged.


  ==> Post-Iterations <==

    Orbital Energies [Eh]
    ---------------------

    Doubly Occupied:                                                      

       1A   -104.848454     2A   -104.848426     3A    -11.365403  
       4A    -10.574010     5A    -10.573991     6A     -8.041081  
       7A     -8.041063     8A     -8.039276     9A     -8.039258  
      10A     -8.039185    11A     -8.039166    12A     -1.192006  
      13A     -1.097136    14A     -0.894849    15A     -0.673927  
      16A     -0.616778    17A     -0.586102    18A     -0.474547  
      19A     -0.470873    20A     -0.449069    21A     -0.445713  

    Virtual:                                                              

      22A      0.026462    23A      0.038546    24A      0.054432  
      25A      0.056133    26A      0.095959    27A      0.097672  
      28A      0.099539    29A      0.103234    30A      0.110454  
      31A      0.116413    32A      0.127414    33A      0.138783  
      34A      0.163048    35A      0.179716    36A      0.196781  
      37A      0.200272    38A      0.233080    39A      0.235694  
      40A      0.237118    41A      0.260750    42A      0.262066  
      43A      0.265855    44A      0.294320    45A      0.298185  
      46A      0.299239    47A      0.305766    48A      0.319706  
      49A      0.335221    50A      0.341739    51A      0.347170  
      52A      0.350576    53A      0.354403    54A      0.359168  
      55A      0.371739    56A      0.388318    57A      0.396652  
      58A      0.397265    59A      0.415820    60A      0.449636  
      61A      0.506918    62A      0.529943    63A      0.536498  
      64A      0.552556    65A      0.553198    66A      0.569136  
      67A      0.585061    68A      0.591510    69A      0.597770  
      70A      0.603692    71A      0.615741    72A      0.647571  
      73A      0.649915    74A      0.674251    75A      0.674795  
      76A      0.678681    77A      0.716911    78A      0.725137  
      79A      0.728753    80A      0.730619    81A      0.764748  
      82A      0.776812    83A      0.777864    84A      0.779001  
      85A      0.794480    86A      0.828527    87A      0.829032  
      88A      0.831608    89A      0.844245    90A      0.861934  
      91A      0.872783    92A      0.918782    93A      0.920508  
      94A      0.935298    95A      0.939200    96A      0.976087  
      97A      0.992618    98A      1.026463    99A      1.033141  
     100A      1.057419   101A      1.066320   102A      1.093434  
     103A      1.114401   104A      1.126931   105A      1.131599  
     106A      1.135296   107A      1.159935   108A      1.170397  
     109A      1.184700   110A      1.208072   111A      1.212181  
     112A      1.230614   113A      1.234702   114A      1.257226  
     115A      1.267501   116A      1.278710   117A      1.306815  
     118A      1.313183   119A      1.333731   120A      1.410129  
     121A      1.416212   122A      1.482191   123A      1.484844  
     124A      1.530356   125A      1.606555   126A      1.629226  
     127A      1.678175   128A      1.707662   129A      1.718736  
     130A      1.741862   131A      1.741973   132A      1.766896  
     133A      1.770380   134A      1.775581   135A      1.808669  
     136A      1.813863   137A      1.822269   138A      1.854914  
     139A      1.862977   140A      1.865725   141A      1.902303  
     142A      1.902567   143A      1.907175   144A      1.926456  
     145A      1.956586   146A      1.963025   147A      1.979489  
     148A      1.991705   149A      1.994563   150A      2.011087  
     151A      2.019240   152A      2.040428   153A      2.059723  
     154A      2.065006   155A      2.070910   156A      2.084649  
     157A      2.102356   158A      2.110941   159A      2.124398  
     160A      2.141715   161A      2.150672   162A      2.151209  
     163A      2.161001   164A      2.197512   165A      2.199259  
     166A      2.209375   167A      2.242283   168A      2.247805  
     169A      2.250132   170A      2.260085   171A      2.270721  
     172A      2.299359   173A      2.301182   174A      2.340322  
     175A      2.344910   176A      2.356422   177A      2.413693  
     178A      2.418390   179A      2.423044   180A      2.437301  
     181A      2.451486   182A      2.465337   183A      2.472505  
     184A      2.495451   185A      2.498301   186A      2.552799  
     187A      2.601158   188A      2.613381   189A      2.630115  
     190A      2.631233   191A      2.742831   192A      2.752187  
     193A      2.806865   194A      2.814840   195A      2.891189  
     196A      2.892544   197A      2.893959   198A      2.898296  
     199A      2.986062   200A      3.014698   201A      3.031534  
     202A      3.086817   203A      3.112085   204A      3.151351  
     205A      3.193245   206A      3.207717   207A      3.302440  
     208A      3.316289   209A      3.352764   210A      3.355778  
     211A      3.452465   212A      3.475693   213A      3.517878  
     214A      3.563948   215A      3.612926   216A      3.706477  
     217A      3.708321   218A      3.743435   219A      3.744844  
     220A      3.811242   221A      3.901125   222A      3.920378  
     223A      3.945563   224A      4.015914   225A      4.075893  
     226A      4.144239   227A      4.193231   228A      4.200231  
     229A      4.344946   230A      4.370612   231A      4.387872  
     232A      4.463510   233A      4.481624   234A      4.505685  
     235A      4.541247   236A      4.542505   237A      4.568815  
     238A      4.679060   239A      4.681921   240A      4.682030  
     241A      4.686326   242A      4.721490   243A      4.724513  
     244A      4.725217   245A      4.741375   246A      4.752252  
     247A      4.763514   248A      4.764495   249A      4.794837  
     250A      4.800692   251A      4.805488   252A      4.839934  
     253A      4.846364   254A      4.856257   255A      4.894670  
     256A      4.902222   257A      4.919601   258A      4.932106  
     259A      4.942933   260A      4.953628   261A      4.983510  
     262A      5.041937   263A      5.046758   264A      5.058206  
     265A      5.081092   266A      5.170065   267A      5.194731  
     268A      5.209121   269A      5.245186   270A      5.290883  
     271A      5.385963   272A      5.404365   273A      5.405070  
     274A      5.505312   275A      5.646987   276A      6.306249  
     277A      6.346438   278A      6.353120   279A      6.372224  
     280A      6.388782   281A      6.532039   282A      6.567554  
     283A      6.609698   284A      6.655870   285A      6.731526  
     286A      6.769103   287A      6.811512   288A      6.817833  
     289A      6.830717   290A      6.869402   291A      6.942482  
     292A      6.944228   293A      6.984387   294A      7.000646  
     295A      7.026220   296A      7.144409   297A      7.170988  
     298A      7.220438   299A      7.350714   300A      7.430149  
     301A      7.449034   302A      7.569242   303A      7.586471  
     304A      7.612342   305A      7.666162   306A      7.712579  
     307A      7.757408   308A      7.808654   309A      8.011567  
     310A      8.090883   311A      8.119508   312A      8.316202  
     313A      8.500248   314A      8.537444   315A      8.585656  
     316A      8.719565   317A      8.807471   318A      8.868241  
     319A      8.935751   320A      9.126111   321A      9.212688  
     322A      9.426993   323A      9.464049   324A      9.498195  
     325A      9.505858   326A      9.540827   327A      9.772203  
     328A      9.931525   329A      9.951146   330A     10.311117  
     331A     10.391331   332A     10.583798   333A     10.758191  
     334A     10.773195   335A     11.061729   336A     13.005281  
     337A     13.088775   338A     25.965349   339A     26.588669  
     340A     27.887037  

    Final Occupation by Irrep:
              A 
    DOCC [    21 ]

  @DF-RHF Final Energy:  -958.08860315419179

   => Energetics <=

    Nuclear Repulsion Energy =            134.2248835993056275
    One-Electron Energy =               -1589.9263470068624429
    Two-Electron Energy =                 497.6128602533649428
    Total Energy =                       -958.0886031541917873

Computation Completed


Properties will be evaluated at  -1.857981,   2.344249,  -2.159886 [a0]

Properties computed using the SCF density matrix

  Nuclear Dipole Moment: [e a0]
     X:    -0.3400      Y:    -2.9618      Z:     0.0519

  Electronic Dipole Moment: [e a0]
     X:     0.2584      Y:     2.2517      Z:    -0.0394

  Dipole Moment: [e a0]
     X:    -0.0815      Y:    -0.7101      Z:     0.0124     Total:     0.7149

  Dipole Moment: [D]
     X:    -0.2072      Y:    -1.8049      Z:     0.0316     Total:     1.8170


*** tstop() called on node37.bme.utexas.edu at Tue Feb 22 18:22:42 2022
Module time:
	user time   =      40.91 seconds =       0.68 minutes
	system time =       2.43 seconds =       0.04 minutes
	total time  =         17 seconds =       0.28 minutes
Total time:
	user time   =      60.52 seconds =       1.01 minutes
	system time =       3.63 seconds =       0.06 minutes
	total time  =         25 seconds =       0.42 minutes

*** tstart() called on node37.bme.utexas.edu
*** at Tue Feb 22 18:22:42 2022


  //>>>>>>>>>>>>>>>>>>>>>>>>>>>>>>>>>>>//
  //               DFMP2               //
  //<<<<<<<<<<<<<<<<<<<<<<<<<<<<<<<<<<<//

   => Loading Basis Set <=

    Name: (AUG-CC-PVQZ AUX)
    Role: RIFIT
    Keyword: DF_BASIS_MP2
    atoms 1-2 entry CL         line   914 file /home/bdw2292/miniconda3/envs/amoebamdpoltype/share/psi4/basis/aug-cc-pvqz-ri.gbs 
    atoms 3   entry C          line   184 file /home/bdw2292/miniconda3/envs/amoebamdpoltype/share/psi4/basis/aug-cc-pvqz-ri.gbs 
    atoms 4-5 entry H          line    30 file /home/bdw2292/miniconda3/envs/amoebamdpoltype/share/psi4/basis/aug-cc-pvqz-ri.gbs 

	 --------------------------------------------------------
	                          DF-MP2                         
	      2nd-Order Density-Fitted Moller-Plesset Theory     
	              RMP2 Wavefunction,   4 Threads             
	                                                         
	        Rob Parrish, Justin Turney, Andy Simmonett,      
	           Ed Hohenstein, and C. David Sherrill          
	 --------------------------------------------------------

   => Auxiliary Basis Set <=

  Basis Set: (AUG-CC-PVQZ AUX)
    Blend: AUG-CC-PVQZ-RI
    Number of shells: 164
    Number of basis function: 716
    Number of Cartesian functions: 983
    Spherical Harmonics?: true
    Max angular momentum: 5

	 --------------------------------------------------------
	                 NBF =   340, NAUX =   716
	 --------------------------------------------------------
	   CLASS    FOCC     OCC    AOCC    AVIR     VIR    FVIR
	   PAIRS      11      21      10     319     319       0
	 --------------------------------------------------------

	-----------------------------------------------------------
	 ==================> DF-MP2 Energies <==================== 
	-----------------------------------------------------------
	 Reference Energy          =    -958.0886031541917873 [Eh]
	 Singles Energy            =      -0.0000000000000000 [Eh]
	 Same-Spin Energy          =      -0.1416202432279918 [Eh]
	 Opposite-Spin Energy      =      -0.4672537355586432 [Eh]
	 Correlation Energy        =      -0.6088739787866351 [Eh]
	 Total Energy              =    -958.6974771329784062 [Eh]
	-----------------------------------------------------------
	 ================> DF-SCS-MP2 Energies <================== 
	-----------------------------------------------------------
	 SCS Same-Spin Scale       =       0.3333333333333333 [-]
	 SCS Opposite-Spin Scale   =       1.2000000000000000 [-]
	 SCS Same-Spin Energy      =      -0.0472067477426639 [Eh]
	 SCS Opposite-Spin Energy  =      -0.5607044826703719 [Eh]
	 SCS Correlation Energy    =      -0.6079112304130359 [Eh]
	 SCS Total Energy          =    -958.6965143846048250 [Eh]
	-----------------------------------------------------------


*** tstop() called on node37.bme.utexas.edu at Tue Feb 22 18:22:48 2022
Module time:
	user time   =      14.60 seconds =       0.24 minutes
	system time =       1.00 seconds =       0.02 minutes
	total time  =          6 seconds =       0.10 minutes
Total time:
	user time   =      75.12 seconds =       1.25 minutes
	system time =       4.63 seconds =       0.08 minutes
	total time  =         31 seconds =       0.52 minutes

  //>>>>>>>>>>>>>>>>>>>>>>>>>>>>>>>>>>>//
  //  CBS Results: mp2/aug-cc-pV[TQ]Z  //
  //<<<<<<<<<<<<<<<<<<<<<<<<<<<<<<<<<<<//


   ==> HF <==

   HI-zeta (4) Energy:               -958.088603154192


   ==> Helgaker 2-point correlated extrapolation for method: MP2 <==

   LO-zeta (3) Energy:               -958.644801892024
   HI-zeta (4) Energy:               -958.697477132978
   Alpha (exponent) Value:             3.000000000000
   Extrapolated Energy:              -958.735915822323

   @Extrapolated MP2/(T,Q):          -958.735915822323



   ==> Helgaker 2-point correlated extrapolation for method: HF <==

   LO-zeta (3) Energy:               -958.078896578500
   HI-zeta (4) Energy:               -958.088603154192
   Alpha (exponent) Value:             3.000000000000
   Extrapolated Energy:              -958.095686331048

   @Extrapolated HF/(T,Q):           -958.095686331048


   ==> Components <==

  ---------------------------------------------------------------------------------------------------------
                          Method / Basis                      Rqd      Energy [Eh]   Variable
  ---------------------------------------------------------------------------------------------------------
                              hf / aug-cc-pvtz                  *    -958.07889658   HF TOTAL ENERGY
                             mp2 / aug-cc-pvtz                  *    -958.64480189   MP2 TOTAL ENERGY
                              hf / aug-cc-pvqz                  *    -958.08860315   HF TOTAL ENERGY
                             mp2 / aug-cc-pvqz                  *    -958.69747713   MP2 TOTAL ENERGY
  ---------------------------------------------------------------------------------------------------------

   ==> Stages <==

  ---------------------------------------------------------------------------------------------------------
      Stage               Method / Basis                       Wt      Energy [Eh]   Scheme
  ---------------------------------------------------------------------------------------------------------
        scf                   hf / aug-cc-pvqz                  1    -958.08860315   xtpl_highest_1
       corl                  mp2 / aug-cc-pv[tq]z               1    -958.73591582   corl_xtpl_helgaker_2
       corl                   hf / aug-cc-pv[tq]z              -1    -958.09568633   corl_xtpl_helgaker_2
  ---------------------------------------------------------------------------------------------------------

   ==> CBS <==

  ---------------------------------------------------------------------------------------------------------
      Stage               Method / Basis                               Energy [Eh]   Scheme
  ---------------------------------------------------------------------------------------------------------
        scf                   hf / aug-cc-pvqz                       -958.08860315   xtpl_highest_1
       corl                  mp2 / aug-cc-pv[tq]z                      -0.64022949   corl_xtpl_helgaker_2
      total                  CBS                                     -958.72883265   
  ---------------------------------------------------------------------------------------------------------
   => Loading Basis Set <=

    Name: DEF2-SVP
    Role: ORBITAL
    Keyword: BASIS
    atoms 1-2 entry CL         line   356 file /home/bdw2292/miniconda3/envs/amoebamdpoltype/share/psi4/basis/def2-svp.gbs 
    atoms 3   entry C          line    90 file /home/bdw2292/miniconda3/envs/amoebamdpoltype/share/psi4/basis/def2-svp.gbs 
    atoms 4-5 entry H          line    15 file /home/bdw2292/miniconda3/envs/amoebamdpoltype/share/psi4/basis/def2-svp.gbs 


       N-Body: Complex Energy (fragments = (2,), basis = (2,):  -958.72883264546704)

       N-Body: Computing complex (2/4) with fragments (2,) in the basis of fragments (1, 2).


  //>>>>>>>>>>>>>>>>>>>>>>>>>>>>>>>>>>>//
  //   CBS Setup: mp2/aug-cc-pV[TQ]Z   //
  //<<<<<<<<<<<<<<<<<<<<<<<<<<<<<<<<<<<//

    Naive listing of computations required.
             hf / aug-cc-pvqz              for  HF TOTAL ENERGY
            mp2 / aug-cc-pvtz              for  MP2 TOTAL ENERGY
            mp2 / aug-cc-pvqz              for  MP2 TOTAL ENERGY
             hf / aug-cc-pvtz              for  HF TOTAL ENERGY
             hf / aug-cc-pvqz              for  HF TOTAL ENERGY

    Enlightened listing of computations required.
            mp2 / aug-cc-pvtz              for  MP2 TOTAL ENERGY
            mp2 / aug-cc-pvqz              for  MP2 TOTAL ENERGY

    Full listing of computations to be obtained (required and bonus).
             hf / aug-cc-pvtz              for  HF TOTAL ENERGY
            mp2 / aug-cc-pvtz              for  MP2 TOTAL ENERGY
             hf / aug-cc-pvqz              for  HF TOTAL ENERGY
            mp2 / aug-cc-pvqz              for  MP2 TOTAL ENERGY

  //>>>>>>>>>>>>>>>>>>>>>>>>>>>>>>>>>>>>//
  // CBS Computation: MP2 / AUG-CC-PVTZ //
  //<<<<<<<<<<<<<<<<<<<<<<<<<<<<<<<<<<<<//

    SCF Algorithm Type (re)set to DF.

*** tstart() called on node37.bme.utexas.edu
*** at Tue Feb 22 18:22:50 2022

   => Loading Basis Set <=

    Name: AUG-CC-PVTZ
    Role: ORBITAL
    Keyword: BASIS
    atoms 1-2, 6-7  entry CL         line   984 file /home/bdw2292/miniconda3/envs/amoebamdpoltype/share/psi4/basis/aug-cc-pvtz.gbs 
    atoms 3, 8      entry C          line   235 file /home/bdw2292/miniconda3/envs/amoebamdpoltype/share/psi4/basis/aug-cc-pvtz.gbs 
    atoms 4-5, 9-10 entry H          line    36 file /home/bdw2292/miniconda3/envs/amoebamdpoltype/share/psi4/basis/aug-cc-pvtz.gbs 


         ---------------------------------------------------------
                                   SCF
               by Justin Turney, Rob Parrish, Andy Simmonett
                          and Daniel G. A. Smith
                              RHF Reference
                        4 Threads,  14305 MiB Core
         ---------------------------------------------------------

  ==> Geometry <==

    Molecular point group: c1
    Full point group: C1

    Geometry (in Angstrom), charge = 0, multiplicity = 1:

       Center              X                  Y                   Z               Mass       
    ------------   -----------------  -----------------  -----------------  -----------------
      Gh(CL)         -0.435083788153    -1.361589075597     1.576915582423    34.968852682000
      Gh(CL)          2.340749011847    -0.772388275597     0.753657782423    34.968852682000
      Gh(C)           1.119299911847    -2.019330975597     1.042548282423    12.000000000000
      Gh(H)           1.492118111847    -2.685827375597     1.820240182423     1.007825032230
      Gh(H)           0.961209411847    -2.564445875597     0.112108582423     1.007825032230
         CL          -2.427615388153     1.584506824403    -1.224915317577    34.968852682000
         CL           0.501811711847     1.249647124403    -1.067129517577    34.968852682000
         C           -1.074382688153     0.447918624403    -1.129272517577    12.000000000000
         H           -1.190052488153    -0.145268875597    -0.222655117577     1.007825032230
         H           -1.099345888153    -0.188189075597    -2.013920717577     1.007825032230

  Running in c1 symmetry.

  Rotational constants: A =      0.06886  B =      0.02256  C =      0.01756 [cm^-1]
  Rotational constants: A =   2064.42183  B =    676.31113  C =    526.31317 [MHz]
  Nuclear repulsion =  134.224883599305628

  Charge       = 0
  Multiplicity = 1
  Electrons    = 42
  Nalpha       = 21
  Nbeta        = 21

  ==> Algorithm <==

  SCF Algorithm Type is DF.
  DIIS enabled.
  MOM disabled.
  Fractional occupation disabled.
  Guess Type is SAD.
  Energy threshold   = 1.00e-08
  Density threshold  = 1.00e-08
  Integral threshold = 0.00e+00

  ==> Primary Basis <==

  Basis Set: AUG-CC-PVTZ
    Blend: AUG-CC-PVTZ
    Number of shells: 128
    Number of basis function: 384
    Number of Cartesian functions: 446
    Spherical Harmonics?: true
    Max angular momentum: 3

   => Loading Basis Set <=

    Name: (AUG-CC-PVTZ AUX)
    Role: JKFIT
    Keyword: DF_BASIS_SCF
    atoms 1-2, 6-7  entry CL         line   816 file /home/bdw2292/miniconda3/envs/amoebamdpoltype/share/psi4/basis/aug-cc-pvtz-jkfit.gbs 
    atoms 3, 8      entry C          line   162 file /home/bdw2292/miniconda3/envs/amoebamdpoltype/share/psi4/basis/aug-cc-pvtz-jkfit.gbs 
    atoms 4-5, 9-10 entry H          line    70 file /home/bdw2292/miniconda3/envs/amoebamdpoltype/share/psi4/basis/aug-cc-pvtz-jkfit.gbs 

  ==> Pre-Iterations <==

   -------------------------------------------------------
    Irrep   Nso     Nmo     Nalpha   Nbeta   Ndocc  Nsocc
   -------------------------------------------------------
     A        384     384       0       0       0       0
   -------------------------------------------------------
    Total     384     384      21      21      21       0
   -------------------------------------------------------

  ==> Integral Setup <==

  DFHelper Memory: AOs need 1.079 GiB; user supplied 10.477 GiB. Using in-core AOs.

  ==> MemDFJK: Density-Fitted J/K Matrices <==

    J tasked:                   Yes
    K tasked:                   Yes
    wK tasked:                   No
    OpenMP threads:               4
    Memory [MiB]:             10728
    Algorithm:                 Core
    Schwarz Cutoff:           1E-12
    Mask sparsity (%):       3.2254
    Fitting Condition:        1E-10

   => Auxiliary Basis Set <=

  Basis Set: (AUG-CC-PVTZ AUX)
    Blend: AUG-CC-PVTZ-JKFIT
    Number of shells: 284
    Number of basis function: 976
    Number of Cartesian functions: 1202
    Spherical Harmonics?: true
    Max angular momentum: 4

  Minimum eigenvalue in the overlap matrix is 4.0639651430E-05.
  Using Symmetric Orthogonalization.

  SCF Guess: Superposition of Atomic Densities via on-the-fly atomic UHF.

  ==> Iterations <==

                           Total Energy        Delta E     RMS |[F,P]|

   @DF-RHF iter SAD:  -957.79895788780948   -9.57799e+02   0.00000e+00 
   @DF-RHF iter   1:  -958.05060485206718   -2.51647e-01   5.29875e-04 DIIS
   @DF-RHF iter   2:  -958.07568644382059   -2.50816e-02   1.65354e-04 DIIS
   @DF-RHF iter   3:  -958.07834155106536   -2.65511e-03   6.90005e-05 DIIS
   @DF-RHF iter   4:  -958.07890981155128   -5.68260e-04   2.25533e-05 DIIS
   @DF-RHF iter   5:  -958.07897584181967   -6.60303e-05   4.93345e-06 DIIS
   @DF-RHF iter   6:  -958.07898144380238   -5.60198e-06   1.44865e-06 DIIS
   @DF-RHF iter   7:  -958.07898189640241   -4.52600e-07   3.97092e-07 DIIS
   @DF-RHF iter   8:  -958.07898192816219   -3.17598e-08   7.64981e-08 DIIS
   @DF-RHF iter   9:  -958.07898192923108   -1.06888e-09   1.60115e-08 DIIS
   @DF-RHF iter  10:  -958.07898192927485   -4.37694e-11   4.12785e-09 DIIS
  Energy and wave function converged.


  ==> Post-Iterations <==

    Orbital Energies [Eh]
    ---------------------

    Doubly Occupied:                                                      

       1A   -104.850781     2A   -104.850768     3A    -11.367213  
       4A    -10.575072     5A    -10.575038     6A     -8.041919  
       7A     -8.041890     8A     -8.039963     9A     -8.039925  
      10A     -8.039868    11A     -8.039832    12A     -1.192681  
      13A     -1.097607    14A     -0.895158    15A     -0.674208  
      16A     -0.616845    17A     -0.586113    18A     -0.474672  
      19A     -0.470996    20A     -0.449185    21A     -0.445820  

    Virtual:                                                              

      22A      0.020968    23A      0.035681    24A      0.044477  
      25A      0.051890    26A      0.058748    27A      0.071251  
      28A      0.080815    29A      0.094838    30A      0.098192  
      31A      0.100503    32A      0.109092    33A      0.121773  
      34A      0.126026    35A      0.131008    36A      0.136033  
      37A      0.139269    38A      0.143046    39A      0.147437  
      40A      0.154732    41A      0.163980    42A      0.168853  
      43A      0.173662    44A      0.175068    45A      0.187229  
      46A      0.196092    47A      0.203672    48A      0.207094  
      49A      0.218675    50A      0.255273    51A      0.261476  
      52A      0.268123    53A      0.274219    54A      0.286772  
      55A      0.289613    56A      0.302019    57A      0.309392  
      58A      0.318158    59A      0.323520    60A      0.328442  
      61A      0.338222    62A      0.341153    63A      0.351669  
      64A      0.360904    65A      0.367028    66A      0.372751  
      67A      0.388804    68A      0.392096    69A      0.398938  
      70A      0.404053    71A      0.413467    72A      0.422262  
      73A      0.431170    74A      0.436964    75A      0.439732  
      76A      0.450349    77A      0.454779    78A      0.461759  
      79A      0.467666    80A      0.478095    81A      0.499646  
      82A      0.504845    83A      0.506815    84A      0.519727  
      85A      0.526339    86A      0.532395    87A      0.544126  
      88A      0.545143    89A      0.554588    90A      0.572830  
      91A      0.580981    92A      0.599242    93A      0.603087  
      94A      0.620406    95A      0.625931    96A      0.628083  
      97A      0.640415    98A      0.652596    99A      0.671873  
     100A      0.680757   101A      0.695865   102A      0.701359  
     103A      0.715799   104A      0.725821   105A      0.735673  
     106A      0.739880   107A      0.759600   108A      0.770434  
     109A      0.772458   110A      0.787115   111A      0.790953  
     112A      0.804321   113A      0.815456   114A      0.830975  
     115A      0.844357   116A      0.860510   117A      0.876596  
     118A      0.885468   119A      0.893383   120A      0.904540  
     121A      0.911247   122A      0.921123   123A      0.933313  
     124A      0.940179   125A      0.961977   126A      0.984694  
     127A      0.998800   128A      1.006233   129A      1.021231  
     130A      1.033823   131A      1.042458   132A      1.045710  
     133A      1.059302   134A      1.065241   135A      1.069822  
     136A      1.077761   137A      1.089940   138A      1.101181  
     139A      1.104872   140A      1.113668   141A      1.118584  
     142A      1.129911   143A      1.135303   144A      1.153539  
     145A      1.156793   146A      1.165469   147A      1.180631  
     148A      1.182437   149A      1.196623   150A      1.200543  
     151A      1.217799   152A      1.229814   153A      1.251049  
     154A      1.255638   155A      1.263214   156A      1.272936  
     157A      1.289153   158A      1.303237   159A      1.314502  
     160A      1.329666   161A      1.353095   162A      1.371686  
     163A      1.376314   164A      1.385520   165A      1.395910  
     166A      1.408623   167A      1.416407   168A      1.424626  
     169A      1.429437   170A      1.434577   171A      1.447294  
     172A      1.465956   173A      1.474234   174A      1.494415  
     175A      1.506870   176A      1.508221   177A      1.524981  
     178A      1.528746   179A      1.540177   180A      1.546824  
     181A      1.555567   182A      1.570226   183A      1.584262  
     184A      1.588125   185A      1.606140   186A      1.624912  
     187A      1.637675   188A      1.642889   189A      1.661577  
     190A      1.676065   191A      1.680197   192A      1.689619  
     193A      1.703673   194A      1.719323   195A      1.738609  
     196A      1.747559   197A      1.762990   198A      1.769392  
     199A      1.792578   200A      1.793616   201A      1.814364  
     202A      1.837606   203A      1.845680   204A      1.870809  
     205A      1.882999   206A      1.889644   207A      1.895098  
     208A      1.920348   209A      1.937710   210A      1.945822  
     211A      1.975259   212A      2.000726   213A      2.008391  
     214A      2.024099   215A      2.034214   216A      2.046730  
     217A      2.064616   218A      2.073227   219A      2.091938  
     220A      2.108738   221A      2.111808   222A      2.127789  
     223A      2.147498   224A      2.180312   225A      2.219058  
     226A      2.231094   227A      2.243230   228A      2.264392  
     229A      2.290695   230A      2.298280   231A      2.310362  
     232A      2.406362   233A      2.462610   234A      2.497298  
     235A      2.533515   236A      2.563299   237A      2.588678  
     238A      2.612403   239A      2.626423   240A      2.630752  
     241A      2.647128   242A      2.676485   243A      2.693640  
     244A      2.719334   245A      2.724461   246A      2.729094  
     247A      2.748994   248A      2.766335   249A      2.780958  
     250A      2.831908   251A      2.930901   252A      2.981126  
     253A      3.002772   254A      3.040892   255A      3.055168  
     256A      3.080614   257A      3.084853   258A      3.094394  
     259A      3.131351   260A      3.146461   261A      3.151127  
     262A      3.174187   263A      3.196334   264A      3.207987  
     265A      3.218654   266A      3.242420   267A      3.291243  
     268A      3.322482   269A      3.343035   270A      3.352130  
     271A      3.388158   272A      3.446708   273A      3.483833  
     274A      3.627528   275A      3.650713   276A      3.667315  
     277A      3.708414   278A      3.777637   279A      3.814291  
     280A      3.847231   281A      3.878435   282A      3.937649  
     283A      3.950219   284A      3.957456   285A      3.973846  
     286A      3.981228   287A      3.991798   288A      4.009040  
     289A      4.032267   290A      4.047602   291A      4.052758  
     292A      4.073000   293A      4.088373   294A      4.102288  
     295A      4.116236   296A      4.140908   297A      4.156375  
     298A      4.189374   299A      4.193731   300A      4.202852  
     301A      4.208425   302A      4.227438   303A      4.240827  
     304A      4.268532   305A      4.290812   306A      4.304189  
     307A      4.347092   308A      4.362006   309A      4.375213  
     310A      4.391259   311A      4.404727   312A      4.448058  
     313A      4.512941   314A      4.521913   315A      4.548143  
     316A      4.561988   317A      4.577224   318A      4.584358  
     319A      4.669132   320A      4.692692   321A      4.717913  
     322A      4.746913   323A      4.754793   324A      4.763419  
     325A      4.779696   326A      4.786483   327A      4.822705  
     328A      4.824836   329A      4.843648   330A      4.870183  
     331A      4.880854   332A      4.890822   333A      4.924299  
     334A      4.944891   335A      4.988584   336A      5.006011  
     337A      5.022807   338A      5.044574   339A      5.121154  
     340A      5.145394   341A      5.185878   342A      5.208113  
     343A      5.223987   344A      5.278836   345A      5.313746  
     346A      5.342044   347A      5.358221   348A      5.379162  
     349A      5.413851   350A      5.439009   351A      5.465668  
     352A      5.533233   353A      5.656932   354A      5.828303  
     355A      5.883534   356A      5.896306   357A      5.933434  
     358A      5.995978   359A      6.071570   360A      6.098236  
     361A      6.291083   362A      6.307216   363A      6.483093  
     364A      6.618080   365A      7.030575   366A      7.508274  
     367A      7.741605   368A      7.855669   369A      7.878079  
     370A      7.993857   371A      8.194359   372A      9.970937  
     373A     16.234529   374A     16.470815   375A     16.804790  
     376A     28.092598   377A     28.115612   378A     28.268650  
     379A     28.406860   380A     28.888468   381A     29.207948  
     382A     49.060647   383A    161.021584   384A    161.060405  

    Final Occupation by Irrep:
              A 
    DOCC [    21 ]

  @DF-RHF Final Energy:  -958.07898192927485

   => Energetics <=

    Nuclear Repulsion Energy =            134.2248835993056275
    One-Electron Energy =               -1589.8766218163120811
    Two-Electron Energy =                 497.5727562877315222
    Total Energy =                       -958.0789819292748462

Computation Completed


Properties will be evaluated at  -0.000000,   0.000000,   0.000000 [a0]

Properties computed using the SCF density matrix

  Nuclear Dipole Moment: [e a0]
     X:   -78.3752      Y:    95.4967      Z:   -90.6633

  Electronic Dipole Moment: [e a0]
     X:    78.2932      Y:   -96.2106      Z:    90.6755

  Dipole Moment: [e a0]
     X:    -0.0819      Y:    -0.7139      Z:     0.0122     Total:     0.7187

  Dipole Moment: [D]
     X:    -0.2083      Y:    -1.8147      Z:     0.0310     Total:     1.8269


*** tstop() called on node37.bme.utexas.edu at Tue Feb 22 18:23:14 2022
Module time:
	user time   =      69.26 seconds =       1.15 minutes
	system time =       3.21 seconds =       0.05 minutes
	total time  =         24 seconds =       0.40 minutes
Total time:
	user time   =     146.42 seconds =       2.44 minutes
	system time =       7.89 seconds =       0.13 minutes
	total time  =         57 seconds =       0.95 minutes

*** tstart() called on node37.bme.utexas.edu
*** at Tue Feb 22 18:23:14 2022


  //>>>>>>>>>>>>>>>>>>>>>>>>>>>>>>>>>>>//
  //               DFMP2               //
  //<<<<<<<<<<<<<<<<<<<<<<<<<<<<<<<<<<<//

   => Loading Basis Set <=

    Name: (AUG-CC-PVTZ AUX)
    Role: RIFIT
    Keyword: DF_BASIS_MP2
    atoms 1-2, 6-7  entry CL         line   742 file /home/bdw2292/miniconda3/envs/amoebamdpoltype/share/psi4/basis/aug-cc-pvtz-ri.gbs 
    atoms 3, 8      entry C          line   148 file /home/bdw2292/miniconda3/envs/amoebamdpoltype/share/psi4/basis/aug-cc-pvtz-ri.gbs 
    atoms 4-5, 9-10 entry H          line    30 file /home/bdw2292/miniconda3/envs/amoebamdpoltype/share/psi4/basis/aug-cc-pvtz-ri.gbs 

	 --------------------------------------------------------
	                          DF-MP2                         
	      2nd-Order Density-Fitted Moller-Plesset Theory     
	              RMP2 Wavefunction,   4 Threads             
	                                                         
	        Rob Parrish, Justin Turney, Andy Simmonett,      
	           Ed Hohenstein, and C. David Sherrill          
	 --------------------------------------------------------

   => Auxiliary Basis Set <=

  Basis Set: (AUG-CC-PVTZ AUX)
    Blend: AUG-CC-PVTZ-RI
    Number of shells: 260
    Number of basis function: 984
    Number of Cartesian functions: 1256
    Spherical Harmonics?: true
    Max angular momentum: 4

	 --------------------------------------------------------
	                 NBF =   384, NAUX =   984
	 --------------------------------------------------------
	   CLASS    FOCC     OCC    AOCC    AVIR     VIR    FVIR
	   PAIRS      11      21      10     363     363       0
	 --------------------------------------------------------

	-----------------------------------------------------------
	 ==================> DF-MP2 Energies <==================== 
	-----------------------------------------------------------
	 Reference Energy          =    -958.0789819292748462 [Eh]
	 Singles Energy            =      -0.0000000000000000 [Eh]
	 Same-Spin Energy          =      -0.1373192199658430 [Eh]
	 Opposite-Spin Energy      =      -0.4291462661478526 [Eh]
	 Correlation Energy        =      -0.5664654861136955 [Eh]
	 Total Energy              =    -958.6454474153885030 [Eh]
	-----------------------------------------------------------
	 ================> DF-SCS-MP2 Energies <================== 
	-----------------------------------------------------------
	 SCS Same-Spin Scale       =       0.3333333333333333 [-]
	 SCS Opposite-Spin Scale   =       1.2000000000000000 [-]
	 SCS Same-Spin Energy      =      -0.0457730733219476 [Eh]
	 SCS Opposite-Spin Energy  =      -0.5149755193774231 [Eh]
	 SCS Correlation Energy    =      -0.5607485926993708 [Eh]
	 SCS Total Energy          =    -958.6397305219742293 [Eh]
	-----------------------------------------------------------


*** tstop() called on node37.bme.utexas.edu at Tue Feb 22 18:23:24 2022
Module time:
	user time   =      26.93 seconds =       0.45 minutes
	system time =       1.29 seconds =       0.02 minutes
	total time  =         10 seconds =       0.17 minutes
Total time:
	user time   =     173.36 seconds =       2.89 minutes
	system time =       9.18 seconds =       0.15 minutes
	total time  =         67 seconds =       1.12 minutes

  //>>>>>>>>>>>>>>>>>>>>>>>>>>>>>>>>>>>>//
  // CBS Computation: MP2 / AUG-CC-PVQZ //
  //<<<<<<<<<<<<<<<<<<<<<<<<<<<<<<<<<<<<//

    SCF Algorithm Type (re)set to DF.

*** tstart() called on node37.bme.utexas.edu
*** at Tue Feb 22 18:23:25 2022

   => Loading Basis Set <=

    Name: AUG-CC-PVQZ
    Role: ORBITAL
    Keyword: BASIS
    atoms 1-2, 6-7  entry CL         line  1218 file /home/bdw2292/miniconda3/envs/amoebamdpoltype/share/psi4/basis/aug-cc-pvqz.gbs 
    atoms 3, 8      entry C          line   299 file /home/bdw2292/miniconda3/envs/amoebamdpoltype/share/psi4/basis/aug-cc-pvqz.gbs 
    atoms 4-5, 9-10 entry H          line    36 file /home/bdw2292/miniconda3/envs/amoebamdpoltype/share/psi4/basis/aug-cc-pvqz.gbs 


         ---------------------------------------------------------
                                   SCF
               by Justin Turney, Rob Parrish, Andy Simmonett
                          and Daniel G. A. Smith
                              RHF Reference
                        4 Threads,  14305 MiB Core
         ---------------------------------------------------------

  ==> Geometry <==

    Molecular point group: c1
    Full point group: C1

    Geometry (in Angstrom), charge = 0, multiplicity = 1:

       Center              X                  Y                   Z               Mass       
    ------------   -----------------  -----------------  -----------------  -----------------
      Gh(CL)         -0.435083788153    -1.361589075597     1.576915582423    34.968852682000
      Gh(CL)          2.340749011847    -0.772388275597     0.753657782423    34.968852682000
      Gh(C)           1.119299911847    -2.019330975597     1.042548282423    12.000000000000
      Gh(H)           1.492118111847    -2.685827375597     1.820240182423     1.007825032230
      Gh(H)           0.961209411847    -2.564445875597     0.112108582423     1.007825032230
         CL          -2.427615388153     1.584506824403    -1.224915317577    34.968852682000
         CL           0.501811711847     1.249647124403    -1.067129517577    34.968852682000
         C           -1.074382688153     0.447918624403    -1.129272517577    12.000000000000
         H           -1.190052488153    -0.145268875597    -0.222655117577     1.007825032230
         H           -1.099345888153    -0.188189075597    -2.013920717577     1.007825032230

  Running in c1 symmetry.

  Rotational constants: A =      0.06886  B =      0.02256  C =      0.01756 [cm^-1]
  Rotational constants: A =   2064.42183  B =    676.31113  C =    526.31317 [MHz]
  Nuclear repulsion =  134.224883599305628

  Charge       = 0
  Multiplicity = 1
  Electrons    = 42
  Nalpha       = 21
  Nbeta        = 21

  ==> Algorithm <==

  SCF Algorithm Type is DF.
  DIIS enabled.
  MOM disabled.
  Fractional occupation disabled.
  Guess Type is SAD.
  Energy threshold   = 1.00e-08
  Density threshold  = 1.00e-08
  Integral threshold = 0.00e+00

  ==> Primary Basis <==

  Basis Set: AUG-CC-PVQZ
    Blend: AUG-CC-PVQZ
    Number of shells: 184
    Number of basis function: 680
    Number of Cartesian functions: 866
    Spherical Harmonics?: true
    Max angular momentum: 4

   => Loading Basis Set <=

    Name: (AUG-CC-PVQZ AUX)
    Role: JKFIT
    Keyword: DF_BASIS_SCF
    atoms 1-2, 6-7  entry CL         line   904 file /home/bdw2292/miniconda3/envs/amoebamdpoltype/share/psi4/basis/aug-cc-pvqz-jkfit.gbs 
    atoms 3, 8      entry C          line   178 file /home/bdw2292/miniconda3/envs/amoebamdpoltype/share/psi4/basis/aug-cc-pvqz-jkfit.gbs 
    atoms 4-5, 9-10 entry H          line    70 file /home/bdw2292/miniconda3/envs/amoebamdpoltype/share/psi4/basis/aug-cc-pvqz-jkfit.gbs 

  ==> Pre-Iterations <==

   -------------------------------------------------------
    Irrep   Nso     Nmo     Nalpha   Nbeta   Ndocc  Nsocc
   -------------------------------------------------------
     A        680     680       0       0       0       0
   -------------------------------------------------------
    Total     680     680      21      21      21       0
   -------------------------------------------------------

  ==> Integral Setup <==

  DFHelper Memory: AOs need 4.391 GiB; user supplied 10.477 GiB. Using in-core AOs.

  ==> MemDFJK: Density-Fitted J/K Matrices <==

    J tasked:                   Yes
    K tasked:                   Yes
    wK tasked:                   No
    OpenMP threads:               4
    Memory [MiB]:             10728
    Algorithm:                 Disk
    Schwarz Cutoff:           1E-12
    Mask sparsity (%):       6.8227
    Fitting Condition:        1E-10

   => Auxiliary Basis Set <=

  Basis Set: (AUG-CC-PVQZ AUX)
    Blend: AUG-CC-PVQZ-JKFIT
    Number of shells: 324
    Number of basis function: 1324
    Number of Cartesian functions: 1788
    Spherical Harmonics?: true
    Max angular momentum: 5

  Minimum eigenvalue in the overlap matrix is 8.0936890961E-06.
  Using Symmetric Orthogonalization.

  SCF Guess: Superposition of Atomic Densities via on-the-fly atomic UHF.

  ==> Iterations <==

                           Total Energy        Delta E     RMS |[F,P]|

   @DF-RHF iter SAD:  -957.80646622584254   -9.57806e+02   0.00000e+00 
   @DF-RHF iter   1:  -958.05975171564910   -2.53285e-01   3.18737e-04 DIIS
   @DF-RHF iter   2:  -958.08525879916874   -2.55071e-02   9.83160e-05 DIIS
   @DF-RHF iter   3:  -958.08796355220261   -2.70475e-03   3.89385e-05 DIIS
   @DF-RHF iter   4:  -958.08854427508732   -5.80723e-04   1.39715e-05 DIIS
   @DF-RHF iter   5:  -958.08862060123852   -7.63262e-05   3.04894e-06 DIIS
   @DF-RHF iter   6:  -958.08862712768359   -6.52645e-06   8.77394e-07 DIIS
   @DF-RHF iter   7:  -958.08862764422338   -5.16540e-07   2.52758e-07 DIIS
   @DF-RHF iter   8:  -958.08862768252345   -3.83001e-08   4.93656e-08 DIIS
   @DF-RHF iter   9:  -958.08862768388155   -1.35810e-09   1.08411e-08 DIIS
   @DF-RHF iter  10:  -958.08862768394181   -6.02540e-11   2.77977e-09 DIIS
  Energy and wave function converged.


  ==> Post-Iterations <==

    Orbital Energies [Eh]
    ---------------------

    Doubly Occupied:                                                      

       1A   -104.848460     2A   -104.848431     3A    -11.365398  
       4A    -10.574007     5A    -10.573987     6A     -8.041080  
       7A     -8.041061     8A     -8.039274     9A     -8.039255  
      10A     -8.039182    11A     -8.039163    12A     -1.191998  
      13A     -1.097129    14A     -0.894843    15A     -0.673921  
      16A     -0.616773    17A     -0.586098    18A     -0.474542  
      19A     -0.470869    20A     -0.449066    21A     -0.445709  

    Virtual:                                                              

      22A      0.018917    23A      0.032188    24A      0.039654  
      25A      0.045503    26A      0.052353    27A      0.061662  
      28A      0.069743    29A      0.082914    30A      0.085488  
      31A      0.087188    32A      0.089514    33A      0.105819  
      34A      0.108168    35A      0.111068    36A      0.115443  
      37A      0.117195    38A      0.122844    39A      0.126853  
      40A      0.134931    41A      0.139230    42A      0.145519  
      43A      0.149516    44A      0.151449    45A      0.162736  
      46A      0.170962    47A      0.173810    48A      0.177497  
      49A      0.189275    50A      0.217553    51A      0.226074  
      52A      0.229568    53A      0.234934    54A      0.238569  
      55A      0.250487    56A      0.254260    57A      0.258130  
      58A      0.265614    59A      0.266297    60A      0.270747  
      61A      0.280753    62A      0.283138    63A      0.291871  
      64A      0.292785    65A      0.296237    66A      0.304636  
      67A      0.315811    68A      0.320174    69A      0.326990  
      70A      0.332959    71A      0.337210    72A      0.342322  
      73A      0.344055    74A      0.345734    75A      0.351146  
      76A      0.355033    77A      0.355392    78A      0.361993  
      79A      0.376829    80A      0.383959    81A      0.384565  
      82A      0.391540    83A      0.396555    84A      0.407943  
      85A      0.411613    86A      0.419797    87A      0.424764  
      88A      0.431344    89A      0.441281    90A      0.449083  
      91A      0.456190    92A      0.467796    93A      0.469353  
      94A      0.482666    95A      0.491230    96A      0.498685  
      97A      0.508013    98A      0.511974    99A      0.517366  
     100A      0.527210   101A      0.542208   102A      0.549033  
     103A      0.560346   104A      0.564571   105A      0.565717  
     106A      0.571572   107A      0.581361   108A      0.585450  
     109A      0.591121   110A      0.600402   111A      0.608650  
     112A      0.615885   113A      0.624990   114A      0.630000  
     115A      0.638761   116A      0.645901   117A      0.656397  
     118A      0.663422   119A      0.668776   120A      0.677833  
     121A      0.681792   122A      0.696544   123A      0.702847  
     124A      0.704511   125A      0.723438   126A      0.733557  
     127A      0.735630   128A      0.742144   129A      0.750281  
     130A      0.760113   131A      0.772386   132A      0.774284  
     133A      0.791295   134A      0.795343   135A      0.806917  
     136A      0.813600   137A      0.823789   138A      0.829963  
     139A      0.831277   140A      0.844786   141A      0.847705  
     142A      0.860126   143A      0.869339   144A      0.874235  
     145A      0.883016   146A      0.889036   147A      0.900583  
     148A      0.904963   149A      0.911829   150A      0.924871  
     151A      0.934811   152A      0.939705   153A      0.947475  
     154A      0.949919   155A      0.958695   156A      0.972212  
     157A      0.982645   158A      0.988356   159A      0.998633  
     160A      1.006144   161A      1.007001   162A      1.019330  
     163A      1.023706   164A      1.034599   165A      1.053920  
     166A      1.055690   167A      1.060213   168A      1.065064  
     169A      1.076626   170A      1.079045   171A      1.083876  
     172A      1.088708   173A      1.096713   174A      1.104801  
     175A      1.109484   176A      1.121121   177A      1.126086  
     178A      1.127282   179A      1.142694   180A      1.146810  
     181A      1.151618   182A      1.161653   183A      1.167507  
     184A      1.177301   185A      1.187267   186A      1.194084  
     187A      1.197734   188A      1.204611   189A      1.215685  
     190A      1.221049   191A      1.236882   192A      1.241237  
     193A      1.246429   194A      1.252280   195A      1.256260  
     196A      1.274082   197A      1.277391   198A      1.284324  
     199A      1.290320   200A      1.292282   201A      1.306717  
     202A      1.330793   203A      1.338438   204A      1.356182  
     205A      1.365630   206A      1.375851   207A      1.395652  
     208A      1.400580   209A      1.414782   210A      1.417287  
     211A      1.433969   212A      1.460670   213A      1.471625  
     214A      1.479746   215A      1.497089   216A      1.504575  
     217A      1.513240   218A      1.532949   219A      1.551501  
     220A      1.558300   221A      1.577164   222A      1.596001  
     223A      1.603080   224A      1.608382   225A      1.608768  
     226A      1.614280   227A      1.628881   228A      1.648865  
     229A      1.652210   230A      1.668410   231A      1.688580  
     232A      1.703207   233A      1.732478   234A      1.745682  
     235A      1.750632   236A      1.768849   237A      1.782642  
     238A      1.796736   239A      1.799841   240A      1.813645  
     241A      1.826892   242A      1.831468   243A      1.840585  
     244A      1.850751   245A      1.863847   246A      1.874969  
     247A      1.881863   248A      1.894254   249A      1.901040  
     250A      1.912705   251A      1.916538   252A      1.923755  
     253A      1.936791   254A      1.943574   255A      1.947395  
     256A      1.958211   257A      1.959764   258A      1.969615  
     259A      1.973934   260A      1.990787   261A      2.005636  
     262A      2.017398   263A      2.024716   264A      2.029116  
     265A      2.039929   266A      2.047520   267A      2.055461  
     268A      2.066364   269A      2.075244   270A      2.084227  
     271A      2.088089   272A      2.097124   273A      2.104065  
     274A      2.107999   275A      2.112993   276A      2.121019  
     277A      2.141296   278A      2.148913   279A      2.149957  
     280A      2.152886   281A      2.158707   282A      2.169345  
     283A      2.178308   284A      2.188605   285A      2.197801  
     286A      2.207484   287A      2.213558   288A      2.218597  
     289A      2.231054   290A      2.239653   291A      2.245819  
     292A      2.248050   293A      2.263791   294A      2.271248  
     295A      2.279412   296A      2.296456   297A      2.301867  
     298A      2.311774   299A      2.322338   300A      2.329594  
     301A      2.336057   302A      2.346526   303A      2.356339  
     304A      2.359638   305A      2.362990   306A      2.369152  
     307A      2.374057   308A      2.387830   309A      2.396853  
     310A      2.405834   311A      2.423828   312A      2.429201  
     313A      2.443691   314A      2.449249   315A      2.462789  
     316A      2.465639   317A      2.470385   318A      2.486892  
     319A      2.499742   320A      2.503128   321A      2.509709  
     322A      2.522482   323A      2.531814   324A      2.539926  
     325A      2.550735   326A      2.562398   327A      2.569435  
     328A      2.579420   329A      2.598931   330A      2.603651  
     331A      2.609075   332A      2.615248   333A      2.632974  
     334A      2.634759   335A      2.642838   336A      2.658068  
     337A      2.666063   338A      2.669232   339A      2.689910  
     340A      2.709384   341A      2.710935   342A      2.727444  
     343A      2.734964   344A      2.748455   345A      2.767286  
     346A      2.777281   347A      2.789585   348A      2.804189  
     349A      2.812203   350A      2.818039   351A      2.824105  
     352A      2.838987   353A      2.847166   354A      2.868866  
     355A      2.879506   356A      2.891971   357A      2.902948  
     358A      2.926507   359A      2.928302   360A      2.952694  
     361A      2.964651   362A      2.974340   363A      2.992070  
     364A      2.998970   365A      3.015633   366A      3.036683  
     367A      3.046622   368A      3.066753   369A      3.080902  
     370A      3.088960   371A      3.103643   372A      3.119958  
     373A      3.129015   374A      3.136372   375A      3.159974  
     376A      3.165646   377A      3.186918   378A      3.214955  
     379A      3.222051   380A      3.235087   381A      3.258432  
     382A      3.271838   383A      3.279940   384A      3.317009  
     385A      3.333699   386A      3.354064   387A      3.367994  
     388A      3.368685   389A      3.393386   390A      3.407282  
     391A      3.423837   392A      3.436687   393A      3.447932  
     394A      3.459605   395A      3.466120   396A      3.472730  
     397A      3.506990   398A      3.520292   399A      3.528244  
     400A      3.552264   401A      3.559464   402A      3.581886  
     403A      3.611834   404A      3.635474   405A      3.655666  
     406A      3.673189   407A      3.682320   408A      3.706489  
     409A      3.738602   410A      3.756256   411A      3.776677  
     412A      3.790622   413A      3.813721   414A      3.823056  
     415A      3.847655   416A      3.873192   417A      3.902509  
     418A      3.908333   419A      3.921776   420A      3.941509  
     421A      3.958828   422A      3.987097   423A      3.994832  
     424A      4.019674   425A      4.076772   426A      4.117875  
     427A      4.139659   428A      4.149448   429A      4.177661  
     430A      4.185277   431A      4.192117   432A      4.246715  
     433A      4.263532   434A      4.310957   435A      4.315569  
     436A      4.337881   437A      4.397689   438A      4.442212  
     439A      4.454742   440A      4.463171   441A      4.476400  
     442A      4.489385   443A      4.508747   444A      4.524478  
     445A      4.567470   446A      4.568251   447A      4.600277  
     448A      4.637182   449A      4.668250   450A      4.695901  
     451A      4.713335   452A      4.719848   453A      4.737504  
     454A      4.751215   455A      4.754217   456A      4.765763  
     457A      4.768001   458A      4.770423   459A      4.786218  
     460A      4.803638   461A      4.809672   462A      4.841835  
     463A      4.865348   464A      4.876561   465A      4.885623  
     466A      4.892813   467A      4.916471   468A      4.918775  
     469A      4.929516   470A      4.946647   471A      4.959528  
     472A      4.965633   473A      4.981452   474A      4.990875  
     475A      4.999123   476A      5.009615   477A      5.023960  
     478A      5.039342   479A      5.070263   480A      5.100979  
     481A      5.113868   482A      5.122697   483A      5.149469  
     484A      5.190323   485A      5.218930   486A      5.244980  
     487A      5.261914   488A      5.280445   489A      5.314635  
     490A      5.325161   491A      5.420857   492A      5.437830  
     493A      5.450554   494A      5.482955   495A      5.513293  
     496A      5.560490   497A      5.570479   498A      5.594627  
     499A      5.616942   500A      5.631125   501A      5.639923  
     502A      5.693763   503A      5.708792   504A      5.719878  
     505A      5.754259   506A      5.786686   507A      5.814665  
     508A      5.879349   509A      5.903393   510A      5.925456  
     511A      5.962418   512A      6.025720   513A      6.072564  
     514A      6.120759   515A      6.188121   516A      6.353000  
     517A      6.379058   518A      6.390483   519A      6.398829  
     520A      6.415881   521A      6.437518   522A      6.442318  
     523A      6.454563   524A      6.476809   525A      6.488332  
     526A      6.491798   527A      6.502790   528A      6.541324  
     529A      6.551040   530A      6.567115   531A      6.592878  
     532A      6.617546   533A      6.624222   534A      6.639084  
     535A      6.674320   536A      6.680561   537A      6.728947  
     538A      6.804543   539A      6.817748   540A      6.869765  
     541A      6.883440   542A      6.899878   543A      6.917172  
     544A      6.929861   545A      6.942902   546A      7.005566  
     547A      7.023611   548A      7.047682   549A      7.061353  
     550A      7.073243   551A      7.076790   552A      7.090132  
     553A      7.112513   554A      7.149579   555A      7.163029  
[...]
     217A      1.251768   218A      1.256286   219A      1.262320  
     220A      1.268667   221A      1.276836   222A      1.280208  
     223A      1.286925   224A      1.297999   225A      1.309939  
     226A      1.326012   227A      1.335490   228A      1.342321  
     229A      1.353722   230A      1.369869   231A      1.372405  
     232A      1.378240   233A      1.387189   234A      1.393887  
     235A      1.410747   236A      1.416087   237A      1.437231  
     238A      1.458141   239A      1.459304   240A      1.467512  
     241A      1.488400   242A      1.497882   243A      1.511774  
     244A      1.534990   245A      1.557028   246A      1.600807  
     247A      1.626773   248A      1.629316   249A      1.641905  
     250A      1.649940   251A      1.668170   252A      1.680500  
     253A      1.699941   254A      1.709265   255A      1.734472  
     256A      1.743201   257A      1.745155   258A      1.764867  
     259A      1.769636   260A      1.784483   261A      1.791231  
     262A      1.796122   263A      1.807408   264A      1.816522  
     265A      1.827355   266A      1.830594   267A      1.851875  
     268A      1.854470   269A      1.863696   270A      1.872500  
     271A      1.880423   272A      1.886084   273A      1.895637  
     274A      1.906396   275A      1.909517   276A      1.916377  
     277A      1.936462   278A      1.937434   279A      1.945352  
     280A      1.952611   281A      1.960863   282A      1.965005  
     283A      1.969193   284A      1.972630   285A      1.984436  
     286A      1.988753   287A      1.994797   288A      2.005308  
     289A      2.016332   290A      2.023086   291A      2.031939  
     292A      2.038272   293A      2.041422   294A      2.045286  
     295A      2.054965   296A      2.066584   297A      2.069650  
     298A      2.082016   299A      2.084143   300A      2.109301  
     301A      2.114162   302A      2.116688   303A      2.121839  
     304A      2.126668   305A      2.135832   306A      2.141472  
     307A      2.147921   308A      2.149249   309A      2.154569  
     310A      2.165355   311A      2.170648   312A      2.178582  
     313A      2.188383   314A      2.190641   315A      2.201178  
     316A      2.208312   317A      2.210508   318A      2.226252  
     319A      2.232018   320A      2.236019   321A      2.244330  
     322A      2.254100   323A      2.258930   324A      2.269548  
     325A      2.271182   326A      2.276899   327A      2.284557  
     328A      2.293089   329A      2.299902   330A      2.303166  
     331A      2.321276   332A      2.322982   333A      2.335388  
     334A      2.340464   335A      2.341381   336A      2.352189  
     337A      2.353354   338A      2.365387   339A      2.368608  
     340A      2.381320   341A      2.390782   342A      2.401144  
     343A      2.421096   344A      2.422327   345A      2.427065  
     346A      2.434974   347A      2.443149   348A      2.445669  
     349A      2.457320   350A      2.462819   351A      2.465017  
     352A      2.477005   353A      2.484246   354A      2.490786  
     355A      2.497023   356A      2.508743   357A      2.519347  
     358A      2.527405   359A      2.536502   360A      2.553323  
     361A      2.560849   362A      2.570845   363A      2.582434  
     364A      2.586622   365A      2.598030   366A      2.604805  
     367A      2.626951   368A      2.638987   369A      2.646430  
     370A      2.653692   371A      2.664721   372A      2.687195  
     373A      2.689762   374A      2.711782   375A      2.723147  
     376A      2.741621   377A      2.768745   378A      2.796336  
     379A      2.800393   380A      2.827778   381A      2.845079  
     382A      2.847745   383A      2.876551   384A      2.886480  
     385A      2.900301   386A      2.910863   387A      2.915152  
     388A      2.929217   389A      2.949241   390A      2.951919  
     391A      2.963870   392A      2.974838   393A      2.992074  
     394A      3.014251   395A      3.035509   396A      3.042634  
     397A      3.069339   398A      3.086387   399A      3.100626  
     400A      3.115790   401A      3.141103   402A      3.150742  
     403A      3.162054   404A      3.178541   405A      3.193883  
     406A      3.224343   407A      3.231633   408A      3.250681  
     409A      3.266053   410A      3.280711   411A      3.311926  
     412A      3.358992   413A      3.378476   414A      3.385067  
     415A      3.392306   416A      3.416701   417A      3.432824  
     418A      3.443003   419A      3.489951   420A      3.508499  
     421A      3.518331   422A      3.537299   423A      3.545140  
     424A      3.555317   425A      3.570364   426A      3.583480  
     427A      3.618330   428A      3.635474   429A      3.682732  
     430A      3.729563   431A      3.742197   432A      3.761374  
     433A      3.781716   434A      3.787963   435A      3.818959  
     436A      3.821885   437A      3.864493   438A      3.899611  
     439A      3.902808   440A      3.921213   441A      3.940310  
     442A      3.953625   443A      3.973765   444A      4.024428  
     445A      4.029933   446A      4.034461   447A      4.098983  
     448A      4.122064   449A      4.152435   450A      4.175409  
     451A      4.204350   452A      4.229917   453A      4.245943  
     454A      4.286907   455A      4.300883   456A      4.352663  
     457A      4.402602   458A      4.414291   459A      4.428423  
     460A      4.459983   461A      4.472493   462A      4.483140  
     463A      4.505641   464A      4.527896   465A      4.533668  
     466A      4.548407   467A      4.573681   468A      4.575066  
     469A      4.590715   470A      4.610039   471A      4.638211  
     472A      4.659416   473A      4.681345   474A      4.693824  
     475A      4.699903   476A      4.701545   477A      4.709206  
     478A      4.715144   479A      4.723133   480A      4.730594  
     481A      4.742075   482A      4.749475   483A      4.758730  
     484A      4.761993   485A      4.771794   486A      4.776541  
     487A      4.779978   488A      4.794909   489A      4.808981  
     490A      4.815749   491A      4.832576   492A      4.845990  
     493A      4.849106   494A      4.856164   495A      4.862741  
     496A      4.871381   497A      4.876159   498A      4.891782  
     499A      4.894350   500A      4.907755   501A      4.912224  
     502A      4.929300   503A      4.937547   504A      4.945144  
     505A      4.946400   506A      4.961809   507A      4.965269  
     508A      4.968768   509A      4.971330   510A      4.987028  
     511A      5.000039   512A      5.005847   513A      5.023442  
     514A      5.037108   515A      5.049649   516A      5.054674  
     517A      5.065479   518A      5.073993   519A      5.079758  
     520A      5.087318   521A      5.102549   522A      5.122030  
     523A      5.137382   524A      5.151934   525A      5.157888  
     526A      5.177382   527A      5.186794   528A      5.197002  
     529A      5.218162   530A      5.235160   531A      5.239171  
     532A      5.260851   533A      5.287500   534A      5.306832  
     535A      5.318715   536A      5.336844   537A      5.344698  
     538A      5.367110   539A      5.408006   540A      5.421252  
     541A      5.428975   542A      5.451424   543A      5.469147  
     544A      5.483082   545A      5.503932   546A      5.526382  
     547A      5.560499   548A      5.640117   549A      5.676220  
     550A      5.737169   551A      6.332262   552A      6.347013  
     553A      6.354174   554A      6.384544   555A      6.396474  
     556A      6.412866   557A      6.447894   558A      6.469254  
     559A      6.479290   560A      6.520746   561A      6.559752  
     562A      6.605651   563A      6.609040   564A      6.631502  
     565A      6.639483   566A      6.670590   567A      6.682447  
     568A      6.717388   569A      6.765789   570A      6.783459  
     571A      6.815715   572A      6.837891   573A      6.842783  
     574A      6.856635   575A      6.880032   576A      6.886494  
     577A      6.909932   578A      6.913364   579A      6.934869  
     580A      6.942241   581A      6.956412   582A      7.008328  
     583A      7.023786   584A      7.032333   585A      7.037437  
     586A      7.056952   587A      7.059412   588A      7.086357  
     589A      7.103610   590A      7.176559   591A      7.182494  
     592A      7.205941   593A      7.227419   594A      7.257473  
     595A      7.269712   596A      7.298746   597A      7.388586  
     598A      7.406768   599A      7.468863   600A      7.489088  
     601A      7.509644   602A      7.557706   603A      7.592397  
     604A      7.609339   605A      7.652235   606A      7.679786  
     607A      7.707714   608A      7.710964   609A      7.720444  
     610A      7.750028   611A      7.760955   612A      7.773961  
     613A      7.783448   614A      7.820055   615A      7.856852  
     616A      7.966081   617A      8.051076   618A      8.075933  
     619A      8.110994   620A      8.125647   621A      8.151156  
     622A      8.189710   623A      8.343672   624A      8.381586  
     625A      8.533534   626A      8.559692   627A      8.589350  
     628A      8.611505   629A      8.620988   630A      8.722878  
     631A      8.767659   632A      8.782118   633A      8.822871  
     634A      8.879550   635A      8.901793   636A      8.909004  
     637A      9.001016   638A      9.100116   639A      9.166087  
     640A      9.215382   641A      9.220958   642A      9.292139  
     643A      9.444851   644A      9.482912   645A      9.489761  
     646A      9.531575   647A      9.549103   648A      9.566781  
     649A      9.573525   650A      9.615358   651A      9.639698  
     652A      9.684995   653A      9.790516   654A      9.833890  
     655A      9.958765   656A      9.985864   657A     10.029192  
     658A     10.051154   659A     10.327124   660A     10.343906  
     661A     10.389414   662A     10.429748   663A     10.588901  
     664A     10.619482   665A     10.789514   666A     10.798080  
     667A     10.822110   668A     10.898641   669A     11.068770  
     670A     11.091474   671A     13.057443   672A     13.096367  
     673A     13.159615   674A     13.225409   675A     26.238822  
     676A     26.464284   677A     26.907914   678A     27.054447  
     679A     28.025074   680A     28.055426  

    Final Occupation by Irrep:
              A 
    DOCC [    42 ]

  @DF-RHF Final Energy: -1916.16435651410734

   => Energetics <=

    Nuclear Repulsion Energy =            494.8166926251361133
    One-Electron Energy =               -3632.6706366957150749
    Two-Electron Energy =                1221.6895875564716789
    Total Energy =                      -1916.1643565141073395

Computation Completed


Properties will be evaluated at  -0.000000,   0.000000,   0.000000 [a0]

Properties computed using the SCF density matrix

  Nuclear Dipole Moment: [e a0]
     X:     0.1721      Y:    -5.8755      Z:    -0.3205

  Electronic Dipole Moment: [e a0]
     X:     0.0218      Y:     4.4209      Z:     0.3729

  Dipole Moment: [e a0]
     X:     0.1939      Y:    -1.4547      Z:     0.0525     Total:     1.4685

  Dipole Moment: [D]
     X:     0.4928      Y:    -3.6974      Z:     0.1333     Total:     3.7325


*** tstop() called on node37.bme.utexas.edu at Tue Feb 22 18:37:06 2022
Module time:
	user time   =     404.91 seconds =       6.75 minutes
	system time =      79.02 seconds =       1.32 minutes
	total time  =        202 seconds =       3.37 minutes
Total time:
	user time   =    1821.98 seconds =      30.37 minutes
	system time =     268.99 seconds =       4.48 minutes
	total time  =        889 seconds =      14.82 minutes

*** tstart() called on node37.bme.utexas.edu
*** at Tue Feb 22 18:37:06 2022


  //>>>>>>>>>>>>>>>>>>>>>>>>>>>>>>>>>>>//
  //               DFMP2               //
  //<<<<<<<<<<<<<<<<<<<<<<<<<<<<<<<<<<<//

   => Loading Basis Set <=

    Name: (AUG-CC-PVQZ AUX)
    Role: RIFIT
    Keyword: DF_BASIS_MP2
    atoms 1-2, 6-7  entry CL         line   914 file /home/bdw2292/miniconda3/envs/amoebamdpoltype/share/psi4/basis/aug-cc-pvqz-ri.gbs 
    atoms 3, 8      entry C          line   184 file /home/bdw2292/miniconda3/envs/amoebamdpoltype/share/psi4/basis/aug-cc-pvqz-ri.gbs 
    atoms 4-5, 9-10 entry H          line    30 file /home/bdw2292/miniconda3/envs/amoebamdpoltype/share/psi4/basis/aug-cc-pvqz-ri.gbs 

	 --------------------------------------------------------
	                          DF-MP2                         
	      2nd-Order Density-Fitted Moller-Plesset Theory     
	              RMP2 Wavefunction,   4 Threads             
	                                                         
	        Rob Parrish, Justin Turney, Andy Simmonett,      
	           Ed Hohenstein, and C. David Sherrill          
	 --------------------------------------------------------

   => Auxiliary Basis Set <=

  Basis Set: (AUG-CC-PVQZ AUX)
    Blend: AUG-CC-PVQZ-RI
    Number of shells: 328
    Number of basis function: 1432
    Number of Cartesian functions: 1966
    Spherical Harmonics?: true
    Max angular momentum: 5

	 --------------------------------------------------------
	                 NBF =   680, NAUX =  1432
	 --------------------------------------------------------
	   CLASS    FOCC     OCC    AOCC    AVIR     VIR    FVIR
	   PAIRS      22      42      20     638     638       0
	 --------------------------------------------------------

	-----------------------------------------------------------
	 ==================> DF-MP2 Energies <==================== 
	-----------------------------------------------------------
	 Reference Energy          =   -1916.1643565141073395 [Eh]
	 Singles Energy            =      -0.0000000000000000 [Eh]
	 Same-Spin Energy          =      -0.2885453381849384 [Eh]
	 Opposite-Spin Energy      =      -0.9406282598372345 [Eh]
	 Correlation Energy        =      -1.2291735980221730 [Eh]
	 Total Energy              =   -1917.3935301121296106 [Eh]
	-----------------------------------------------------------
	 ================> DF-SCS-MP2 Energies <================== 
	-----------------------------------------------------------
	 SCS Same-Spin Scale       =       0.3333333333333333 [-]
	 SCS Opposite-Spin Scale   =       1.2000000000000000 [-]
	 SCS Same-Spin Energy      =      -0.0961817793949795 [Eh]
	 SCS Opposite-Spin Energy  =      -1.1287539118046814 [Eh]
	 SCS Correlation Energy    =      -1.2249356911996609 [Eh]
	 SCS Total Energy          =   -1917.3892922053069015 [Eh]
	-----------------------------------------------------------


*** tstop() called on node37.bme.utexas.edu at Tue Feb 22 18:37:49 2022
Module time:
	user time   =     118.40 seconds =       1.97 minutes
	system time =       6.76 seconds =       0.11 minutes
	total time  =         43 seconds =       0.72 minutes
Total time:
	user time   =    1940.38 seconds =      32.34 minutes
	system time =     275.75 seconds =       4.60 minutes
	total time  =        932 seconds =      15.53 minutes

  //>>>>>>>>>>>>>>>>>>>>>>>>>>>>>>>>>>>//
  //  CBS Results: mp2/aug-cc-pV[TQ]Z  //
  //<<<<<<<<<<<<<<<<<<<<<<<<<<<<<<<<<<<//


   ==> HF <==

   HI-zeta (4) Energy:               -1916.164356514107


   ==> Helgaker 2-point correlated extrapolation for method: MP2 <==

   LO-zeta (3) Energy:               -1917.288422326202
   HI-zeta (4) Energy:               -1917.393530112130
   Alpha (exponent) Value:             3.000000000000
   Extrapolated Energy:              -1917.470230388347

   @Extrapolated MP2/(T,Q):          -1917.470230388347



   ==> Helgaker 2-point correlated extrapolation for method: HF <==

   LO-zeta (3) Energy:               -1916.145086654327
   HI-zeta (4) Energy:               -1916.164356514107
   Alpha (exponent) Value:             3.000000000000
   Extrapolated Energy:              -1916.178418303677

   @Extrapolated HF/(T,Q):           -1916.178418303677


   ==> Components <==

  ---------------------------------------------------------------------------------------------------------
                          Method / Basis                      Rqd      Energy [Eh]   Variable
  ---------------------------------------------------------------------------------------------------------
                              hf / aug-cc-pvtz                  *   -1916.14508665   HF TOTAL ENERGY
                             mp2 / aug-cc-pvtz                  *   -1917.28842233   MP2 TOTAL ENERGY
                              hf / aug-cc-pvqz                  *   -1916.16435651   HF TOTAL ENERGY
                             mp2 / aug-cc-pvqz                  *   -1917.39353011   MP2 TOTAL ENERGY
  ---------------------------------------------------------------------------------------------------------

   ==> Stages <==

  ---------------------------------------------------------------------------------------------------------
      Stage               Method / Basis                       Wt      Energy [Eh]   Scheme
  ---------------------------------------------------------------------------------------------------------
        scf                   hf / aug-cc-pvqz                  1   -1916.16435651   xtpl_highest_1
       corl                  mp2 / aug-cc-pv[tq]z               1   -1917.47023039   corl_xtpl_helgaker_2
       corl                   hf / aug-cc-pv[tq]z              -1   -1916.17841830   corl_xtpl_helgaker_2
  ---------------------------------------------------------------------------------------------------------

   ==> CBS <==

  ---------------------------------------------------------------------------------------------------------
      Stage               Method / Basis                               Energy [Eh]   Scheme
  ---------------------------------------------------------------------------------------------------------
        scf                   hf / aug-cc-pvqz                      -1916.16435651   xtpl_highest_1
       corl                  mp2 / aug-cc-pv[tq]z                      -1.29181208   corl_xtpl_helgaker_2
      total                  CBS                                    -1917.45616860   
  ---------------------------------------------------------------------------------------------------------
   => Loading Basis Set <=

    Name: DEF2-SVP
    Role: ORBITAL
    Keyword: BASIS
    atoms 1-2, 6-7  entry CL         line   356 file /home/bdw2292/miniconda3/envs/amoebamdpoltype/share/psi4/basis/def2-svp.gbs 
    atoms 3, 8      entry C          line    90 file /home/bdw2292/miniconda3/envs/amoebamdpoltype/share/psi4/basis/def2-svp.gbs 
    atoms 4-5, 9-10 entry H          line    15 file /home/bdw2292/miniconda3/envs/amoebamdpoltype/share/psi4/basis/def2-svp.gbs 


       N-Body: Complex Energy (fragments = (1, 2), basis = (1, 2): -1917.45616859877782)

   ==> N-Body: Counterpoise Corrected (CP) energies <==

   n-Body     Total Energy [Eh]       I.E. [kcal/mol]      Delta [kcal/mol]
        1    -1917.457641960390        0.000000000000        0.000000000000
        2    -1917.455884862657        1.102595473484        1.102595473484

   => Loading Basis Set <=

    Name: DEF2-SVP
    Role: ORBITAL
    Keyword: BASIS
    atoms 1-2, 6-7  entry CL         line   356 file /home/bdw2292/miniconda3/envs/amoebamdpoltype/share/psi4/basis/def2-svp.gbs 
    atoms 3, 8      entry C          line    90 file /home/bdw2292/miniconda3/envs/amoebamdpoltype/share/psi4/basis/def2-svp.gbs 
    atoms 4-5, 9-10 entry H          line    15 file /home/bdw2292/miniconda3/envs/amoebamdpoltype/share/psi4/basis/def2-svp.gbs 

CP Energy =   0.001757
    Psi4 stopped on: Tuesday, 22 February 2022 06:37PM
    Psi4 wall time for execution: 0:15:34.25

*** Psi4 exiting successfully. Buy a developer a beer!
