
    -----------------------------------------------------------------------
          Psi4: An Open-Source Ab Initio Electronic Structure Package
                               Psi4 1.3.2 release

                         Git: Rev {HEAD} ecbda83 


    R. M. Parrish, L. A. Burns, D. G. A. Smith, A. C. Simmonett,
    A. E. DePrince III, E. G. Hohenstein, U. Bozkaya, A. Yu. Sokolov,
    R. Di Remigio, R. M. Richard, J. F. Gonthier, A. M. James,
    H. R. McAlexander, A. Kumar, M. Saitow, X. Wang, B. P. Pritchard,
    P. Verma, H. F. Schaefer III, K. Patkowski, R. A. King, E. F. Valeev,
    F. A. Evangelista, J. M. Turney, T. D. Crawford, and C. D. Sherrill,
    J. Chem. Theory Comput. 13(7) pp 3185--3197 (2017).
    (doi: 10.1021/acs.jctc.7b00174)


                         Additional Contributions by
    P. Kraus, H. Kruse, M. H. Lechner, M. C. Schieber, R. A. Shaw,
    A. Alenaizan, R. Galvelis, Z. L. Glick, S. Lehtola, and J. P. Misiewicz

    -----------------------------------------------------------------------


    Psi4 started on: Tuesday, 22 February 2022 05:54PM

    Process ID: 26872
    Host:       node37.bme.utexas.edu
    PSIDATADIR: /home/bdw2292/miniconda3/envs/amoebamdpoltype/share/psi4
    Memory:     500.0 MiB
    Threads:    1
    
  ==> Input File <==

--------------------------------------------------------------------------
molecule { 
0 1
 Cl                 -0.8869533     0.6775213    -0.2883658
 Cl                  1.9056014    -0.2292421     0.0374276
  C                  0.1983835    -0.6935655    -0.0102364
  H                 -0.0561714    -1.1445283     0.9490648
  H                  0.0635140    -1.4078627    -0.8227287
--
0 1
  O                 -4.5896782    -0.5662275     0.2828378
  H                 -4.5618399    -1.4835237     0.5533222
  H                 -3.6915503    -0.2617558     0.1460113
}
memory 15GB
set_num_threads(4)
psi4_io.set_default_path("/scratch/bdw2292/Psi4-CH2Cl2")
set maxiter 500
set freeze_core True
set PROPERTIES_ORIGIN ["COM"]
e_dim= energy('mp2/aug-cc-pV[TQ]Z',bsse_type='cp')

psi4.print_out('CP Energy = %10.6f' % (e_dim))
clean()
--------------------------------------------------------------------------

  Memory set to  13.970 GiB by Python driver.
  Threads set to 4 by Python driver.


   ===> N-Body Interaction Abacus <===
        BSSE Treatment:                     cp
        Number of 1-body computations:     4
        Number of 2-body computations:     1

   ==> N-Body: Now computing 1-body complexes <==


       N-Body: Computing complex (1/4) with fragments (2,) in the basis of fragments (2,).


  //>>>>>>>>>>>>>>>>>>>>>>>>>>>>>>>>>>>//
  //   CBS Setup: mp2/aug-cc-pV[TQ]Z   //
  //<<<<<<<<<<<<<<<<<<<<<<<<<<<<<<<<<<<//

    Naive listing of computations required.
             hf / aug-cc-pvqz              for  HF TOTAL ENERGY
            mp2 / aug-cc-pvtz              for  MP2 TOTAL ENERGY
            mp2 / aug-cc-pvqz              for  MP2 TOTAL ENERGY
             hf / aug-cc-pvtz              for  HF TOTAL ENERGY
             hf / aug-cc-pvqz              for  HF TOTAL ENERGY

    Enlightened listing of computations required.
            mp2 / aug-cc-pvtz              for  MP2 TOTAL ENERGY
            mp2 / aug-cc-pvqz              for  MP2 TOTAL ENERGY

    Full listing of computations to be obtained (required and bonus).
             hf / aug-cc-pvtz              for  HF TOTAL ENERGY
            mp2 / aug-cc-pvtz              for  MP2 TOTAL ENERGY
             hf / aug-cc-pvqz              for  HF TOTAL ENERGY
            mp2 / aug-cc-pvqz              for  MP2 TOTAL ENERGY

  //>>>>>>>>>>>>>>>>>>>>>>>>>>>>>>>>>>>>//
  // CBS Computation: MP2 / AUG-CC-PVTZ //
  //<<<<<<<<<<<<<<<<<<<<<<<<<<<<<<<<<<<<//

    SCF Algorithm Type (re)set to DF.

*** tstart() called on node37.bme.utexas.edu
*** at Tue Feb 22 17:54:18 2022

   => Loading Basis Set <=

    Name: AUG-CC-PVTZ
    Role: ORBITAL
    Keyword: BASIS
    atoms 1   entry O          line   327 file /home/bdw2292/miniconda3/envs/amoebamdpoltype/share/psi4/basis/aug-cc-pvtz.gbs 
    atoms 2-3 entry H          line    36 file /home/bdw2292/miniconda3/envs/amoebamdpoltype/share/psi4/basis/aug-cc-pvtz.gbs 


         ---------------------------------------------------------
                                   SCF
               by Justin Turney, Rob Parrish, Andy Simmonett
                          and Daniel G. A. Smith
                              RHF Reference
                        4 Threads,  14305 MiB Core
         ---------------------------------------------------------

  ==> Geometry <==

    Molecular point group: c1
    Full point group: C1

    Geometry (in Angstrom), charge = 0, multiplicity = 1:

       Center              X                  Y                   Z               Mass       
    ------------   -----------------  -----------------  -----------------  -----------------
         O           -4.160893913003    -0.507039533158     0.317573231815    15.994914619570
         H           -4.133055613003    -1.424335733158     0.588057631815     1.007825032230
         H           -3.262766013003    -0.202567833158     0.180746731815     1.007825032230

  Running in c1 symmetry.

  Rotational constants: A =     18.41246  B =      0.05401  C =      0.05385 [cm^-1]
  Rotational constants: A = 551991.70479  B =   1619.06494  C =   1614.33085 [MHz]
  Nuclear repulsion =    9.183549419938334

  Charge       = 0
  Multiplicity = 1
  Electrons    = 10
  Nalpha       = 5
  Nbeta        = 5

  ==> Algorithm <==

  SCF Algorithm Type is DF.
  DIIS enabled.
  MOM disabled.
  Fractional occupation disabled.
  Guess Type is SAD.
  Energy threshold   = 1.00e-08
  Density threshold  = 1.00e-08
  Integral threshold = 0.00e+00

  ==> Primary Basis <==

  Basis Set: AUG-CC-PVTZ
    Blend: AUG-CC-PVTZ
    Number of shells: 32
    Number of basis function: 92
    Number of Cartesian functions: 105
    Spherical Harmonics?: true
    Max angular momentum: 3

   => Loading Basis Set <=

    Name: (AUG-CC-PVTZ AUX)
    Role: JKFIT
    Keyword: DF_BASIS_SCF
    atoms 1   entry O          line   286 file /home/bdw2292/miniconda3/envs/amoebamdpoltype/share/psi4/basis/aug-cc-pvtz-jkfit.gbs 
    atoms 2-3 entry H          line    70 file /home/bdw2292/miniconda3/envs/amoebamdpoltype/share/psi4/basis/aug-cc-pvtz-jkfit.gbs 

  ==> Pre-Iterations <==

   -------------------------------------------------------
    Irrep   Nso     Nmo     Nalpha   Nbeta   Ndocc  Nsocc
   -------------------------------------------------------
     A         92      92       0       0       0       0
   -------------------------------------------------------
    Total      92      92       5       5       5       0
   -------------------------------------------------------

  ==> Integral Setup <==

  DFHelper Memory: AOs need 0.015 GiB; user supplied 10.477 GiB. Using in-core AOs.

  ==> MemDFJK: Density-Fitted J/K Matrices <==

    J tasked:                   Yes
    K tasked:                   Yes
    wK tasked:                   No
    OpenMP threads:               4
    Memory [MiB]:             10728
    Algorithm:                 Core
    Schwarz Cutoff:           1E-12
    Mask sparsity (%):       0.0000
    Fitting Condition:        1E-10

   => Auxiliary Basis Set <=

  Basis Set: (AUG-CC-PVTZ AUX)
    Blend: AUG-CC-PVTZ-JKFIT
    Number of shells: 58
    Number of basis function: 196
    Number of Cartesian functions: 241
    Spherical Harmonics?: true
    Max angular momentum: 4

  Minimum eigenvalue in the overlap matrix is 3.7696855630E-04.
  Using Symmetric Orthogonalization.

  SCF Guess: Superposition of Atomic Densities via on-the-fly atomic UHF.

  ==> Iterations <==

                           Total Energy        Delta E     RMS |[F,P]|

   @DF-RHF iter SAD:   -75.47387600943514   -7.54739e+01   0.00000e+00 
   @DF-RHF iter   1:   -75.97658269735913   -5.02707e-01   5.09412e-03 DIIS
   @DF-RHF iter   2:   -76.02899485080758   -5.24122e-02   3.45149e-03 DIIS
   @DF-RHF iter   3:   -76.06000841697875   -3.10136e-02   2.34381e-04 DIIS
   @DF-RHF iter   4:   -76.06039813272403   -3.89716e-04   5.59659e-05 DIIS
   @DF-RHF iter   5:   -76.06042208264290   -2.39499e-05   1.25977e-05 DIIS
   @DF-RHF iter   6:   -76.06042403922325   -1.95658e-06   2.80550e-06 DIIS
   @DF-RHF iter   7:   -76.06042414722009   -1.07997e-07   5.30923e-07 DIIS
   @DF-RHF iter   8:   -76.06042415065222   -3.43213e-09   8.80110e-08 DIIS
   @DF-RHF iter   9:   -76.06042415072666   -7.44365e-11   2.18741e-08 DIIS
   @DF-RHF iter  10:   -76.06042415073065   -3.99325e-12   2.97649e-09 DIIS
  Energy and wave function converged.


  ==> Post-Iterations <==

    Orbital Energies [Eh]
    ---------------------

    Doubly Occupied:                                                      

       1A    -20.565430     2A     -1.350658     3A     -0.725324  
       4A     -0.577088     5A     -0.509148  

    Virtual:                                                              

       6A      0.029679     7A      0.047437     8A      0.136497  
       9A      0.157839    10A      0.174238    11A      0.182007  
      12A      0.228888    13A      0.244440    14A      0.263801  
      15A      0.304859    16A      0.313317    17A      0.365211  
      18A      0.437949    19A      0.466805    20A      0.602324  
      21A      0.654132    22A      0.711218    23A      0.719195  
      24A      0.731217    25A      0.827933    26A      0.843707  
      27A      0.889963    28A      0.912886    29A      0.920576  
      30A      0.924087    31A      0.927864    32A      0.971608  
      33A      1.023028    34A      1.045366    35A      1.085227  
      36A      1.114322    37A      1.172616    38A      1.177229  
      39A      1.259606    40A      1.514620    41A      1.564381  
      42A      1.596294    43A      1.783925    44A      1.796969  
      45A      2.004029    46A      2.115877    47A      2.259545  
      48A      2.318730    49A      2.320813    50A      2.413003  
      51A      2.414273    52A      2.438374    53A      2.471222  
      54A      2.687223    55A      2.703424    56A      2.768061  
      57A      2.858528    58A      2.883781    59A      3.644955  
      60A      3.770442    61A      4.007106    62A      4.090375  
      63A      4.212840    64A      4.230782    65A      4.337209  
      66A      4.382085    67A      4.400515    68A      4.418239  
      69A      4.492518    70A      4.707022    71A      4.811259  
      72A      5.124455    73A      5.173405    74A      5.308002  
      75A      5.330297    76A      5.513076    77A      5.723445  
      78A      6.138333    79A      6.535010    80A      6.713264  
      81A      6.857411    82A      7.146639    83A      7.262937  
      84A      7.297712    85A      7.307542    86A      7.371305  
      87A      7.390775    88A      7.559371    89A      7.896397  
      90A      7.966059    91A      8.788588    92A     15.864469  

    Final Occupation by Irrep:
              A 
    DOCC [     5 ]

  @DF-RHF Final Energy:   -76.06042415073065

   => Energetics <=

    Nuclear Repulsion Energy =              9.1835494199383341
    One-Electron Energy =                -123.0326529551714003
    Two-Electron Energy =                  37.7886793845024158
    Total Energy =                        -76.0604241507306540

Computation Completed


Properties will be evaluated at  -7.765034,  -1.022969,   0.614260 [a0]

Properties computed using the SCF density matrix

  Nuclear Dipole Moment: [e a0]
     X:     0.7707      Y:    -0.5100      Z:     0.1112

  Electronic Dipole Moment: [e a0]
     X:    -0.1469      Y:     0.0970      Z:    -0.0211

  Dipole Moment: [e a0]
     X:     0.6238      Y:    -0.4131      Z:     0.0901     Total:     0.7535

  Dipole Moment: [D]
     X:     1.5854      Y:    -1.0499      Z:     0.2290     Total:     1.9153


*** tstop() called on node37.bme.utexas.edu at Tue Feb 22 17:54:21 2022
Module time:
	user time   =       5.78 seconds =       0.10 minutes
	system time =       0.43 seconds =       0.01 minutes
	total time  =          3 seconds =       0.05 minutes
Total time:
	user time   =       5.78 seconds =       0.10 minutes
	system time =       0.43 seconds =       0.01 minutes
	total time  =          3 seconds =       0.05 minutes

*** tstart() called on node37.bme.utexas.edu
*** at Tue Feb 22 17:54:21 2022


  //>>>>>>>>>>>>>>>>>>>>>>>>>>>>>>>>>>>//
  //               DFMP2               //
  //<<<<<<<<<<<<<<<<<<<<<<<<<<<<<<<<<<<//

   => Loading Basis Set <=

    Name: (AUG-CC-PVTZ AUX)
    Role: RIFIT
    Keyword: DF_BASIS_MP2
    atoms 1   entry O          line   264 file /home/bdw2292/miniconda3/envs/amoebamdpoltype/share/psi4/basis/aug-cc-pvtz-ri.gbs 
    atoms 2-3 entry H          line    30 file /home/bdw2292/miniconda3/envs/amoebamdpoltype/share/psi4/basis/aug-cc-pvtz-ri.gbs 

	 --------------------------------------------------------
	                          DF-MP2                         
	      2nd-Order Density-Fitted Moller-Plesset Theory     
	              RMP2 Wavefunction,   4 Threads             
	                                                         
	        Rob Parrish, Justin Turney, Andy Simmonett,      
	           Ed Hohenstein, and C. David Sherrill          
	 --------------------------------------------------------

   => Auxiliary Basis Set <=

  Basis Set: (AUG-CC-PVTZ AUX)
    Blend: AUG-CC-PVTZ-RI
    Number of shells: 56
    Number of basis function: 198
    Number of Cartesian functions: 246
    Spherical Harmonics?: true
    Max angular momentum: 4

	 --------------------------------------------------------
	                 NBF =    92, NAUX =   198
	 --------------------------------------------------------
	   CLASS    FOCC     OCC    AOCC    AVIR     VIR    FVIR
	   PAIRS       1       5       4      87      87       0
	 --------------------------------------------------------

	-----------------------------------------------------------
	 ==================> DF-MP2 Energies <==================== 
	-----------------------------------------------------------
	 Reference Energy          =     -76.0604241507306540 [Eh]
	 Singles Energy            =      -0.0000000000000000 [Eh]
	 Same-Spin Energy          =      -0.0650916018043339 [Eh]
	 Opposite-Spin Energy      =      -0.2029660324710724 [Eh]
	 Correlation Energy        =      -0.2680576342754062 [Eh]
	 Total Energy              =     -76.3284817850060620 [Eh]
	-----------------------------------------------------------
	 ================> DF-SCS-MP2 Energies <================== 
	-----------------------------------------------------------
	 SCS Same-Spin Scale       =       0.3333333333333333 [-]
	 SCS Opposite-Spin Scale   =       1.2000000000000000 [-]
	 SCS Same-Spin Energy      =      -0.0216972006014446 [Eh]
	 SCS Opposite-Spin Energy  =      -0.2435592389652868 [Eh]
	 SCS Correlation Energy    =      -0.2652564395667315 [Eh]
	 SCS Total Energy          =     -76.3256805902973809 [Eh]
	-----------------------------------------------------------


*** tstop() called on node37.bme.utexas.edu at Tue Feb 22 17:54:22 2022
Module time:
	user time   =       1.56 seconds =       0.03 minutes
	system time =       0.12 seconds =       0.00 minutes
	total time  =          1 seconds =       0.02 minutes
Total time:
	user time   =       7.34 seconds =       0.12 minutes
	system time =       0.55 seconds =       0.01 minutes
	total time  =          4 seconds =       0.07 minutes

  //>>>>>>>>>>>>>>>>>>>>>>>>>>>>>>>>>>>>//
  // CBS Computation: MP2 / AUG-CC-PVQZ //
  //<<<<<<<<<<<<<<<<<<<<<<<<<<<<<<<<<<<<//

    SCF Algorithm Type (re)set to DF.

*** tstart() called on node37.bme.utexas.edu
*** at Tue Feb 22 17:54:22 2022

   => Loading Basis Set <=

    Name: AUG-CC-PVQZ
    Role: ORBITAL
    Keyword: BASIS
    atoms 1   entry O          line   419 file /home/bdw2292/miniconda3/envs/amoebamdpoltype/share/psi4/basis/aug-cc-pvqz.gbs 
    atoms 2-3 entry H          line    36 file /home/bdw2292/miniconda3/envs/amoebamdpoltype/share/psi4/basis/aug-cc-pvqz.gbs 


         ---------------------------------------------------------
                                   SCF
               by Justin Turney, Rob Parrish, Andy Simmonett
                          and Daniel G. A. Smith
                              RHF Reference
                        4 Threads,  14305 MiB Core
         ---------------------------------------------------------

  ==> Geometry <==

    Molecular point group: c1
    Full point group: C1

    Geometry (in Angstrom), charge = 0, multiplicity = 1:

       Center              X                  Y                   Z               Mass       
    ------------   -----------------  -----------------  -----------------  -----------------
         O           -4.160893913003    -0.507039533158     0.317573231815    15.994914619570
         H           -4.133055613003    -1.424335733158     0.588057631815     1.007825032230
         H           -3.262766013003    -0.202567833158     0.180746731815     1.007825032230

  Running in c1 symmetry.

  Rotational constants: A =     18.41246  B =      0.05401  C =      0.05385 [cm^-1]
  Rotational constants: A = 551991.70479  B =   1619.06494  C =   1614.33085 [MHz]
  Nuclear repulsion =    9.183549419938334

  Charge       = 0
  Multiplicity = 1
  Electrons    = 10
  Nalpha       = 5
  Nbeta        = 5

  ==> Algorithm <==

  SCF Algorithm Type is DF.
  DIIS enabled.
  MOM disabled.
  Fractional occupation disabled.
  Guess Type is SAD.
  Energy threshold   = 1.00e-08
  Density threshold  = 1.00e-08
  Integral threshold = 0.00e+00

  ==> Primary Basis <==

  Basis Set: AUG-CC-PVQZ
    Blend: AUG-CC-PVQZ
    Number of shells: 48
    Number of basis function: 172
    Number of Cartesian functions: 215
    Spherical Harmonics?: true
    Max angular momentum: 4

   => Loading Basis Set <=

    Name: (AUG-CC-PVQZ AUX)
    Role: JKFIT
    Keyword: DF_BASIS_SCF
    atoms 1   entry O          line   318 file /home/bdw2292/miniconda3/envs/amoebamdpoltype/share/psi4/basis/aug-cc-pvqz-jkfit.gbs 
    atoms 2-3 entry H          line    70 file /home/bdw2292/miniconda3/envs/amoebamdpoltype/share/psi4/basis/aug-cc-pvqz-jkfit.gbs 

  ==> Pre-Iterations <==

   -------------------------------------------------------
    Irrep   Nso     Nmo     Nalpha   Nbeta   Ndocc  Nsocc
   -------------------------------------------------------
     A        172     172       0       0       0       0
   -------------------------------------------------------
    Total     172     172       5       5       5       0
   -------------------------------------------------------

  ==> Integral Setup <==

  DFHelper Memory: AOs need 0.074 GiB; user supplied 10.477 GiB. Using in-core AOs.

  ==> MemDFJK: Density-Fitted J/K Matrices <==

    J tasked:                   Yes
    K tasked:                   Yes
    wK tasked:                   No
    OpenMP threads:               4
    Memory [MiB]:             10728
    Algorithm:                 Core
    Schwarz Cutoff:           1E-12
    Mask sparsity (%):       0.0000
    Fitting Condition:        1E-10

   => Auxiliary Basis Set <=

  Basis Set: (AUG-CC-PVQZ AUX)
    Blend: AUG-CC-PVQZ-JKFIT
    Number of shells: 70
    Number of basis function: 294
    Number of Cartesian functions: 400
    Spherical Harmonics?: true
    Max angular momentum: 5

  Minimum eigenvalue in the overlap matrix is 8.5325337377E-05.
  Using Symmetric Orthogonalization.

  SCF Guess: Superposition of Atomic Densities via on-the-fly atomic UHF.

  ==> Iterations <==

                           Total Energy        Delta E     RMS |[F,P]|

   @DF-RHF iter SAD:   -75.47903260956483   -7.54790e+01   0.00000e+00 
   @DF-RHF iter   1:   -75.98166476037302   -5.02632e-01   2.73053e-03 DIIS
   @DF-RHF iter   2:   -76.03418136045923   -5.25166e-02   1.85438e-03 DIIS
   @DF-RHF iter   3:   -76.06539290322287   -3.12115e-02   1.26279e-04 DIIS
   @DF-RHF iter   4:   -76.06578467655160   -3.91773e-04   3.08537e-05 DIIS
   @DF-RHF iter   5:   -76.06580952570151   -2.48491e-05   6.91936e-06 DIIS
   @DF-RHF iter   6:   -76.06581156464492   -2.03894e-06   1.58220e-06 DIIS
   @DF-RHF iter   7:   -76.06581168389162   -1.19247e-07   3.08992e-07 DIIS
   @DF-RHF iter   8:   -76.06581168793480   -4.04317e-09   4.94222e-08 DIIS
   @DF-RHF iter   9:   -76.06581168801885   -8.40572e-11   1.19660e-08 DIIS
   @DF-RHF iter  10:   -76.06581168802298   -4.12115e-12   1.65960e-09 DIIS
  Energy and wave function converged.


  ==> Post-Iterations <==

    Orbital Energies [Eh]
    ---------------------

    Doubly Occupied:                                                      

       1A    -20.562974     2A     -1.349933     3A     -0.725289  
       4A     -0.577140     5A     -0.509277  

    Virtual:                                                              

       6A      0.027156     7A      0.042869     8A      0.114716  
       9A      0.132588    10A      0.150322    11A      0.157840  
      12A      0.186007    13A      0.197116    14A      0.208243  
      15A      0.241434    16A      0.258991    17A      0.290391  
      18A      0.358082    19A      0.390608    20A      0.471878  
      21A      0.506653    22A      0.543018    23A      0.545650  
      24A      0.554057    25A      0.613293    26A      0.634290  
      27A      0.649683    28A      0.662608    29A      0.665802  
      30A      0.690432    31A      0.705169    32A      0.714773  
      33A      0.769556    34A      0.787503    35A      0.803524  
      36A      0.810130    37A      0.846858    38A      0.855375  
      39A      0.967474    40A      1.134185    41A      1.141387  
      42A      1.216933    43A      1.328940    44A      1.417410  
      45A      1.480439    46A      1.506009    47A      1.521933  
      48A      1.525072    49A      1.555921    50A      1.595663  
      51A      1.618001    52A      1.636526    53A      1.659463  
      54A      1.672798    55A      1.685888    56A      1.702490  
      57A      1.719354    58A      1.763774    59A      1.782064  
      60A      1.794437    61A      1.828134    62A      1.862853  
      63A      1.881459    64A      1.900130    65A      1.952998  
      66A      2.013944    67A      2.021087    68A      2.029428  
      69A      2.099056    70A      2.219319    71A      2.225915  
      72A      2.306778    73A      2.494183    74A      2.642438  
      75A      2.643745    76A      2.891023    77A      2.962111  
      78A      3.010600    79A      3.023260    80A      3.061559  
      81A      3.088494    82A      3.251457    83A      3.282586  
      84A      3.311955    85A      3.531183    86A      3.591113  
      87A      3.658626    88A      3.680892    89A      3.740289  
      90A      3.742486    91A      3.920810    92A      4.065910  
      93A      4.159056    94A      4.170598    95A      4.174729  
      96A      4.181179    97A      4.251472    98A      4.344637  
      99A      4.418433   100A      4.565629   101A      4.661211  
     102A      4.761417   103A      4.803073   104A      4.807871  
     105A      4.841729   106A      4.875343   107A      4.998469  
     108A      5.277393   109A      5.315652   110A      5.512253  
     111A      5.548554   112A      5.877787   113A      5.882978  
     114A      6.080755   115A      6.230203   116A      6.834420  
     117A      6.860148   118A      6.860854   119A      6.957030  
     120A      7.713480   121A      7.779866   122A      7.829186  
     123A      7.845902   124A      7.881287   125A      7.919122  
     126A      7.947997   127A      8.005819   128A      8.196193  
     129A      8.345079   130A      8.537135   131A      8.589491  
     132A      8.709224   133A      8.760579   134A      8.799450  
     135A      8.877383   136A      8.981730   137A      9.064459  
     138A      9.139707   139A      9.523498   140A      9.841560  
     141A      9.963009   142A      9.967881   143A     10.013812  
     144A     10.443955   145A     10.477804   146A     10.655035  
     147A     10.992369   148A     11.036661   149A     11.078668  
     150A     11.259779   151A     11.370746   152A     11.439580  
     153A     11.696514   154A     11.796579   155A     11.834827  
     156A     12.013495   157A     12.174706   158A     12.225702  
     159A     12.528221   160A     12.736671   161A     12.877067  
     162A     12.895310   163A     13.211537   164A     13.997383  
     165A     14.039962   166A     14.487503   167A     14.847918  
     168A     14.876108   169A     15.303592   170A     16.930471  
     171A     17.266018   172A     45.491542  

    Final Occupation by Irrep:
              A 
    DOCC [     5 ]

  @DF-RHF Final Energy:   -76.06581168802298

   => Energetics <=

    Nuclear Repulsion Energy =              9.1835494199383341
    One-Electron Energy =                -123.0494968811253926
    Two-Electron Energy =                  37.8001357731640937
    Total Energy =                        -76.0658116880229613

Computation Completed


Properties will be evaluated at  -7.765034,  -1.022969,   0.614260 [a0]

Properties computed using the SCF density matrix

  Nuclear Dipole Moment: [e a0]
     X:     0.7707      Y:    -0.5100      Z:     0.1112

  Electronic Dipole Moment: [e a0]
     X:    -0.1476      Y:     0.0974      Z:    -0.0212

  Dipole Moment: [e a0]
     X:     0.6231      Y:    -0.4126      Z:     0.0900     Total:     0.7527

  Dipole Moment: [D]
     X:     1.5836      Y:    -1.0487      Z:     0.2288     Total:     1.9131


*** tstop() called on node37.bme.utexas.edu at Tue Feb 22 17:54:26 2022
Module time:
	user time   =       9.69 seconds =       0.16 minutes
	system time =       0.70 seconds =       0.01 minutes
	total time  =          4 seconds =       0.07 minutes
Total time:
	user time   =      17.08 seconds =       0.28 minutes
	system time =       1.26 seconds =       0.02 minutes
	total time  =          8 seconds =       0.13 minutes

*** tstart() called on node37.bme.utexas.edu
*** at Tue Feb 22 17:54:26 2022


  //>>>>>>>>>>>>>>>>>>>>>>>>>>>>>>>>>>>//
  //               DFMP2               //
  //<<<<<<<<<<<<<<<<<<<<<<<<<<<<<<<<<<<//

   => Loading Basis Set <=

    Name: (AUG-CC-PVQZ AUX)
    Role: RIFIT
    Keyword: DF_BASIS_MP2
    atoms 1   entry O          line   332 file /home/bdw2292/miniconda3/envs/amoebamdpoltype/share/psi4/basis/aug-cc-pvqz-ri.gbs 
    atoms 2-3 entry H          line    30 file /home/bdw2292/miniconda3/envs/amoebamdpoltype/share/psi4/basis/aug-cc-pvqz-ri.gbs 

	 --------------------------------------------------------
	                          DF-MP2                         
	      2nd-Order Density-Fitted Moller-Plesset Theory     
	              RMP2 Wavefunction,   4 Threads             
	                                                         
	        Rob Parrish, Justin Turney, Andy Simmonett,      
	           Ed Hohenstein, and C. David Sherrill          
	 --------------------------------------------------------

   => Auxiliary Basis Set <=

  Basis Set: (AUG-CC-PVQZ AUX)
    Blend: AUG-CC-PVQZ-RI
    Number of shells: 76
    Number of basis function: 328
    Number of Cartesian functions: 447
    Spherical Harmonics?: true
    Max angular momentum: 5

	 --------------------------------------------------------
	                 NBF =   172, NAUX =   328
	 --------------------------------------------------------
	   CLASS    FOCC     OCC    AOCC    AVIR     VIR    FVIR
	   PAIRS       1       5       4     167     167       0
	 --------------------------------------------------------

	-----------------------------------------------------------
	 ==================> DF-MP2 Energies <==================== 
	-----------------------------------------------------------
	 Reference Energy          =     -76.0658116880229755 [Eh]
	 Singles Energy            =      -0.0000000000000000 [Eh]
	 Same-Spin Energy          =      -0.0671611502741409 [Eh]
	 Opposite-Spin Energy      =      -0.2185063265269059 [Eh]
	 Correlation Energy        =      -0.2856674768010469 [Eh]
	 Total Energy              =     -76.3514791648240276 [Eh]
	-----------------------------------------------------------
	 ================> DF-SCS-MP2 Energies <================== 
	-----------------------------------------------------------
	 SCS Same-Spin Scale       =       0.3333333333333333 [-]
	 SCS Opposite-Spin Scale   =       1.2000000000000000 [-]
	 SCS Same-Spin Energy      =      -0.0223870500913803 [Eh]
	 SCS Opposite-Spin Energy  =      -0.2622075918322871 [Eh]
	 SCS Correlation Energy    =      -0.2845946419236674 [Eh]
	 SCS Total Energy          =     -76.3504063299466367 [Eh]
	-----------------------------------------------------------


*** tstop() called on node37.bme.utexas.edu at Tue Feb 22 17:54:27 2022
Module time:
	user time   =       3.13 seconds =       0.05 minutes
	system time =       0.20 seconds =       0.00 minutes
	total time  =          1 seconds =       0.02 minutes
Total time:
	user time   =      20.22 seconds =       0.34 minutes
	system time =       1.46 seconds =       0.02 minutes
	total time  =          9 seconds =       0.15 minutes

  //>>>>>>>>>>>>>>>>>>>>>>>>>>>>>>>>>>>//
  //  CBS Results: mp2/aug-cc-pV[TQ]Z  //
  //<<<<<<<<<<<<<<<<<<<<<<<<<<<<<<<<<<<//


   ==> HF <==

   HI-zeta (4) Energy:               -76.065811688023


   ==> Helgaker 2-point correlated extrapolation for method: MP2 <==

   LO-zeta (3) Energy:               -76.328481785006
   HI-zeta (4) Energy:               -76.351479164824
   Alpha (exponent) Value:             3.000000000000
   Extrapolated Energy:              -76.368261036583

   @Extrapolated MP2/(T,Q):          -76.368261036583



   ==> Helgaker 2-point correlated extrapolation for method: HF <==

   LO-zeta (3) Energy:               -76.060424150731
   HI-zeta (4) Energy:               -76.065811688023
   Alpha (exponent) Value:             3.000000000000
   Extrapolated Energy:              -76.069743134155

   @Extrapolated HF/(T,Q):           -76.069743134155


   ==> Components <==

  ---------------------------------------------------------------------------------------------------------
                          Method / Basis                      Rqd      Energy [Eh]   Variable
  ---------------------------------------------------------------------------------------------------------
                              hf / aug-cc-pvtz                  *     -76.06042415   HF TOTAL ENERGY
                             mp2 / aug-cc-pvtz                  *     -76.32848179   MP2 TOTAL ENERGY
                              hf / aug-cc-pvqz                  *     -76.06581169   HF TOTAL ENERGY
                             mp2 / aug-cc-pvqz                  *     -76.35147916   MP2 TOTAL ENERGY
  ---------------------------------------------------------------------------------------------------------

   ==> Stages <==

  ---------------------------------------------------------------------------------------------------------
      Stage               Method / Basis                       Wt      Energy [Eh]   Scheme
  ---------------------------------------------------------------------------------------------------------
        scf                   hf / aug-cc-pvqz                  1     -76.06581169   xtpl_highest_1
       corl                  mp2 / aug-cc-pv[tq]z               1     -76.36826104   corl_xtpl_helgaker_2
       corl                   hf / aug-cc-pv[tq]z              -1     -76.06974313   corl_xtpl_helgaker_2
  ---------------------------------------------------------------------------------------------------------

   ==> CBS <==

  ---------------------------------------------------------------------------------------------------------
      Stage               Method / Basis                               Energy [Eh]   Scheme
  ---------------------------------------------------------------------------------------------------------
        scf                   hf / aug-cc-pvqz                        -76.06581169   xtpl_highest_1
       corl                  mp2 / aug-cc-pv[tq]z                      -0.29851790   corl_xtpl_helgaker_2
      total                  CBS                                      -76.36432959   
  ---------------------------------------------------------------------------------------------------------
   => Loading Basis Set <=

    Name: DEF2-SVP
    Role: ORBITAL
    Keyword: BASIS
    atoms 1   entry O          line   130 file /home/bdw2292/miniconda3/envs/amoebamdpoltype/share/psi4/basis/def2-svp.gbs 
    atoms 2-3 entry H          line    15 file /home/bdw2292/miniconda3/envs/amoebamdpoltype/share/psi4/basis/def2-svp.gbs 


       N-Body: Complex Energy (fragments = (2,), basis = (2,):   -76.36432959045086)

       N-Body: Computing complex (2/4) with fragments (2,) in the basis of fragments (1, 2).


  //>>>>>>>>>>>>>>>>>>>>>>>>>>>>>>>>>>>//
  //   CBS Setup: mp2/aug-cc-pV[TQ]Z   //
  //<<<<<<<<<<<<<<<<<<<<<<<<<<<<<<<<<<<//

    Naive listing of computations required.
             hf / aug-cc-pvqz              for  HF TOTAL ENERGY
            mp2 / aug-cc-pvtz              for  MP2 TOTAL ENERGY
            mp2 / aug-cc-pvqz              for  MP2 TOTAL ENERGY
             hf / aug-cc-pvtz              for  HF TOTAL ENERGY
             hf / aug-cc-pvqz              for  HF TOTAL ENERGY

    Enlightened listing of computations required.
            mp2 / aug-cc-pvtz              for  MP2 TOTAL ENERGY
            mp2 / aug-cc-pvqz              for  MP2 TOTAL ENERGY

    Full listing of computations to be obtained (required and bonus).
             hf / aug-cc-pvtz              for  HF TOTAL ENERGY
            mp2 / aug-cc-pvtz              for  MP2 TOTAL ENERGY
             hf / aug-cc-pvqz              for  HF TOTAL ENERGY
            mp2 / aug-cc-pvqz              for  MP2 TOTAL ENERGY

  //>>>>>>>>>>>>>>>>>>>>>>>>>>>>>>>>>>>>//
  // CBS Computation: MP2 / AUG-CC-PVTZ //
  //<<<<<<<<<<<<<<<<<<<<<<<<<<<<<<<<<<<<//

    SCF Algorithm Type (re)set to DF.

*** tstart() called on node37.bme.utexas.edu
*** at Tue Feb 22 17:54:28 2022

   => Loading Basis Set <=

    Name: AUG-CC-PVTZ
    Role: ORBITAL
    Keyword: BASIS
    atoms 1-2      entry CL         line   984 file /home/bdw2292/miniconda3/envs/amoebamdpoltype/share/psi4/basis/aug-cc-pvtz.gbs 
    atoms 3        entry C          line   235 file /home/bdw2292/miniconda3/envs/amoebamdpoltype/share/psi4/basis/aug-cc-pvtz.gbs 
    atoms 4-5, 7-8 entry H          line    36 file /home/bdw2292/miniconda3/envs/amoebamdpoltype/share/psi4/basis/aug-cc-pvtz.gbs 
    atoms 6        entry O          line   327 file /home/bdw2292/miniconda3/envs/amoebamdpoltype/share/psi4/basis/aug-cc-pvtz.gbs 


         ---------------------------------------------------------
                                   SCF
               by Justin Turney, Rob Parrish, Andy Simmonett
                          and Daniel G. A. Smith
                              RHF Reference
                        4 Threads,  14305 MiB Core
         ---------------------------------------------------------

  ==> Geometry <==

    Molecular point group: c1
    Full point group: C1

    Geometry (in Angstrom), charge = 0, multiplicity = 1:

       Center              X                  Y                   Z               Mass       
    ------------   -----------------  -----------------  -----------------  -----------------
      Gh(CL)         -0.458169013003     0.736709266842    -0.253630368185    34.968852682000
      Gh(CL)          2.334385686997    -0.170054133158     0.072163031815    34.968852682000
      Gh(C)           0.627167786997    -0.634377533158     0.024499031815    12.000000000000
      Gh(H)           0.372612886997    -1.085340333158     0.983800231815     1.007825032230
      Gh(H)           0.492298286997    -1.348674733158    -0.787993268185     1.007825032230
         O           -4.160893913003    -0.507039533158     0.317573231815    15.994914619570
         H           -4.133055613003    -1.424335733158     0.588057631815     1.007825032230
         H           -3.262766013003    -0.202567833158     0.180746731815     1.007825032230

  Running in c1 symmetry.

  Rotational constants: A =      0.42673  B =      0.03301  C =      0.03089 [cm^-1]
  Rotational constants: A =  12793.09258  B =    989.61335  C =    926.12242 [MHz]
  Nuclear repulsion =    9.183549419938334

  Charge       = 0
  Multiplicity = 1
  Electrons    = 10
  Nalpha       = 5
  Nbeta        = 5

  ==> Algorithm <==

  SCF Algorithm Type is DF.
  DIIS enabled.
  MOM disabled.
  Fractional occupation disabled.
  Guess Type is SAD.
  Energy threshold   = 1.00e-08
  Density threshold  = 1.00e-08
  Integral threshold = 0.00e+00

  ==> Primary Basis <==

  Basis Set: AUG-CC-PVTZ
    Blend: AUG-CC-PVTZ
    Number of shells: 96
    Number of basis function: 284
    Number of Cartesian functions: 328
    Spherical Harmonics?: true
    Max angular momentum: 3

   => Loading Basis Set <=

    Name: (AUG-CC-PVTZ AUX)
    Role: JKFIT
    Keyword: DF_BASIS_SCF
    atoms 1-2      entry CL         line   816 file /home/bdw2292/miniconda3/envs/amoebamdpoltype/share/psi4/basis/aug-cc-pvtz-jkfit.gbs 
    atoms 3        entry C          line   162 file /home/bdw2292/miniconda3/envs/amoebamdpoltype/share/psi4/basis/aug-cc-pvtz-jkfit.gbs 
    atoms 4-5, 7-8 entry H          line    70 file /home/bdw2292/miniconda3/envs/amoebamdpoltype/share/psi4/basis/aug-cc-pvtz-jkfit.gbs 
    atoms 6        entry O          line   286 file /home/bdw2292/miniconda3/envs/amoebamdpoltype/share/psi4/basis/aug-cc-pvtz-jkfit.gbs 

  ==> Pre-Iterations <==

   -------------------------------------------------------
    Irrep   Nso     Nmo     Nalpha   Nbeta   Ndocc  Nsocc
   -------------------------------------------------------
     A        284     284       0       0       0       0
   -------------------------------------------------------
    Total     284     284       5       5       5       0
   -------------------------------------------------------

  ==> Integral Setup <==

  DFHelper Memory: AOs need 0.400 GiB; user supplied 10.477 GiB. Using in-core AOs.

  ==> MemDFJK: Density-Fitted J/K Matrices <==

    J tasked:                   Yes
    K tasked:                   Yes
    wK tasked:                   No
    OpenMP threads:               4
    Memory [MiB]:             10728
    Algorithm:                 Core
    Schwarz Cutoff:           1E-12
    Mask sparsity (%):       7.9449
    Fitting Condition:        1E-10

   => Auxiliary Basis Set <=

  Basis Set: (AUG-CC-PVTZ AUX)
    Blend: AUG-CC-PVTZ-JKFIT
    Number of shells: 200
    Number of basis function: 684
    Number of Cartesian functions: 842
    Spherical Harmonics?: true
    Max angular momentum: 4

  Minimum eigenvalue in the overlap matrix is 6.1759355070E-05.
  Using Symmetric Orthogonalization.

  SCF Guess: Superposition of Atomic Densities via on-the-fly atomic UHF.

  ==> Iterations <==

                           Total Energy        Delta E     RMS |[F,P]|

   @DF-RHF iter SAD:   -75.47387600167484   -7.54739e+01   0.00000e+00 
   @DF-RHF iter   1:   -75.97658883668828   -5.02713e-01   1.65029e-03 DIIS
   @DF-RHF iter   2:   -76.02900709681082   -5.24183e-02   1.11827e-03 DIIS
   @DF-RHF iter   3:   -76.06002629715060   -3.10192e-02   7.59330e-05 DIIS
   @DF-RHF iter   4:   -76.06041609221089   -3.89795e-04   1.81350e-05 DIIS
   @DF-RHF iter   5:   -76.06044006160346   -2.39694e-05   4.08197e-06 DIIS
   @DF-RHF iter   6:   -76.06044201949055   -1.95789e-06   9.09466e-07 DIIS
   @DF-RHF iter   7:   -76.06044212767374   -1.08183e-07   1.72233e-07 DIIS
   @DF-RHF iter   8:   -76.06044213111767   -3.44393e-09   2.85392e-08 DIIS
   @DF-RHF iter   9:   -76.06044213119193   -7.42659e-11   7.09029e-09 DIIS
  Energy and wave function converged.


  ==> Post-Iterations <==

    Orbital Energies [Eh]
    ---------------------

    Doubly Occupied:                                                      

       1A    -20.565452     2A     -1.350657     3A     -0.725321  
       4A     -0.577085     5A     -0.509144  

    Virtual:                                                              

       6A      0.017267     7A      0.038499     8A      0.042008  
       9A      0.047468    10A      0.061666    11A      0.080130  
      12A      0.092966    13A      0.107267    14A      0.110944  
      15A      0.113772    16A      0.116766    17A      0.125313  
      18A      0.139641    19A      0.155604    20A      0.165708  
      21A      0.174577    22A      0.177858    23A      0.182621  
      24A      0.210018    25A      0.222436    26A      0.244939  
      27A      0.262371    28A      0.269017    29A      0.272388  
      30A      0.282811    31A      0.294639    32A      0.300779  
      33A      0.304754    34A      0.311015    35A      0.330586  
      36A      0.343098    37A      0.344544    38A      0.371309  
      39A      0.378128    40A      0.381006    41A      0.393529  
      42A      0.416362    43A      0.426849    44A      0.435740  
      45A      0.448814    46A      0.456869    47A      0.459503  
      48A      0.462806    49A      0.486073    50A      0.496252  
      51A      0.514938    52A      0.543455    53A      0.557795  
      54A      0.569150    55A      0.588637    56A      0.595244  
      57A      0.603191    58A      0.618554    59A      0.627098  
      60A      0.650889    61A      0.656566    62A      0.679687  
      63A      0.683496    64A      0.714030    65A      0.723620  
      66A      0.733878    67A      0.738660    68A      0.741701  
      69A      0.751762    70A      0.759069    71A      0.772632  
      72A      0.800373    73A      0.853473    74A      0.866124  
      75A      0.918447    76A      0.921688    77A      0.928222  
      78A      0.939802    79A      0.940666    80A      0.967818  
      81A      0.975343    82A      1.013112    83A      1.039694  
      84A      1.049639    85A      1.058506    86A      1.067424  
      87A      1.071418    88A      1.085942    89A      1.093633  
      90A      1.104490    91A      1.113813    92A      1.141049  
      93A      1.152555    94A      1.175568    95A      1.182329  
      96A      1.194928    97A      1.206649    98A      1.209137  
      99A      1.224012   100A      1.249500   101A      1.253738  
     102A      1.268127   103A      1.289854   104A      1.318775  
     105A      1.334620   106A      1.342787   107A      1.352160  
     108A      1.365733   109A      1.375911   110A      1.381007  
     111A      1.411750   112A      1.418747   113A      1.451286  
     114A      1.452979   115A      1.465605   116A      1.470706  
     117A      1.497693   118A      1.509911   119A      1.538860  
     120A      1.541076   121A      1.556181   122A      1.573257  
     123A      1.581063   124A      1.593950   125A      1.608525  
     126A      1.612725   127A      1.623192   128A      1.630275  
     129A      1.637667   130A      1.665147   131A      1.685146  
     132A      1.706952   133A      1.728104   134A      1.769105  
     135A      1.833900   136A      1.854528   137A      1.878746  
     138A      1.906936   139A      1.982579   140A      2.033043  
     141A      2.045906   142A      2.050119   143A      2.062839  
     144A      2.071754   145A      2.097209   146A      2.099240  
     147A      2.113549   148A      2.160531   149A      2.202827  
     150A      2.225395   151A      2.274340   152A      2.280319  
     153A      2.337942   154A      2.340384   155A      2.367545  
     156A      2.403640   157A      2.442746   158A      2.456053  
     159A      2.461850   160A      2.471695   161A      2.510894  
     162A      2.528056   163A      2.563680   164A      2.574261  
     165A      2.598915   166A      2.699074   167A      2.711203  
     168A      2.724985   169A      2.728835   170A      2.847020  
     171A      2.905271   172A      2.921888   173A      3.035352  
     174A      3.660920   175A      3.793294   176A      3.805717  
     177A      3.840917   178A      3.889149   179A      3.901947  
     180A      3.953497   181A      3.966173   182A      3.972328  
     183A      3.974790   184A      3.979936   185A      4.010090  
     186A      4.014231   187A      4.027024   188A      4.045044  
     189A      4.106263   190A      4.113982   191A      4.130866  
     192A      4.134765   193A      4.155865   194A      4.164438  
     195A      4.176468   196A      4.188063   197A      4.205540  
     198A      4.235429   199A      4.254723   200A      4.294320  
     201A      4.301907   202A      4.320500   203A      4.340456  
     204A      4.387668   205A      4.388609   206A      4.416935  
     207A      4.456273   208A      4.479401   209A      4.509602  
     210A      4.530852   211A      4.551551   212A      4.575627  
     213A      4.636033   214A      4.683732   215A      4.685494  
     216A      4.729300   217A      4.733408   218A      4.744728  
     219A      4.757463   220A      4.767979   221A      4.773440  
     222A      4.800883   223A      4.826009   224A      4.831847  
     225A      4.837617   226A      4.875146   227A      4.933150  
     228A      4.999977   229A      5.055531   230A      5.111718  
     231A      5.148736   232A      5.175605   233A      5.180913  
     234A      5.189232   235A      5.219790   236A      5.328684  
     237A      5.330851   238A      5.362786   239A      5.378729  
     240A      5.403875   241A      5.425744   242A      5.479803  
     243A      5.514715   244A      5.630824   245A      5.759878  
     246A      5.889017   247A      5.913664   248A      6.041640  
     249A      6.090056   250A      6.156713   251A      6.236574  
     252A      6.285497   253A      6.434597   254A      6.552619  
     255A      6.725288   256A      6.885519   257A      7.015042  
     258A      7.150251   259A      7.272430   260A      7.314651  
     261A      7.320827   262A      7.395507   263A      7.408771  
     264A      7.695246   265A      7.699792   266A      7.861508  
     267A      7.930700   268A      7.975634   269A      7.991927  
     270A      8.139929   271A      8.806182   272A      9.957525  
     273A     16.105937   274A     16.277701   275A     16.511798  
     276A     28.073304   277A     28.083757   278A     28.098378  
     279A     28.184380   280A     28.825455   281A     29.163349  
     282A     49.042881   283A    161.002307   284A    161.044047  

    Final Occupation by Irrep:
              A 
    DOCC [     5 ]

  @DF-RHF Final Energy:   -76.06044213119193

   => Energetics <=

    Nuclear Repulsion Energy =              9.1835494199383341
    One-Electron Energy =                -123.0326638947914546
    Two-Electron Energy =                  37.7886723436611831
    Total Energy =                        -76.0604421311919339

Computation Completed


Properties will be evaluated at   0.000000,  -0.000000,  -0.000000 [a0]

Properties computed using the SCF density matrix

  Nuclear Dipole Moment: [e a0]
     X:   -76.8797      Y:   -10.7397      Z:     6.2538

  Electronic Dipole Moment: [e a0]
     X:    77.5037      Y:    10.3265      Z:    -6.1637

  Dipole Moment: [e a0]
     X:     0.6240      Y:    -0.4132      Z:     0.0901     Total:     0.7538

  Dipole Moment: [D]
     X:     1.5861      Y:    -1.0502      Z:     0.2291     Total:     1.9160


*** tstop() called on node37.bme.utexas.edu at Tue Feb 22 17:54:38 2022
Module time:
	user time   =      23.21 seconds =       0.39 minutes
	system time =       1.28 seconds =       0.02 minutes
	total time  =         10 seconds =       0.17 minutes
Total time:
	user time   =      45.23 seconds =       0.75 minutes
	system time =       2.79 seconds =       0.05 minutes
	total time  =         20 seconds =       0.33 minutes

*** tstart() called on node37.bme.utexas.edu
*** at Tue Feb 22 17:54:38 2022


  //>>>>>>>>>>>>>>>>>>>>>>>>>>>>>>>>>>>//
  //               DFMP2               //
  //<<<<<<<<<<<<<<<<<<<<<<<<<<<<<<<<<<<//

   => Loading Basis Set <=

    Name: (AUG-CC-PVTZ AUX)
    Role: RIFIT
    Keyword: DF_BASIS_MP2
    atoms 1-2      entry CL         line   742 file /home/bdw2292/miniconda3/envs/amoebamdpoltype/share/psi4/basis/aug-cc-pvtz-ri.gbs 
    atoms 3        entry C          line   148 file /home/bdw2292/miniconda3/envs/amoebamdpoltype/share/psi4/basis/aug-cc-pvtz-ri.gbs 
    atoms 4-5, 7-8 entry H          line    30 file /home/bdw2292/miniconda3/envs/amoebamdpoltype/share/psi4/basis/aug-cc-pvtz-ri.gbs 
    atoms 6        entry O          line   264 file /home/bdw2292/miniconda3/envs/amoebamdpoltype/share/psi4/basis/aug-cc-pvtz-ri.gbs 

	 --------------------------------------------------------
	                          DF-MP2                         
	      2nd-Order Density-Fitted Moller-Plesset Theory     
	              RMP2 Wavefunction,   4 Threads             
	                                                         
	        Rob Parrish, Justin Turney, Andy Simmonett,      
	           Ed Hohenstein, and C. David Sherrill          
	 --------------------------------------------------------

   => Auxiliary Basis Set <=

  Basis Set: (AUG-CC-PVTZ AUX)
    Blend: AUG-CC-PVTZ-RI
    Number of shells: 186
    Number of basis function: 690
    Number of Cartesian functions: 874
    Spherical Harmonics?: true
    Max angular momentum: 4

	 --------------------------------------------------------
	                 NBF =   284, NAUX =   690
	 --------------------------------------------------------
	   CLASS    FOCC     OCC    AOCC    AVIR     VIR    FVIR
	   PAIRS       1       5       4     279     279       0
	 --------------------------------------------------------

	-----------------------------------------------------------
	 ==================> DF-MP2 Energies <==================== 
	-----------------------------------------------------------
	 Reference Energy          =     -76.0604421311919339 [Eh]
	 Singles Energy            =      -0.0000000000000000 [Eh]
	 Same-Spin Energy          =      -0.0651013320016002 [Eh]
	 Opposite-Spin Energy      =      -0.2030618910461643 [Eh]
	 Correlation Energy        =      -0.2681632230477646 [Eh]
	 Total Energy              =     -76.3286053542396985 [Eh]
	-----------------------------------------------------------
	 ================> DF-SCS-MP2 Energies <================== 
	-----------------------------------------------------------
	 SCS Same-Spin Scale       =       0.3333333333333333 [-]
	 SCS Opposite-Spin Scale   =       1.2000000000000000 [-]
	 SCS Same-Spin Energy      =      -0.0217004440005334 [Eh]
	 SCS Opposite-Spin Energy  =      -0.2436742692553972 [Eh]
	 SCS Correlation Energy    =      -0.2653747132559306 [Eh]
	 SCS Total Energy          =     -76.3258168444478713 [Eh]
	-----------------------------------------------------------


*** tstop() called on node37.bme.utexas.edu at Tue Feb 22 17:54:42 2022
Module time:
	user time   =       9.83 seconds =       0.16 minutes
	system time =       0.58 seconds =       0.01 minutes
	total time  =          4 seconds =       0.07 minutes
Total time:
	user time   =      55.07 seconds =       0.92 minutes
	system time =       3.37 seconds =       0.06 minutes
	total time  =         24 seconds =       0.40 minutes

  //>>>>>>>>>>>>>>>>>>>>>>>>>>>>>>>>>>>>//
  // CBS Computation: MP2 / AUG-CC-PVQZ //
  //<<<<<<<<<<<<<<<<<<<<<<<<<<<<<<<<<<<<//

    SCF Algorithm Type (re)set to DF.

*** tstart() called on node37.bme.utexas.edu
*** at Tue Feb 22 17:54:42 2022

   => Loading Basis Set <=

    Name: AUG-CC-PVQZ
    Role: ORBITAL
    Keyword: BASIS
    atoms 1-2      entry CL         line  1218 file /home/bdw2292/miniconda3/envs/amoebamdpoltype/share/psi4/basis/aug-cc-pvqz.gbs 
    atoms 3        entry C          line   299 file /home/bdw2292/miniconda3/envs/amoebamdpoltype/share/psi4/basis/aug-cc-pvqz.gbs 
    atoms 4-5, 7-8 entry H          line    36 file /home/bdw2292/miniconda3/envs/amoebamdpoltype/share/psi4/basis/aug-cc-pvqz.gbs 
    atoms 6        entry O          line   419 file /home/bdw2292/miniconda3/envs/amoebamdpoltype/share/psi4/basis/aug-cc-pvqz.gbs 


         ---------------------------------------------------------
                                   SCF
               by Justin Turney, Rob Parrish, Andy Simmonett
                          and Daniel G. A. Smith
                              RHF Reference
                        4 Threads,  14305 MiB Core
         ---------------------------------------------------------

  ==> Geometry <==

    Molecular point group: c1
    Full point group: C1

    Geometry (in Angstrom), charge = 0, multiplicity = 1:

       Center              X                  Y                   Z               Mass       
    ------------   -----------------  -----------------  -----------------  -----------------
      Gh(CL)         -0.458169013003     0.736709266842    -0.253630368185    34.968852682000
      Gh(CL)          2.334385686997    -0.170054133158     0.072163031815    34.968852682000
      Gh(C)           0.627167786997    -0.634377533158     0.024499031815    12.000000000000
      Gh(H)           0.372612886997    -1.085340333158     0.983800231815     1.007825032230
      Gh(H)           0.492298286997    -1.348674733158    -0.787993268185     1.007825032230
         O           -4.160893913003    -0.507039533158     0.317573231815    15.994914619570
         H           -4.133055613003    -1.424335733158     0.588057631815     1.007825032230
         H           -3.262766013003    -0.202567833158     0.180746731815     1.007825032230

  Running in c1 symmetry.

  Rotational constants: A =      0.42673  B =      0.03301  C =      0.03089 [cm^-1]
  Rotational constants: A =  12793.09258  B =    989.61335  C =    926.12242 [MHz]
  Nuclear repulsion =    9.183549419938334

  Charge       = 0
  Multiplicity = 1
  Electrons    = 10
  Nalpha       = 5
  Nbeta        = 5

  ==> Algorithm <==

  SCF Algorithm Type is DF.
  DIIS enabled.
  MOM disabled.
  Fractional occupation disabled.
  Guess Type is SAD.
  Energy threshold   = 1.00e-08
  Density threshold  = 1.00e-08
  Integral threshold = 0.00e+00

  ==> Primary Basis <==

  Basis Set: AUG-CC-PVQZ
    Blend: AUG-CC-PVQZ
    Number of shells: 140
    Number of basis function: 512
    Number of Cartesian functions: 648
    Spherical Harmonics?: true
    Max angular momentum: 4

   => Loading Basis Set <=

    Name: (AUG-CC-PVQZ AUX)
    Role: JKFIT
    Keyword: DF_BASIS_SCF
    atoms 1-2      entry CL         line   904 file /home/bdw2292/miniconda3/envs/amoebamdpoltype/share/psi4/basis/aug-cc-pvqz-jkfit.gbs 
    atoms 3        entry C          line   178 file /home/bdw2292/miniconda3/envs/amoebamdpoltype/share/psi4/basis/aug-cc-pvqz-jkfit.gbs 
    atoms 4-5, 7-8 entry H          line    70 file /home/bdw2292/miniconda3/envs/amoebamdpoltype/share/psi4/basis/aug-cc-pvqz-jkfit.gbs 
    atoms 6        entry O          line   318 file /home/bdw2292/miniconda3/envs/amoebamdpoltype/share/psi4/basis/aug-cc-pvqz-jkfit.gbs 

  ==> Pre-Iterations <==

   -------------------------------------------------------
    Irrep   Nso     Nmo     Nalpha   Nbeta   Ndocc  Nsocc
   -------------------------------------------------------
     A        512     512       0       0       0       0
   -------------------------------------------------------
    Total     512     512       5       5       5       0
   -------------------------------------------------------

  ==> Integral Setup <==

  DFHelper Memory: AOs need 1.723 GiB; user supplied 10.477 GiB. Using in-core AOs.

  ==> MemDFJK: Density-Fitted J/K Matrices <==

    J tasked:                   Yes
    K tasked:                   Yes
    wK tasked:                   No
    OpenMP threads:               4
    Memory [MiB]:             10728
    Algorithm:                 Core
    Schwarz Cutoff:           1E-12
    Mask sparsity (%):      11.9385
    Fitting Condition:        1E-10

   => Auxiliary Basis Set <=

  Basis Set: (AUG-CC-PVQZ AUX)
    Blend: AUG-CC-PVQZ-JKFIT
    Number of shells: 232
    Number of basis function: 956
    Number of Cartesian functions: 1294
    Spherical Harmonics?: true
    Max angular momentum: 5

  Minimum eigenvalue in the overlap matrix is 1.3054300075E-05.
  Using Symmetric Orthogonalization.

  SCF Guess: Superposition of Atomic Densities via on-the-fly atomic UHF.

  ==> Iterations <==

                           Total Energy        Delta E     RMS |[F,P]|

   @DF-RHF iter SAD:   -75.47903260451881   -7.54790e+01   0.00000e+00 
   @DF-RHF iter   1:   -75.98166931267139   -5.02637e-01   9.17306e-04 DIIS
   @DF-RHF iter   2:   -76.03418754822280   -5.25182e-02   6.22989e-04 DIIS
   @DF-RHF iter   3:   -76.06540040724769   -3.12129e-02   4.24233e-05 DIIS
   @DF-RHF iter   4:   -76.06579220552388   -3.91798e-04   1.03651e-05 DIIS
   @DF-RHF iter   5:   -76.06581705625891   -2.48507e-05   2.32471e-06 DIIS
   @DF-RHF iter   6:   -76.06581909569491   -2.03944e-06   5.31551e-07 DIIS
   @DF-RHF iter   7:   -76.06581921498189   -1.19287e-07   1.03865e-07 DIIS
   @DF-RHF iter   8:   -76.06581921903175   -4.04987e-09   1.66190e-08 DIIS
   @DF-RHF iter   9:   -76.06581921911669   -8.49383e-11   4.02350e-09 DIIS
  Energy and wave function converged.


  ==> Post-Iterations <==

    Orbital Energies [Eh]
    ---------------------

    Doubly Occupied:                                                      

       1A    -20.562963     2A     -1.349925     3A     -0.725281  
       4A     -0.577134     5A     -0.509273  

    Virtual:                                                              

       6A      0.015508     7A      0.034605     8A      0.037844  
       9A      0.042513    10A      0.054641    11A      0.071105  
      12A      0.082486    13A      0.091059    14A      0.092279  
      15A      0.095912    16A      0.099107    17A      0.108662  
      18A      0.122082    19A      0.136149    20A      0.144641  
      21A      0.148326    22A      0.152434    23A      0.156768  
      24A      0.180516    25A      0.192606    26A      0.206808  
      27A      0.216077    28A      0.219746    29A      0.224288  
      30A      0.232992    31A      0.240298    32A      0.252077  
      33A      0.254497    34A      0.262215    35A      0.273835  
      36A      0.277081    37A      0.281307    38A      0.290436  
      39A      0.297695    40A      0.304340    41A      0.315800  
      42A      0.333922    43A      0.338206    44A      0.349350  
      45A      0.353453    46A      0.362304    47A      0.366054  
      48A      0.370697    49A      0.376307    50A      0.393104  
      51A      0.405217    52A      0.413816    53A      0.442819  
      54A      0.448483    55A      0.459278    56A      0.462191  
      57A      0.471355    58A      0.480041    59A      0.499873  
      60A      0.502521    61A      0.509930    62A      0.534968  
      63A      0.543977    64A      0.553016    65A      0.555736  
      66A      0.557644    67A      0.562266    68A      0.568540  
      69A      0.574309    70A      0.585142    71A      0.608928  
      72A      0.629874    73A      0.639137    74A      0.655680  
      75A      0.667732    76A      0.680995    77A      0.685647  
      78A      0.697236    79A      0.704423    80A      0.718089  
      81A      0.728753    82A      0.745422    83A      0.756907  
      84A      0.773080    85A      0.775448    86A      0.788630  
      87A      0.801638    88A      0.805355    89A      0.808941  
      90A      0.824525    91A      0.833980    92A      0.840923  
      93A      0.853402    94A      0.869339    95A      0.877054  
      96A      0.880140    97A      0.897466    98A      0.902797  
      99A      0.920198   100A      0.935273   101A      0.941542  
     102A      0.946431   103A      0.956321   104A      0.968153  
     105A      0.981528   106A      0.989906   107A      0.994382  
     108A      1.008299   109A      1.020555   110A      1.030909  
     111A      1.033195   112A      1.042863   113A      1.050781  
     114A      1.054242   115A      1.060967   116A      1.065494  
     117A      1.072838   118A      1.093087   119A      1.105706  
     120A      1.113972   121A      1.122660   122A      1.141773  
     123A      1.151371   124A      1.159256   125A      1.165192  
     126A      1.168601   127A      1.195044   128A      1.203804  
     129A      1.226582   130A      1.242750   131A      1.256532  
     132A      1.270840   133A      1.292536   134A      1.314045  
     135A      1.332399   136A      1.403457   137A      1.429882  
     138A      1.438774   139A      1.457920   140A      1.467235  
     141A      1.477120   142A      1.505955   143A      1.514789  
     144A      1.519130   145A      1.532731   146A      1.550355  
     147A      1.555666   148A      1.567811   149A      1.596335  
     150A      1.604332   151A      1.612035   152A      1.612800  
     153A      1.623982   154A      1.625471   155A      1.648274  
     156A      1.665137   157A      1.673510   158A      1.681493  
     159A      1.685761   160A      1.693594   161A      1.701341  
     162A      1.707697   163A      1.731956   164A      1.757088  
     165A      1.774781   166A      1.782227   167A      1.792902  
     168A      1.812622   169A      1.835092   170A      1.848874  
     171A      1.862545   172A      1.869187   173A      1.872867  
     174A      1.884406   175A      1.896486   176A      1.908151  
     177A      1.921186   178A      1.928651   179A      1.940798  
     180A      1.964986   181A      1.974505   182A      1.977483  
     183A      1.992439   184A      2.012975   185A      2.020745  
     186A      2.027946   187A      2.038022   188A      2.049205  
     189A      2.063209   190A      2.087543   191A      2.088607  
     192A      2.096644   193A      2.114139   194A      2.140314  
     195A      2.147963   196A      2.155871   197A      2.170189  
     198A      2.175463   199A      2.203157   200A      2.217543  
     201A      2.220760   202A      2.230444   203A      2.239251  
     204A      2.249334   205A      2.276371   206A      2.298120  
     207A      2.316243   208A      2.338888   209A      2.345097  
     210A      2.382158   211A      2.385197   212A      2.396109  
     213A      2.426746   214A      2.443371   215A      2.457012  
     216A      2.476796   217A      2.492144   218A      2.497589  
     219A      2.514964   220A      2.520065   221A      2.528871  
     222A      2.547404   223A      2.560542   224A      2.564060  
     225A      2.580880   226A      2.588954   227A      2.606487  
     228A      2.614032   229A      2.631450   230A      2.655750  
     231A      2.692358   232A      2.703844   233A      2.716361  
     234A      2.756572   235A      2.783306   236A      2.790577  
     237A      2.801532   238A      2.830043   239A      2.840345  
     240A      2.852734   241A      2.874020   242A      2.899227  
     243A      2.905459   244A      2.913630   245A      2.931982  
     246A      2.987666   247A      2.990472   248A      3.011545  
     249A      3.021054   250A      3.027389   251A      3.033139  
     252A      3.059656   253A      3.070282   254A      3.088367  
     255A      3.098325   256A      3.107052   257A      3.148932  
     258A      3.157346   259A      3.184854   260A      3.217764  
     261A      3.264118   262A      3.271809   263A      3.294331  
     264A      3.321735   265A      3.327415   266A      3.329390  
     267A      3.337756   268A      3.342045   269A      3.389352  
     270A      3.398981   271A      3.404033   272A      3.411147  
     273A      3.438051   274A      3.483010   275A      3.547165  
     276A      3.599122   277A      3.613121   278A      3.634080  
     279A      3.640109   280A      3.675482   281A      3.682675  
     282A      3.708585   283A      3.714974   284A      3.734370  
     285A      3.761358   286A      3.800198   287A      3.822111  
     288A      3.857713   289A      3.873176   290A      3.905528  
     291A      3.914237   292A      3.941224   293A      3.950050  
     294A      4.088711   295A      4.105819   296A      4.114479  
     297A      4.127788   298A      4.134305   299A      4.159534  
     300A      4.166498   301A      4.191510   302A      4.233820  
     303A      4.250383   304A      4.280521   305A      4.310259  
     306A      4.321555   307A      4.406851   308A      4.432909  
     309A      4.455023   310A      4.486870   311A      4.604130  
     312A      4.629123   313A      4.667919   314A      4.681324  
     315A      4.742867   316A      4.811683   317A      4.830418  
     318A      4.843870   319A      4.847028   320A      4.853056  
     321A      4.917621   322A      4.927684   323A      4.956327  
     324A      4.974643   325A      5.055896   326A      5.076196  
     327A      5.232690   328A      5.328845   329A      5.402835  
     330A      5.439186   331A      5.445640   332A      5.455736  
     333A      5.471630   334A      5.488614   335A      5.509635  
     336A      5.547056   337A      5.588242   338A      5.623113  
     339A      5.628760   340A      5.646419   341A      5.684196  
     342A      5.740064   343A      5.781142   344A      5.804685  
     345A      5.823285   346A      5.841780   347A      5.862146  
     348A      5.879873   349A      5.901672   350A      5.923589  
     351A      5.978311   352A      6.001677   353A      6.074945  
     354A      6.178275   355A      6.280798   356A      6.297134  
     357A      6.305987   358A      6.347433   359A      6.362035  
     360A      6.402884   361A      6.420621   362A      6.442019  
     363A      6.465626   364A      6.470183   365A      6.520298  
     366A      6.530296   367A      6.551329   368A      6.588050  
     369A      6.676307   370A      6.842801   371A      6.863726  
     372A      6.867300   373A      6.893593   374A      6.981458  
     375A      6.991396   376A      7.014103   377A      7.065629  
     378A      7.089754   379A      7.106866   380A      7.179188  
     381A      7.255189   382A      7.293760   383A      7.314457  
     384A      7.374766   385A      7.502426   386A      7.557022  
     387A      7.600659   388A      7.633643   389A      7.657692  
     390A      7.666344   391A      7.723782   392A      7.734997  
     393A      7.763485   394A      7.797919   395A      7.846930  
     396A      7.856738   397A      7.859822   398A      7.865079  
     399A      7.868431   400A      7.873270   401A      7.886538  
     402A      7.933720   403A      7.940604   404A      7.966823  
     405A      7.972200   406A      7.980219   407A      7.993545  
     408A      8.055342   409A      8.091697   410A      8.160475  
     411A      8.177268   412A      8.202735   413A      8.246674  
     414A      8.255678   415A      8.314299   416A      8.383973  
     417A      8.397226   418A      8.411826   419A      8.466841  
     420A      8.602391   421A      8.603163   422A      8.651286  
     423A      8.671251   424A      8.676743   425A      8.751142  
     426A      8.785219   427A      8.818867   428A      8.888035  
     429A      8.904582   430A      8.941766   431A      8.993361  
     432A      9.037467   433A      9.103537   434A      9.162085  
     435A      9.170204   436A      9.197232   437A      9.300784  
     438A      9.385103   439A      9.516431   440A      9.528797  
     441A      9.546080   442A      9.566852   443A      9.572283  
     444A      9.688892   445A      9.749901   446A      9.770422  
     447A      9.800270   448A      9.874216   449A      9.983156  
     450A     10.016544   451A     10.029088   452A     10.064853  
     453A     10.111069   454A     10.346154   455A     10.357719  
     456A     10.462439   457A     10.527550   458A     10.674789  
     459A     10.679417   460A     10.743633   461A     10.785601  
     462A     10.789844   463A     10.806364   464A     10.963497  
     465A     11.008187   466A     11.050252   467A     11.092358  
     468A     11.154412   469A     11.277037   470A     11.391329  
     471A     11.408646   472A     11.417441   473A     11.466500  
     474A     11.709152   475A     11.769537   476A     11.826610  
     477A     11.865737   478A     12.049964   479A     12.075746  
     480A     12.186849   481A     12.268392   482A     12.564989  
     483A     12.764494   484A     12.889217   485A     12.900673  
     486A     13.007709   487A     13.012538   488A     13.232434  
     489A     13.944453   490A     14.008370   491A     14.143843  
     492A     14.283673   493A     14.494769   494A     14.851422  
     495A     14.897584   496A     15.327493   497A     16.721630  
     498A     16.978427   499A     17.289644   500A     17.312601  
     501A     31.093397   502A     31.095483   503A     31.109515  
     504A     31.142814   505A     31.312420   506A     31.363866  
     507A     42.806101   508A     43.423517   509A     45.639993  
     510A     70.500952   511A    160.352052   512A    160.428083  

    Final Occupation by Irrep:
              A 
    DOCC [     5 ]

  @DF-RHF Final Energy:   -76.06581921911669

   => Energetics <=

    Nuclear Repulsion Energy =              9.1835494199383341
    One-Electron Energy =                -123.0495812915580700
    Two-Electron Energy =                  37.8002126525030491
    Total Energy =                        -76.0658192191166904

Computation Completed


Properties will be evaluated at   0.000000,  -0.000000,  -0.000000 [a0]

Properties computed using the SCF density matrix

  Nuclear Dipole Moment: [e a0]
     X:   -76.8797      Y:   -10.7397      Z:     6.2538

  Electronic Dipole Moment: [e a0]
     X:    77.5027      Y:    10.3271      Z:    -6.1638

  Dipole Moment: [e a0]
     X:     0.6231      Y:    -0.4126      Z:     0.0900     Total:     0.7527

  Dipole Moment: [D]
     X:     1.5837      Y:    -1.0487      Z:     0.2288     Total:     1.9131


*** tstop() called on node37.bme.utexas.edu at Tue Feb 22 17:55:16 2022
Module time:
	user time   =      94.11 seconds =       1.57 minutes
	system time =       4.44 seconds =       0.07 minutes
	total time  =         34 seconds =       0.57 minutes
Total time:
	user time   =     149.24 seconds =       2.49 minutes
	system time =       7.82 seconds =       0.13 minutes
	total time  =         58 seconds =       0.97 minutes

*** tstart() called on node37.bme.utexas.edu
*** at Tue Feb 22 17:55:16 2022


  //>>>>>>>>>>>>>>>>>>>>>>>>>>>>>>>>>>>//
  //               DFMP2               //
  //<<<<<<<<<<<<<<<<<<<<<<<<<<<<<<<<<<<//

   => Loading Basis Set <=

    Name: (AUG-CC-PVQZ AUX)
    Role: RIFIT
    Keyword: DF_BASIS_MP2
    atoms 1-2      entry CL         line   914 file /home/bdw2292/miniconda3/envs/amoebamdpoltype/share/psi4/basis/aug-cc-pvqz-ri.gbs 
    atoms 3        entry C          line   184 file /home/bdw2292/miniconda3/envs/amoebamdpoltype/share/psi4/basis/aug-cc-pvqz-ri.gbs 
    atoms 4-5, 7-8 entry H          line    30 file /home/bdw2292/miniconda3/envs/amoebamdpoltype/share/psi4/basis/aug-cc-pvqz-ri.gbs 
    atoms 6        entry O          line   332 file /home/bdw2292/miniconda3/envs/amoebamdpoltype/share/psi4/basis/aug-cc-pvqz-ri.gbs 

	 --------------------------------------------------------
	                          DF-MP2                         
	      2nd-Order Density-Fitted Moller-Plesset Theory     
	              RMP2 Wavefunction,   4 Threads             
	                                                         
	        Rob Parrish, Justin Turney, Andy Simmonett,      
	           Ed Hohenstein, and C. David Sherrill          
	 --------------------------------------------------------

   => Auxiliary Basis Set <=

  Basis Set: (AUG-CC-PVQZ AUX)
    Blend: AUG-CC-PVQZ-RI
    Number of shells: 240
    Number of basis function: 1044
    Number of Cartesian functions: 1430
    Spherical Harmonics?: true
    Max angular momentum: 5

	 --------------------------------------------------------
	                 NBF =   512, NAUX =  1044
	 --------------------------------------------------------
	   CLASS    FOCC     OCC    AOCC    AVIR     VIR    FVIR
	   PAIRS       1       5       4     507     507       0
	 --------------------------------------------------------

	-----------------------------------------------------------
	 ==================> DF-MP2 Energies <==================== 
	-----------------------------------------------------------
	 Reference Energy          =     -76.0658192191166904 [Eh]
	 Singles Energy            =      -0.0000000000000000 [Eh]
	 Same-Spin Energy          =      -0.0671642056286852 [Eh]
	 Opposite-Spin Energy      =      -0.2185486857319802 [Eh]
	 Correlation Energy        =      -0.2857128913606655 [Eh]
	 Total Energy              =     -76.3515321104773506 [Eh]
	-----------------------------------------------------------
	 ================> DF-SCS-MP2 Energies <================== 
	-----------------------------------------------------------
	 SCS Same-Spin Scale       =       0.3333333333333333 [-]
	 SCS Opposite-Spin Scale   =       1.2000000000000000 [-]
	 SCS Same-Spin Energy      =      -0.0223880685428951 [Eh]
	 SCS Opposite-Spin Energy  =      -0.2622584228783762 [Eh]
	 SCS Correlation Energy    =      -0.2846464914212713 [Eh]
	 SCS Total Energy          =     -76.3504657105379607 [Eh]
	-----------------------------------------------------------


*** tstop() called on node37.bme.utexas.edu at Tue Feb 22 17:55:33 2022
Module time:
	user time   =      40.34 seconds =       0.67 minutes
	system time =       2.55 seconds =       0.04 minutes
	total time  =         17 seconds =       0.28 minutes
Total time:
	user time   =     189.59 seconds =       3.16 minutes
	system time =      10.37 seconds =       0.17 minutes
	total time  =         75 seconds =       1.25 minutes

  //>>>>>>>>>>>>>>>>>>>>>>>>>>>>>>>>>>>//
  //  CBS Results: mp2/aug-cc-pV[TQ]Z  //
  //<<<<<<<<<<<<<<<<<<<<<<<<<<<<<<<<<<<//


   ==> HF <==

   HI-zeta (4) Energy:               -76.065819219117


   ==> Helgaker 2-point correlated extrapolation for method: MP2 <==

   LO-zeta (3) Energy:               -76.328605354240
   HI-zeta (4) Energy:               -76.351532110477
   Alpha (exponent) Value:             3.000000000000
   Extrapolated Energy:              -76.368262446110

   @Extrapolated MP2/(T,Q):          -76.368262446110



   ==> Helgaker 2-point correlated extrapolation for method: HF <==

   LO-zeta (3) Energy:               -76.060442131192
   HI-zeta (4) Energy:               -76.065819219117
   Alpha (exponent) Value:             3.000000000000
   Extrapolated Energy:              -76.069743040035

   @Extrapolated HF/(T,Q):           -76.069743040035


   ==> Components <==

  ---------------------------------------------------------------------------------------------------------
                          Method / Basis                      Rqd      Energy [Eh]   Variable
  ---------------------------------------------------------------------------------------------------------
                              hf / aug-cc-pvtz                  *     -76.06044213   HF TOTAL ENERGY
                             mp2 / aug-cc-pvtz                  *     -76.32860535   MP2 TOTAL ENERGY
                              hf / aug-cc-pvqz                  *     -76.06581922   HF TOTAL ENERGY
                             mp2 / aug-cc-pvqz                  *     -76.35153211   MP2 TOTAL ENERGY
  ---------------------------------------------------------------------------------------------------------

   ==> Stages <==

  ---------------------------------------------------------------------------------------------------------
      Stage               Method / Basis                       Wt      Energy [Eh]   Scheme
  ---------------------------------------------------------------------------------------------------------
        scf                   hf / aug-cc-pvqz                  1     -76.06581922   xtpl_highest_1
       corl                  mp2 / aug-cc-pv[tq]z               1     -76.36826245   corl_xtpl_helgaker_2
       corl                   hf / aug-cc-pv[tq]z              -1     -76.06974304   corl_xtpl_helgaker_2
  ---------------------------------------------------------------------------------------------------------

   ==> CBS <==

  ---------------------------------------------------------------------------------------------------------
      Stage               Method / Basis                               Energy [Eh]   Scheme
  ---------------------------------------------------------------------------------------------------------
        scf                   hf / aug-cc-pvqz                        -76.06581922   xtpl_highest_1
       corl                  mp2 / aug-cc-pv[tq]z                      -0.29851941   corl_xtpl_helgaker_2
      total                  CBS                                      -76.36433863   
  ---------------------------------------------------------------------------------------------------------
   => Loading Basis Set <=

    Name: DEF2-SVP
    Role: ORBITAL
    Keyword: BASIS
    atoms 1-2      entry CL         line   356 file /home/bdw2292/miniconda3/envs/amoebamdpoltype/share/psi4/basis/def2-svp.gbs 
    atoms 3        entry C          line    90 file /home/bdw2292/miniconda3/envs/amoebamdpoltype/share/psi4/basis/def2-svp.gbs 
    atoms 4-5, 7-8 entry H          line    15 file /home/bdw2292/miniconda3/envs/amoebamdpoltype/share/psi4/basis/def2-svp.gbs 
    atoms 6        entry O          line   130 file /home/bdw2292/miniconda3/envs/amoebamdpoltype/share/psi4/basis/def2-svp.gbs 


       N-Body: Complex Energy (fragments = (2,), basis = (1, 2):   -76.36433862519218)

       N-Body: Computing complex (3/4) with fragments (1,) in the basis of fragments (1, 2).


  //>>>>>>>>>>>>>>>>>>>>>>>>>>>>>>>>>>>//
  //   CBS Setup: mp2/aug-cc-pV[TQ]Z   //
  //<<<<<<<<<<<<<<<<<<<<<<<<<<<<<<<<<<<//

    Naive listing of computations required.
             hf / aug-cc-pvqz              for  HF TOTAL ENERGY
            mp2 / aug-cc-pvtz              for  MP2 TOTAL ENERGY
            mp2 / aug-cc-pvqz              for  MP2 TOTAL ENERGY
             hf / aug-cc-pvtz              for  HF TOTAL ENERGY
             hf / aug-cc-pvqz              for  HF TOTAL ENERGY

    Enlightened listing of computations required.
            mp2 / aug-cc-pvtz              for  MP2 TOTAL ENERGY
            mp2 / aug-cc-pvqz              for  MP2 TOTAL ENERGY

    Full listing of computations to be obtained (required and bonus).
             hf / aug-cc-pvtz              for  HF TOTAL ENERGY
            mp2 / aug-cc-pvtz              for  MP2 TOTAL ENERGY
             hf / aug-cc-pvqz              for  HF TOTAL ENERGY
            mp2 / aug-cc-pvqz              for  MP2 TOTAL ENERGY

  //>>>>>>>>>>>>>>>>>>>>>>>>>>>>>>>>>>>>//
  // CBS Computation: MP2 / AUG-CC-PVTZ //
  //<<<<<<<<<<<<<<<<<<<<<<<<<<<<<<<<<<<<//

    SCF Algorithm Type (re)set to DF.

*** tstart() called on node37.bme.utexas.edu
*** at Tue Feb 22 17:55:35 2022

   => Loading Basis Set <=

    Name: AUG-CC-PVTZ
    Role: ORBITAL
    Keyword: BASIS
    atoms 1-2      entry CL         line   984 file /home/bdw2292/miniconda3/envs/amoebamdpoltype/share/psi4/basis/aug-cc-pvtz.gbs 
    atoms 3        entry C          line   235 file /home/bdw2292/miniconda3/envs/amoebamdpoltype/share/psi4/basis/aug-cc-pvtz.gbs 
    atoms 4-5, 7-8 entry H          line    36 file /home/bdw2292/miniconda3/envs/amoebamdpoltype/share/psi4/basis/aug-cc-pvtz.gbs 
[...]
      66A      0.347745    67A      0.351451    68A      0.360025  
      69A      0.362141    70A      0.366716    71A      0.372375  
      72A      0.378183    73A      0.386051    74A      0.400703  
      75A      0.420722    76A      0.432558    77A      0.456296  
      78A      0.482930    79A      0.485317    80A      0.513484  
      81A      0.521628    82A      0.528665    83A      0.534509  
      84A      0.544181    85A      0.553322    86A      0.558899  
      87A      0.570020    88A      0.573319    89A      0.574104  
      90A      0.578446    91A      0.587548    92A      0.601518  
      93A      0.612560    94A      0.616216    95A      0.637970  
      96A      0.640802    97A      0.654301    98A      0.660642  
      99A      0.663174   100A      0.668075   101A      0.675269  
     102A      0.684800   103A      0.698369   104A      0.705184  
     105A      0.711611   106A      0.721882   107A      0.726039  
     108A      0.735844   109A      0.747802   110A      0.749567  
     111A      0.768863   112A      0.771035   113A      0.776849  
     114A      0.781175   115A      0.789032   116A      0.801974  
     117A      0.809046   118A      0.819618   119A      0.830470  
     120A      0.838469   121A      0.846025   122A      0.853426  
     123A      0.866111   124A      0.897981   125A      0.908147  
     126A      0.913340   127A      0.924408   128A      0.933293  
     129A      0.934990   130A      0.955302   131A      0.965253  
     132A      0.980262   133A      0.993637   134A      1.015208  
     135A      1.035430   136A      1.045035   137A      1.052606  
     138A      1.070686   139A      1.083778   140A      1.103788  
     141A      1.112847   142A      1.130046   143A      1.135548  
     144A      1.146912   145A      1.163511   146A      1.184299  
     147A      1.189746   148A      1.198799   149A      1.202385  
     150A      1.219086   151A      1.227230   152A      1.235149  
     153A      1.242304   154A      1.249836   155A      1.261897  
     156A      1.274029   157A      1.298736   158A      1.316985  
     159A      1.329016   160A      1.335420   161A      1.348231  
     162A      1.405287   163A      1.411819   164A      1.434421  
     165A      1.467948   166A      1.483768   167A      1.488752  
     168A      1.509405   169A      1.522578   170A      1.553355  
     171A      1.583446   172A      1.588738   173A      1.608432  
     174A      1.616685   175A      1.642957   176A      1.650927  
     177A      1.671295   178A      1.676660   179A      1.679288  
     180A      1.681084   181A      1.699631   182A      1.709580  
     183A      1.713181   184A      1.717163   185A      1.726345  
     186A      1.741348   187A      1.762102   188A      1.774447  
     189A      1.780869   190A      1.791816   191A      1.795242  
     192A      1.807127   193A      1.819969   194A      1.830224  
     195A      1.843167   196A      1.857192   197A      1.868948  
     198A      1.874104   199A      1.882864   200A      1.883784  
     201A      1.886666   202A      1.890784   203A      1.903443  
     204A      1.914587   205A      1.928101   206A      1.941123  
     207A      1.953856   208A      1.962632   209A      1.972888  
     210A      1.982362   211A      1.993581   212A      2.004686  
     213A      2.017708   214A      2.039295   215A      2.043216  
     216A      2.054698   217A      2.058413   218A      2.072447  
     219A      2.075961   220A      2.084198   221A      2.089550  
     222A      2.098009   223A      2.112325   224A      2.129482  
     225A      2.137167   226A      2.143353   227A      2.151926  
     228A      2.160054   229A      2.163749   230A      2.183106  
     231A      2.194556   232A      2.198017   233A      2.218855  
     234A      2.232969   235A      2.247064   236A      2.255882  
     237A      2.258065   238A      2.269833   239A      2.278397  
     240A      2.301370   241A      2.315388   242A      2.324137  
     243A      2.350411   244A      2.358504   245A      2.373383  
     246A      2.383675   247A      2.410238   248A      2.417802  
     249A      2.425675   250A      2.436482   251A      2.449843  
     252A      2.463708   253A      2.487020   254A      2.495148  
     255A      2.504943   256A      2.515982   257A      2.533508  
     258A      2.576039   259A      2.588844   260A      2.611820  
     261A      2.617570   262A      2.638408   263A      2.669016  
     264A      2.736121   265A      2.754740   266A      2.774423  
     267A      2.794372   268A      2.817412   269A      2.820958  
     270A      2.892817   271A      2.896341   272A      2.902496  
     273A      2.912858   274A      2.915066   275A      2.985739  
     276A      3.013305   277A      3.017075   278A      3.040238  
     279A      3.045228   280A      3.089592   281A      3.093680  
     282A      3.103861   283A      3.113186   284A      3.165644  
     285A      3.202322   286A      3.213126   287A      3.248638  
     288A      3.267010   289A      3.310594   290A      3.316355  
     291A      3.332318   292A      3.365223   293A      3.385613  
     294A      3.402605   295A      3.457798   296A      3.479852  
     297A      3.519016   298A      3.560073   299A      3.606875  
     300A      3.645172   301A      3.671206   302A      3.677656  
     303A      3.706661   304A      3.718335   305A      3.733973  
     306A      3.746674   307A      3.754980   308A      3.797480  
     309A      3.813446   310A      3.855501   311A      3.919124  
     312A      3.940824   313A      3.946507   314A      3.965978  
     315A      4.012919   316A      4.097929   317A      4.124588  
     318A      4.140793   319A      4.166274   320A      4.187385  
     321A      4.192654   322A      4.203397   323A      4.234843  
     324A      4.250925   325A      4.307950   326A      4.348776  
     327A      4.367210   328A      4.404242   329A      4.448276  
     330A      4.479011   331A      4.497680   332A      4.509237  
     333A      4.538951   334A      4.559116   335A      4.564236  
     336A      4.583261   337A      4.629618   338A      4.653792  
     339A      4.674105   340A      4.685263   341A      4.688892  
     342A      4.710922   343A      4.725384   344A      4.731538  
     345A      4.744913   346A      4.749339   347A      4.766090  
     348A      4.778321   349A      4.787585   350A      4.799538  
     351A      4.813702   352A      4.829323   353A      4.835409  
     354A      4.844052   355A      4.853295   356A      4.862121  
     357A      4.873421   358A      4.888160   359A      4.899691  
     360A      4.918271   361A      4.930780   362A      4.938321  
     363A      4.970584   364A      4.986441   365A      4.996372  
     366A      5.011176   367A      5.025643   368A      5.052658  
     369A      5.063319   370A      5.080383   371A      5.087481  
     372A      5.147517   373A      5.180503   374A      5.216349  
     375A      5.242561   376A      5.263328   377A      5.327741  
     378A      5.336844   379A      5.381116   380A      5.399829  
     381A      5.439897   382A      5.463216   383A      5.529704  
     384A      5.567130   385A      5.615069   386A      5.667964  
     387A      5.895396   388A      5.916286   389A      6.138613  
     390A      6.294604   391A      6.303080   392A      6.346978  
     393A      6.350956   394A      6.375977   395A      6.391014  
     396A      6.524070   397A      6.570842   398A      6.606565  
     399A      6.656709   400A      6.727884   401A      6.764612  
     402A      6.812618   403A      6.821911   404A      6.839563  
     405A      6.846003   406A      6.866441   407A      6.870529  
     408A      6.888458   409A      6.936337   410A      6.939235  
     411A      6.982851   412A      6.997663   413A      7.003665  
     414A      7.031976   415A      7.147203   416A      7.172400  
     417A      7.233131   418A      7.354441   419A      7.434592  
     420A      7.457263   421A      7.566058   422A      7.587359  
     423A      7.604492   424A      7.663945   425A      7.723386  
     426A      7.754047   427A      7.764191   428A      7.798205  
     429A      7.806881   430A      7.854328   431A      7.869073  
     432A      7.889820   433A      7.940158   434A      7.989879  
     435A      8.014918   436A      8.059380   437A      8.089363  
     438A      8.111255   439A      8.205692   440A      8.313848  
     441A      8.402704   442A      8.494327   443A      8.536848  
     444A      8.581926   445A      8.600988   446A      8.612508  
     447A      8.721690   448A      8.758806   449A      8.787916  
     450A      8.801521   451A      8.858375   452A      8.890981  
     453A      8.902209   454A      8.938573   455A      8.996507  
     456A      9.109442   457A      9.117616   458A      9.174704  
     459A      9.210278   460A      9.429449   461A      9.468121  
     462A      9.496057   463A      9.501553   464A      9.538292  
     465A      9.560481   466A      9.776215   467A      9.876822  
     468A      9.934695   469A      9.946429   470A      9.986148  
     471A     10.020796   472A     10.032494   473A     10.301177  
     474A     10.383299   475A     10.464874   476A     10.531063  
     477A     10.572779   478A     10.751966   479A     10.756437  
     480A     10.775171   481A     11.009288   482A     11.048611  
     483A     11.054702   484A     11.156279   485A     11.280188  
     486A     11.396046   487A     11.468656   488A     11.712034  
     489A     11.828287   490A     11.868278   491A     12.052437  
     492A     12.189481   493A     12.270791   494A     12.567447  
     495A     12.766804   496A     12.892641   497A     12.903654  
     498A     13.012769   499A     13.080414   500A     13.235391  
     501A     14.009558   502A     14.146172   503A     14.497696  
     504A     14.854485   505A     14.900167   506A     15.330596  
     507A     16.980929   508A     17.293094   509A     26.040486  
     510A     26.729952   511A     27.905017   512A     45.639852  

    Final Occupation by Irrep:
              A 
    DOCC [    26 ]

  @DF-RHF Final Energy: -1034.15482771356665

   => Energetics <=

    Nuclear Repulsion Energy =            189.7331349743968190
    One-Electron Energy =               -1805.2753762323845876
    Two-Electron Energy =                 581.3874135444211788
    Total Energy =                      -1034.1548277135666467

Computation Completed


Properties will be evaluated at   0.000000,  -0.000000,  -0.000000 [a0]

Properties computed using the SCF density matrix

  Nuclear Dipole Moment: [e a0]
     X:    -7.8601      Y:    -4.3282      Z:     1.0719

  Electronic Dipole Moment: [e a0]
     X:     8.3696      Y:     3.2761      Z:    -0.9118

  Dipole Moment: [e a0]
     X:     0.5095      Y:    -1.0520      Z:     0.1601     Total:     1.1798

  Dipole Moment: [D]
     X:     1.2950      Y:    -2.6740      Z:     0.4069     Total:     2.9988


*** tstop() called on node37.bme.utexas.edu at Tue Feb 22 17:58:30 2022
Module time:
	user time   =     115.19 seconds =       1.92 minutes
	system time =       5.68 seconds =       0.09 minutes
	total time  =         41 seconds =       0.68 minutes
Total time:
	user time   =     639.86 seconds =      10.66 minutes
	system time =      35.47 seconds =       0.59 minutes
	total time  =        252 seconds =       4.20 minutes

*** tstart() called on node37.bme.utexas.edu
*** at Tue Feb 22 17:58:30 2022


  //>>>>>>>>>>>>>>>>>>>>>>>>>>>>>>>>>>>//
  //               DFMP2               //
  //<<<<<<<<<<<<<<<<<<<<<<<<<<<<<<<<<<<//

   => Loading Basis Set <=

    Name: (AUG-CC-PVQZ AUX)
    Role: RIFIT
    Keyword: DF_BASIS_MP2
    atoms 1-2      entry CL         line   914 file /home/bdw2292/miniconda3/envs/amoebamdpoltype/share/psi4/basis/aug-cc-pvqz-ri.gbs 
    atoms 3        entry C          line   184 file /home/bdw2292/miniconda3/envs/amoebamdpoltype/share/psi4/basis/aug-cc-pvqz-ri.gbs 
    atoms 4-5, 7-8 entry H          line    30 file /home/bdw2292/miniconda3/envs/amoebamdpoltype/share/psi4/basis/aug-cc-pvqz-ri.gbs 
    atoms 6        entry O          line   332 file /home/bdw2292/miniconda3/envs/amoebamdpoltype/share/psi4/basis/aug-cc-pvqz-ri.gbs 

	 --------------------------------------------------------
	                          DF-MP2                         
	      2nd-Order Density-Fitted Moller-Plesset Theory     
	              RMP2 Wavefunction,   4 Threads             
	                                                         
	        Rob Parrish, Justin Turney, Andy Simmonett,      
	           Ed Hohenstein, and C. David Sherrill          
	 --------------------------------------------------------

   => Auxiliary Basis Set <=

  Basis Set: (AUG-CC-PVQZ AUX)
    Blend: AUG-CC-PVQZ-RI
    Number of shells: 240
    Number of basis function: 1044
    Number of Cartesian functions: 1430
    Spherical Harmonics?: true
    Max angular momentum: 5

	 --------------------------------------------------------
	                 NBF =   512, NAUX =  1044
	 --------------------------------------------------------
	   CLASS    FOCC     OCC    AOCC    AVIR     VIR    FVIR
	   PAIRS      12      26      14     486     486       0
	 --------------------------------------------------------

	-----------------------------------------------------------
	 ==================> DF-MP2 Energies <==================== 
	-----------------------------------------------------------
	 Reference Energy          =   -1034.1548277135666467 [Eh]
	 Singles Energy            =      -0.0000000000000000 [Eh]
	 Same-Spin Energy          =      -0.2093279172560570 [Eh]
	 Opposite-Spin Energy      =      -0.6864336223536793 [Eh]
	 Correlation Energy        =      -0.8957615396097363 [Eh]
	 Total Energy              =   -1035.0505892531764403 [Eh]
	-----------------------------------------------------------
	 ================> DF-SCS-MP2 Energies <================== 
	-----------------------------------------------------------
	 SCS Same-Spin Scale       =       0.3333333333333333 [-]
	 SCS Opposite-Spin Scale   =       1.2000000000000000 [-]
	 SCS Same-Spin Energy      =      -0.0697759724186857 [Eh]
	 SCS Opposite-Spin Energy  =      -0.8237203468244152 [Eh]
	 SCS Correlation Energy    =      -0.8934963192431009 [Eh]
	 SCS Total Energy          =   -1035.0483240328096599 [Eh]
	-----------------------------------------------------------


*** tstop() called on node37.bme.utexas.edu at Tue Feb 22 17:58:50 2022
Module time:
	user time   =      46.72 seconds =       0.78 minutes
	system time =       3.59 seconds =       0.06 minutes
	total time  =         20 seconds =       0.33 minutes
Total time:
	user time   =     686.58 seconds =      11.44 minutes
	system time =      39.06 seconds =       0.65 minutes
	total time  =        272 seconds =       4.53 minutes

  //>>>>>>>>>>>>>>>>>>>>>>>>>>>>>>>>>>>//
  //  CBS Results: mp2/aug-cc-pV[TQ]Z  //
  //<<<<<<<<<<<<<<<<<<<<<<<<<<<<<<<<<<<//


   ==> HF <==

   HI-zeta (4) Energy:               -1034.154827713567


   ==> Helgaker 2-point correlated extrapolation for method: MP2 <==

   LO-zeta (3) Energy:               -1034.975082947647
   HI-zeta (4) Energy:               -1035.050589253176
   Alpha (exponent) Value:             3.000000000000
   Extrapolated Energy:              -1035.105688449103

   @Extrapolated MP2/(T,Q):          -1035.105688449103



   ==> Helgaker 2-point correlated extrapolation for method: HF <==

   LO-zeta (3) Energy:               -1034.139762482712
   HI-zeta (4) Energy:               -1034.154827713567
   Alpha (exponent) Value:             3.000000000000
   Extrapolated Energy:              -1034.165821260407

   @Extrapolated HF/(T,Q):           -1034.165821260407


   ==> Components <==

  ---------------------------------------------------------------------------------------------------------
                          Method / Basis                      Rqd      Energy [Eh]   Variable
  ---------------------------------------------------------------------------------------------------------
                              hf / aug-cc-pvtz                  *   -1034.13976248   HF TOTAL ENERGY
                             mp2 / aug-cc-pvtz                  *   -1034.97508295   MP2 TOTAL ENERGY
                              hf / aug-cc-pvqz                  *   -1034.15482771   HF TOTAL ENERGY
                             mp2 / aug-cc-pvqz                  *   -1035.05058925   MP2 TOTAL ENERGY
  ---------------------------------------------------------------------------------------------------------

   ==> Stages <==

  ---------------------------------------------------------------------------------------------------------
      Stage               Method / Basis                       Wt      Energy [Eh]   Scheme
  ---------------------------------------------------------------------------------------------------------
        scf                   hf / aug-cc-pvqz                  1   -1034.15482771   xtpl_highest_1
       corl                  mp2 / aug-cc-pv[tq]z               1   -1035.10568845   corl_xtpl_helgaker_2
       corl                   hf / aug-cc-pv[tq]z              -1   -1034.16582126   corl_xtpl_helgaker_2
  ---------------------------------------------------------------------------------------------------------

   ==> CBS <==

  ---------------------------------------------------------------------------------------------------------
      Stage               Method / Basis                               Energy [Eh]   Scheme
  ---------------------------------------------------------------------------------------------------------
        scf                   hf / aug-cc-pvqz                      -1034.15482771   xtpl_highest_1
       corl                  mp2 / aug-cc-pv[tq]z                      -0.93986719   corl_xtpl_helgaker_2
      total                  CBS                                    -1035.09469490   
  ---------------------------------------------------------------------------------------------------------
   => Loading Basis Set <=

    Name: DEF2-SVP
    Role: ORBITAL
    Keyword: BASIS
    atoms 1-2      entry CL         line   356 file /home/bdw2292/miniconda3/envs/amoebamdpoltype/share/psi4/basis/def2-svp.gbs 
    atoms 3        entry C          line    90 file /home/bdw2292/miniconda3/envs/amoebamdpoltype/share/psi4/basis/def2-svp.gbs 
    atoms 4-5, 7-8 entry H          line    15 file /home/bdw2292/miniconda3/envs/amoebamdpoltype/share/psi4/basis/def2-svp.gbs 
    atoms 6        entry O          line   130 file /home/bdw2292/miniconda3/envs/amoebamdpoltype/share/psi4/basis/def2-svp.gbs 


       N-Body: Complex Energy (fragments = (1, 2), basis = (1, 2): -1035.09469490226297)

   ==> N-Body: Counterpoise Corrected (CP) energies <==

   n-Body     Total Energy [Eh]       I.E. [kcal/mol]      Delta [kcal/mol]
        1    -1035.093138616967        0.000000000000        0.000000000000
        2    -1035.094651656776       -0.949446814474       -0.949446814474

   => Loading Basis Set <=

    Name: DEF2-SVP
    Role: ORBITAL
    Keyword: BASIS
    atoms 1-2      entry CL         line   356 file /home/bdw2292/miniconda3/envs/amoebamdpoltype/share/psi4/basis/def2-svp.gbs 
    atoms 3        entry C          line    90 file /home/bdw2292/miniconda3/envs/amoebamdpoltype/share/psi4/basis/def2-svp.gbs 
    atoms 4-5, 7-8 entry H          line    15 file /home/bdw2292/miniconda3/envs/amoebamdpoltype/share/psi4/basis/def2-svp.gbs 
    atoms 6        entry O          line   130 file /home/bdw2292/miniconda3/envs/amoebamdpoltype/share/psi4/basis/def2-svp.gbs 

CP Energy =  -0.001513
    Psi4 stopped on: Tuesday, 22 February 2022 05:58PM
    Psi4 wall time for execution: 0:04:33.79

*** Psi4 exiting successfully. Buy a developer a beer!
