
    -----------------------------------------------------------------------
          Psi4: An Open-Source Ab Initio Electronic Structure Package
                               Psi4 1.3.2 release

                         Git: Rev {HEAD} ecbda83 


    R. M. Parrish, L. A. Burns, D. G. A. Smith, A. C. Simmonett,
    A. E. DePrince III, E. G. Hohenstein, U. Bozkaya, A. Yu. Sokolov,
    R. Di Remigio, R. M. Richard, J. F. Gonthier, A. M. James,
    H. R. McAlexander, A. Kumar, M. Saitow, X. Wang, B. P. Pritchard,
    P. Verma, H. F. Schaefer III, K. Patkowski, R. A. King, E. F. Valeev,
    F. A. Evangelista, J. M. Turney, T. D. Crawford, and C. D. Sherrill,
    J. Chem. Theory Comput. 13(7) pp 3185--3197 (2017).
    (doi: 10.1021/acs.jctc.7b00174)


                         Additional Contributions by
    P. Kraus, H. Kruse, M. H. Lechner, M. C. Schieber, R. A. Shaw,
    A. Alenaizan, R. Galvelis, Z. L. Glick, S. Lehtola, and J. P. Misiewicz

    -----------------------------------------------------------------------


    Psi4 started on: Tuesday, 22 February 2022 05:49PM

    Process ID: 26007
    Host:       node37.bme.utexas.edu
    PSIDATADIR: /home/bdw2292/miniconda3/envs/amoebamdpoltype/share/psi4
    Memory:     500.0 MiB
    Threads:    1
    
  ==> Input File <==

--------------------------------------------------------------------------
molecule { 
0 1
 Cl                 -0.8869533     0.6775213    -0.2883658
 Cl                  1.9056014    -0.2292421     0.0374276
  C                  0.1983835    -0.6935655    -0.0102364
  H                 -0.0561714    -1.1445283     0.9490648
  H                  0.0635140    -1.4078627    -0.8227287
--
0 1
  O                 -4.2530668    -0.4531595     0.2309102
  H                 -4.2252285    -1.3704556     0.5013946
  H                 -3.3549389    -0.1486878     0.0940837
}
memory 15GB
set_num_threads(4)
psi4_io.set_default_path("/scratch/bdw2292/Psi4-CH2Cl2")
set maxiter 500
set freeze_core True
set PROPERTIES_ORIGIN ["COM"]
e_dim= energy('mp2/aug-cc-pV[TQ]Z',bsse_type='cp')

psi4.print_out('CP Energy = %10.6f' % (e_dim))
clean()
--------------------------------------------------------------------------

  Memory set to  13.970 GiB by Python driver.
  Threads set to 4 by Python driver.


   ===> N-Body Interaction Abacus <===
        BSSE Treatment:                     cp
        Number of 1-body computations:     4
        Number of 2-body computations:     1

   ==> N-Body: Now computing 1-body complexes <==


       N-Body: Computing complex (1/4) with fragments (2,) in the basis of fragments (2,).


  //>>>>>>>>>>>>>>>>>>>>>>>>>>>>>>>>>>>//
  //   CBS Setup: mp2/aug-cc-pV[TQ]Z   //
  //<<<<<<<<<<<<<<<<<<<<<<<<<<<<<<<<<<<//

    Naive listing of computations required.
             hf / aug-cc-pvqz              for  HF TOTAL ENERGY
            mp2 / aug-cc-pvtz              for  MP2 TOTAL ENERGY
            mp2 / aug-cc-pvqz              for  MP2 TOTAL ENERGY
             hf / aug-cc-pvtz              for  HF TOTAL ENERGY
             hf / aug-cc-pvqz              for  HF TOTAL ENERGY

    Enlightened listing of computations required.
            mp2 / aug-cc-pvtz              for  MP2 TOTAL ENERGY
            mp2 / aug-cc-pvqz              for  MP2 TOTAL ENERGY

    Full listing of computations to be obtained (required and bonus).
             hf / aug-cc-pvtz              for  HF TOTAL ENERGY
            mp2 / aug-cc-pvtz              for  MP2 TOTAL ENERGY
             hf / aug-cc-pvqz              for  HF TOTAL ENERGY
            mp2 / aug-cc-pvqz              for  MP2 TOTAL ENERGY

  //>>>>>>>>>>>>>>>>>>>>>>>>>>>>>>>>>>>>//
  // CBS Computation: MP2 / AUG-CC-PVTZ //
  //<<<<<<<<<<<<<<<<<<<<<<<<<<<<<<<<<<<<//

    SCF Algorithm Type (re)set to DF.

*** tstart() called on node37.bme.utexas.edu
*** at Tue Feb 22 17:49:42 2022

   => Loading Basis Set <=

    Name: AUG-CC-PVTZ
    Role: ORBITAL
    Keyword: BASIS
    atoms 1   entry O          line   327 file /home/bdw2292/miniconda3/envs/amoebamdpoltype/share/psi4/basis/aug-cc-pvtz.gbs 
    atoms 2-3 entry H          line    36 file /home/bdw2292/miniconda3/envs/amoebamdpoltype/share/psi4/basis/aug-cc-pvtz.gbs 


         ---------------------------------------------------------
                                   SCF
               by Justin Turney, Rob Parrish, Andy Simmonett
                          and Daniel G. A. Smith
                              RHF Reference
                        4 Threads,  14305 MiB Core
         ---------------------------------------------------------

  ==> Geometry <==

    Molecular point group: c1
    Full point group: C1

    Geometry (in Angstrom), charge = 0, multiplicity = 1:

       Center              X                  Y                   Z               Mass       
    ------------   -----------------  -----------------  -----------------  -----------------
         O           -3.883740421118    -0.413943486239     0.274817948823    15.994914619570
         H           -3.855902121118    -1.331239586239     0.545302348823     1.007825032230
         H           -2.985612521118    -0.109471786239     0.137991448823     1.007825032230

  Running in c1 symmetry.

  Rotational constants: A =     18.21286  B =      0.06235  C =      0.06214 [cm^-1]
  Rotational constants: A = 546007.69373  B =   1869.23642  C =   1862.86050 [MHz]
  Nuclear repulsion =    9.183549880565497

  Charge       = 0
  Multiplicity = 1
  Electrons    = 10
  Nalpha       = 5
  Nbeta        = 5

  ==> Algorithm <==

  SCF Algorithm Type is DF.
  DIIS enabled.
  MOM disabled.
  Fractional occupation disabled.
  Guess Type is SAD.
  Energy threshold   = 1.00e-08
  Density threshold  = 1.00e-08
  Integral threshold = 0.00e+00

  ==> Primary Basis <==

  Basis Set: AUG-CC-PVTZ
    Blend: AUG-CC-PVTZ
    Number of shells: 32
    Number of basis function: 92
    Number of Cartesian functions: 105
    Spherical Harmonics?: true
    Max angular momentum: 3

   => Loading Basis Set <=

    Name: (AUG-CC-PVTZ AUX)
    Role: JKFIT
    Keyword: DF_BASIS_SCF
    atoms 1   entry O          line   286 file /home/bdw2292/miniconda3/envs/amoebamdpoltype/share/psi4/basis/aug-cc-pvtz-jkfit.gbs 
    atoms 2-3 entry H          line    70 file /home/bdw2292/miniconda3/envs/amoebamdpoltype/share/psi4/basis/aug-cc-pvtz-jkfit.gbs 

  ==> Pre-Iterations <==

   -------------------------------------------------------
    Irrep   Nso     Nmo     Nalpha   Nbeta   Ndocc  Nsocc
   -------------------------------------------------------
     A         92      92       0       0       0       0
   -------------------------------------------------------
    Total      92      92       5       5       5       0
   -------------------------------------------------------

  ==> Integral Setup <==

  DFHelper Memory: AOs need 0.015 GiB; user supplied 10.477 GiB. Using in-core AOs.

  ==> MemDFJK: Density-Fitted J/K Matrices <==

    J tasked:                   Yes
    K tasked:                   Yes
    wK tasked:                   No
    OpenMP threads:               4
    Memory [MiB]:             10728
    Algorithm:                 Core
    Schwarz Cutoff:           1E-12
    Mask sparsity (%):       0.0000
    Fitting Condition:        1E-10

   => Auxiliary Basis Set <=

  Basis Set: (AUG-CC-PVTZ AUX)
    Blend: AUG-CC-PVTZ-JKFIT
    Number of shells: 58
    Number of basis function: 196
    Number of Cartesian functions: 241
    Spherical Harmonics?: true
    Max angular momentum: 4

  Minimum eigenvalue in the overlap matrix is 3.7696851368E-04.
  Using Symmetric Orthogonalization.

  SCF Guess: Superposition of Atomic Densities via on-the-fly atomic UHF.

  ==> Iterations <==

                           Total Energy        Delta E     RMS |[F,P]|

   @DF-RHF iter SAD:   -75.47387606431262   -7.54739e+01   0.00000e+00 
   @DF-RHF iter   1:   -75.97658270256595   -5.02707e-01   5.09412e-03 DIIS
   @DF-RHF iter   2:   -76.02899485768536   -5.24122e-02   3.45149e-03 DIIS
   @DF-RHF iter   3:   -76.06000842046139   -3.10136e-02   2.34381e-04 DIIS
   @DF-RHF iter   4:   -76.06039813614129   -3.89716e-04   5.59659e-05 DIIS
   @DF-RHF iter   5:   -76.06042208605021   -2.39499e-05   1.25977e-05 DIIS
   @DF-RHF iter   6:   -76.06042404262961   -1.95658e-06   2.80550e-06 DIIS
   @DF-RHF iter   7:   -76.06042415062635   -1.07997e-07   5.30923e-07 DIIS
   @DF-RHF iter   8:   -76.06042415405841   -3.43206e-09   8.80110e-08 DIIS
   @DF-RHF iter   9:   -76.06042415413279   -7.43796e-11   2.18741e-08 DIIS
   @DF-RHF iter  10:   -76.06042415413681   -4.02167e-12   2.97649e-09 DIIS
  Energy and wave function converged.


  ==> Post-Iterations <==

    Orbital Energies [Eh]
    ---------------------

    Doubly Occupied:                                                      

       1A    -20.565430     2A     -1.350658     3A     -0.725324  
       4A     -0.577088     5A     -0.509148  

    Virtual:                                                              

       6A      0.029679     7A      0.047437     8A      0.136497  
       9A      0.157839    10A      0.174238    11A      0.182007  
      12A      0.228888    13A      0.244440    14A      0.263801  
      15A      0.304859    16A      0.313317    17A      0.365211  
      18A      0.437949    19A      0.466805    20A      0.602324  
      21A      0.654132    22A      0.711218    23A      0.719195  
      24A      0.731217    25A      0.827933    26A      0.843707  
      27A      0.889963    28A      0.912886    29A      0.920576  
      30A      0.924087    31A      0.927864    32A      0.971608  
      33A      1.023028    34A      1.045366    35A      1.085228  
      36A      1.114322    37A      1.172616    38A      1.177229  
      39A      1.259606    40A      1.514620    41A      1.564381  
      42A      1.596294    43A      1.783925    44A      1.796969  
      45A      2.004029    46A      2.115877    47A      2.259545  
      48A      2.318730    49A      2.320813    50A      2.413003  
      51A      2.414273    52A      2.438374    53A      2.471222  
      54A      2.687223    55A      2.703424    56A      2.768061  
      57A      2.858528    58A      2.883781    59A      3.644956  
      60A      3.770442    61A      4.007106    62A      4.090376  
      63A      4.212840    64A      4.230782    65A      4.337209  
      66A      4.382085    67A      4.400515    68A      4.418239  
      69A      4.492518    70A      4.707022    71A      4.811259  
      72A      5.124455    73A      5.173406    74A      5.308002  
      75A      5.330297    76A      5.513076    77A      5.723445  
      78A      6.138333    79A      6.535010    80A      6.713264  
      81A      6.857411    82A      7.146639    83A      7.262937  
      84A      7.297712    85A      7.307542    86A      7.371305  
      87A      7.390776    88A      7.559371    89A      7.896397  
      90A      7.966059    91A      8.788588    92A     15.864470  

    Final Occupation by Irrep:
              A 
    DOCC [     5 ]

  @DF-RHF Final Energy:   -76.06042415413681

   => Energetics <=

    Nuclear Repulsion Energy =              9.1835498805654971
    One-Electron Energy =                -123.0326537700050125
    Two-Electron Energy =                  37.7886797353027077
    Total Energy =                        -76.0604241541368111

Computation Completed


Properties will be evaluated at  -7.241290,  -0.847042,   0.533464 [a0]

Properties computed using the SCF density matrix

  Nuclear Dipole Moment: [e a0]
     X:     0.7707      Y:    -0.5100      Z:     0.1112

  Electronic Dipole Moment: [e a0]
     X:    -0.1469      Y:     0.0970      Z:    -0.0211

  Dipole Moment: [e a0]
     X:     0.6238      Y:    -0.4131      Z:     0.0901     Total:     0.7535

  Dipole Moment: [D]
     X:     1.5854      Y:    -1.0499      Z:     0.2290     Total:     1.9153


*** tstop() called on node37.bme.utexas.edu at Tue Feb 22 17:49:49 2022
Module time:
	user time   =       6.01 seconds =       0.10 minutes
	system time =       0.57 seconds =       0.01 minutes
	total time  =          7 seconds =       0.12 minutes
Total time:
	user time   =       6.01 seconds =       0.10 minutes
	system time =       0.57 seconds =       0.01 minutes
	total time  =          7 seconds =       0.12 minutes

*** tstart() called on node37.bme.utexas.edu
*** at Tue Feb 22 17:49:49 2022


  //>>>>>>>>>>>>>>>>>>>>>>>>>>>>>>>>>>>//
  //               DFMP2               //
  //<<<<<<<<<<<<<<<<<<<<<<<<<<<<<<<<<<<//

   => Loading Basis Set <=

    Name: (AUG-CC-PVTZ AUX)
    Role: RIFIT
    Keyword: DF_BASIS_MP2
    atoms 1   entry O          line   264 file /home/bdw2292/miniconda3/envs/amoebamdpoltype/share/psi4/basis/aug-cc-pvtz-ri.gbs 
    atoms 2-3 entry H          line    30 file /home/bdw2292/miniconda3/envs/amoebamdpoltype/share/psi4/basis/aug-cc-pvtz-ri.gbs 

	 --------------------------------------------------------
	                          DF-MP2                         
	      2nd-Order Density-Fitted Moller-Plesset Theory     
	              RMP2 Wavefunction,   4 Threads             
	                                                         
	        Rob Parrish, Justin Turney, Andy Simmonett,      
	           Ed Hohenstein, and C. David Sherrill          
	 --------------------------------------------------------

   => Auxiliary Basis Set <=

  Basis Set: (AUG-CC-PVTZ AUX)
    Blend: AUG-CC-PVTZ-RI
    Number of shells: 56
    Number of basis function: 198
    Number of Cartesian functions: 246
    Spherical Harmonics?: true
    Max angular momentum: 4

	 --------------------------------------------------------
	                 NBF =    92, NAUX =   198
	 --------------------------------------------------------
	   CLASS    FOCC     OCC    AOCC    AVIR     VIR    FVIR
	   PAIRS       1       5       4      87      87       0
	 --------------------------------------------------------

	-----------------------------------------------------------
	 ==================> DF-MP2 Energies <==================== 
	-----------------------------------------------------------
	 Reference Energy          =     -76.0604241541368111 [Eh]
	 Singles Energy            =      -0.0000000000000000 [Eh]
	 Same-Spin Energy          =      -0.0650916009354067 [Eh]
	 Opposite-Spin Energy      =      -0.2029660295522652 [Eh]
	 Correlation Energy        =      -0.2680576304876718 [Eh]
	 Total Energy              =     -76.3284817846244863 [Eh]
	-----------------------------------------------------------
	 ================> DF-SCS-MP2 Energies <================== 
	-----------------------------------------------------------
	 SCS Same-Spin Scale       =       0.3333333333333333 [-]
	 SCS Opposite-Spin Scale   =       1.2000000000000000 [-]
	 SCS Same-Spin Energy      =      -0.0216972003118022 [Eh]
	 SCS Opposite-Spin Energy  =      -0.2435592354627182 [Eh]
	 SCS Correlation Energy    =      -0.2652564357745204 [Eh]
	 SCS Total Energy          =     -76.3256805899113289 [Eh]
	-----------------------------------------------------------


*** tstop() called on node37.bme.utexas.edu at Tue Feb 22 17:49:50 2022
Module time:
	user time   =       1.73 seconds =       0.03 minutes
	system time =       0.15 seconds =       0.00 minutes
	total time  =          1 seconds =       0.02 minutes
Total time:
	user time   =       7.75 seconds =       0.13 minutes
	system time =       0.72 seconds =       0.01 minutes
	total time  =          8 seconds =       0.13 minutes

  //>>>>>>>>>>>>>>>>>>>>>>>>>>>>>>>>>>>>//
  // CBS Computation: MP2 / AUG-CC-PVQZ //
  //<<<<<<<<<<<<<<<<<<<<<<<<<<<<<<<<<<<<//

    SCF Algorithm Type (re)set to DF.

*** tstart() called on node37.bme.utexas.edu
*** at Tue Feb 22 17:49:50 2022

   => Loading Basis Set <=

    Name: AUG-CC-PVQZ
    Role: ORBITAL
    Keyword: BASIS
    atoms 1   entry O          line   419 file /home/bdw2292/miniconda3/envs/amoebamdpoltype/share/psi4/basis/aug-cc-pvqz.gbs 
    atoms 2-3 entry H          line    36 file /home/bdw2292/miniconda3/envs/amoebamdpoltype/share/psi4/basis/aug-cc-pvqz.gbs 


         ---------------------------------------------------------
                                   SCF
               by Justin Turney, Rob Parrish, Andy Simmonett
                          and Daniel G. A. Smith
                              RHF Reference
                        4 Threads,  14305 MiB Core
         ---------------------------------------------------------

  ==> Geometry <==

    Molecular point group: c1
    Full point group: C1

    Geometry (in Angstrom), charge = 0, multiplicity = 1:

       Center              X                  Y                   Z               Mass       
    ------------   -----------------  -----------------  -----------------  -----------------
         O           -3.883740421118    -0.413943486239     0.274817948823    15.994914619570
         H           -3.855902121118    -1.331239586239     0.545302348823     1.007825032230
         H           -2.985612521118    -0.109471786239     0.137991448823     1.007825032230

  Running in c1 symmetry.

  Rotational constants: A =     18.21286  B =      0.06235  C =      0.06214 [cm^-1]
  Rotational constants: A = 546007.69373  B =   1869.23642  C =   1862.86050 [MHz]
  Nuclear repulsion =    9.183549880565497

  Charge       = 0
  Multiplicity = 1
  Electrons    = 10
  Nalpha       = 5
  Nbeta        = 5

  ==> Algorithm <==

  SCF Algorithm Type is DF.
  DIIS enabled.
  MOM disabled.
  Fractional occupation disabled.
  Guess Type is SAD.
  Energy threshold   = 1.00e-08
  Density threshold  = 1.00e-08
  Integral threshold = 0.00e+00

  ==> Primary Basis <==

  Basis Set: AUG-CC-PVQZ
    Blend: AUG-CC-PVQZ
    Number of shells: 48
    Number of basis function: 172
    Number of Cartesian functions: 215
    Spherical Harmonics?: true
    Max angular momentum: 4

   => Loading Basis Set <=

    Name: (AUG-CC-PVQZ AUX)
    Role: JKFIT
    Keyword: DF_BASIS_SCF
    atoms 1   entry O          line   318 file /home/bdw2292/miniconda3/envs/amoebamdpoltype/share/psi4/basis/aug-cc-pvqz-jkfit.gbs 
    atoms 2-3 entry H          line    70 file /home/bdw2292/miniconda3/envs/amoebamdpoltype/share/psi4/basis/aug-cc-pvqz-jkfit.gbs 

  ==> Pre-Iterations <==

   -------------------------------------------------------
    Irrep   Nso     Nmo     Nalpha   Nbeta   Ndocc  Nsocc
   -------------------------------------------------------
     A        172     172       0       0       0       0
   -------------------------------------------------------
    Total     172     172       5       5       5       0
   -------------------------------------------------------

  ==> Integral Setup <==

  DFHelper Memory: AOs need 0.074 GiB; user supplied 10.477 GiB. Using in-core AOs.

  ==> MemDFJK: Density-Fitted J/K Matrices <==

    J tasked:                   Yes
    K tasked:                   Yes
    wK tasked:                   No
    OpenMP threads:               4
    Memory [MiB]:             10728
    Algorithm:                 Core
    Schwarz Cutoff:           1E-12
    Mask sparsity (%):       0.0000
    Fitting Condition:        1E-10

   => Auxiliary Basis Set <=

  Basis Set: (AUG-CC-PVQZ AUX)
    Blend: AUG-CC-PVQZ-JKFIT
    Number of shells: 70
    Number of basis function: 294
    Number of Cartesian functions: 400
    Spherical Harmonics?: true
    Max angular momentum: 5

  Minimum eigenvalue in the overlap matrix is 8.5325323312E-05.
  Using Symmetric Orthogonalization.

  SCF Guess: Superposition of Atomic Densities via on-the-fly atomic UHF.

  ==> Iterations <==

                           Total Energy        Delta E     RMS |[F,P]|

   @DF-RHF iter SAD:   -75.47903266452386   -7.54790e+01   0.00000e+00 
   @DF-RHF iter   1:   -75.98166476578163   -5.02632e-01   2.73053e-03 DIIS
   @DF-RHF iter   2:   -76.03418136756375   -5.25166e-02   1.85438e-03 DIIS
   @DF-RHF iter   3:   -76.06539290693392   -3.12115e-02   1.26279e-04 DIIS
   @DF-RHF iter   4:   -76.06578468019708   -3.91773e-04   3.08537e-05 DIIS
   @DF-RHF iter   5:   -76.06580952933628   -2.48491e-05   6.91935e-06 DIIS
   @DF-RHF iter   6:   -76.06581156827882   -2.03894e-06   1.58220e-06 DIIS
   @DF-RHF iter   7:   -76.06581168752531   -1.19246e-07   3.08992e-07 DIIS
   @DF-RHF iter   8:   -76.06581169156865   -4.04334e-09   4.94222e-08 DIIS
   @DF-RHF iter   9:   -76.06581169165268   -8.40288e-11   1.19659e-08 DIIS
   @DF-RHF iter  10:   -76.06581169165696   -4.27747e-12   1.65960e-09 DIIS
  Energy and wave function converged.


  ==> Post-Iterations <==

    Orbital Energies [Eh]
    ---------------------

    Doubly Occupied:                                                      

       1A    -20.562974     2A     -1.349933     3A     -0.725289  
       4A     -0.577140     5A     -0.509277  

    Virtual:                                                              

       6A      0.027156     7A      0.042869     8A      0.114716  
       9A      0.132588    10A      0.150322    11A      0.157840  
      12A      0.186007    13A      0.197116    14A      0.208243  
      15A      0.241434    16A      0.258991    17A      0.290391  
      18A      0.358082    19A      0.390608    20A      0.471878  
      21A      0.506653    22A      0.543018    23A      0.545650  
      24A      0.554057    25A      0.613293    26A      0.634290  
      27A      0.649683    28A      0.662608    29A      0.665802  
      30A      0.690432    31A      0.705169    32A      0.714773  
      33A      0.769556    34A      0.787503    35A      0.803524  
      36A      0.810130    37A      0.846858    38A      0.855375  
      39A      0.967474    40A      1.134185    41A      1.141387  
      42A      1.216933    43A      1.328940    44A      1.417411  
      45A      1.480439    46A      1.506009    47A      1.521933  
      48A      1.525072    49A      1.555921    50A      1.595663  
      51A      1.618001    52A      1.636526    53A      1.659463  
      54A      1.672798    55A      1.685888    56A      1.702490  
      57A      1.719354    58A      1.763774    59A      1.782064  
      60A      1.794437    61A      1.828134    62A      1.862853  
      63A      1.881459    64A      1.900130    65A      1.952998  
      66A      2.013944    67A      2.021087    68A      2.029428  
      69A      2.099056    70A      2.219319    71A      2.225915  
      72A      2.306778    73A      2.494183    74A      2.642438  
      75A      2.643745    76A      2.891023    77A      2.962111  
      78A      3.010600    79A      3.023260    80A      3.061559  
      81A      3.088494    82A      3.251457    83A      3.282586  
      84A      3.311955    85A      3.531183    86A      3.591113  
      87A      3.658626    88A      3.680892    89A      3.740289  
      90A      3.742486    91A      3.920810    92A      4.065910  
      93A      4.159056    94A      4.170598    95A      4.174728  
      96A      4.181179    97A      4.251472    98A      4.344637  
      99A      4.418433   100A      4.565629   101A      4.661211  
     102A      4.761417   103A      4.803073   104A      4.807871  
     105A      4.841729   106A      4.875343   107A      4.998469  
     108A      5.277393   109A      5.315652   110A      5.512253  
     111A      5.548554   112A      5.877787   113A      5.882978  
     114A      6.080755   115A      6.230203   116A      6.834420  
     117A      6.860148   118A      6.860854   119A      6.957030  
     120A      7.713481   121A      7.779866   122A      7.829186  
     123A      7.845902   124A      7.881288   125A      7.919122  
     126A      7.947997   127A      8.005819   128A      8.196193  
     129A      8.345078   130A      8.537135   131A      8.589491  
     132A      8.709224   133A      8.760579   134A      8.799450  
     135A      8.877383   136A      8.981730   137A      9.064459  
     138A      9.139707   139A      9.523498   140A      9.841560  
     141A      9.963009   142A      9.967881   143A     10.013812  
     144A     10.443956   145A     10.477804   146A     10.655035  
     147A     10.992369   148A     11.036661   149A     11.078668  
     150A     11.259779   151A     11.370746   152A     11.439580  
     153A     11.696514   154A     11.796579   155A     11.834827  
     156A     12.013495   157A     12.174706   158A     12.225702  
     159A     12.528221   160A     12.736672   161A     12.877068  
     162A     12.895310   163A     13.211537   164A     13.997383  
     165A     14.039962   166A     14.487503   167A     14.847918  
     168A     14.876109   169A     15.303592   170A     16.930471  
     171A     17.266018   172A     45.491543  

    Final Occupation by Irrep:
              A 
    DOCC [     5 ]

  @DF-RHF Final Energy:   -76.06581169165696

   => Energetics <=

    Nuclear Repulsion Energy =              9.1835498805654971
    One-Electron Energy =                -123.0494976961804952
    Two-Electron Energy =                  37.8001361239580405
    Total Energy =                        -76.0658116916569611

Computation Completed


Properties will be evaluated at  -7.241290,  -0.847042,   0.533464 [a0]

Properties computed using the SCF density matrix

  Nuclear Dipole Moment: [e a0]
     X:     0.7707      Y:    -0.5100      Z:     0.1112

  Electronic Dipole Moment: [e a0]
     X:    -0.1476      Y:     0.0974      Z:    -0.0212

  Dipole Moment: [e a0]
     X:     0.6231      Y:    -0.4126      Z:     0.0900     Total:     0.7527

  Dipole Moment: [D]
     X:     1.5836      Y:    -1.0487      Z:     0.2288     Total:     1.9131


*** tstop() called on node37.bme.utexas.edu at Tue Feb 22 17:49:58 2022
Module time:
	user time   =      10.40 seconds =       0.17 minutes
	system time =       0.82 seconds =       0.01 minutes
	total time  =          8 seconds =       0.13 minutes
Total time:
	user time   =      18.19 seconds =       0.30 minutes
	system time =       1.54 seconds =       0.03 minutes
	total time  =         16 seconds =       0.27 minutes

*** tstart() called on node37.bme.utexas.edu
*** at Tue Feb 22 17:49:58 2022


  //>>>>>>>>>>>>>>>>>>>>>>>>>>>>>>>>>>>//
  //               DFMP2               //
  //<<<<<<<<<<<<<<<<<<<<<<<<<<<<<<<<<<<//

   => Loading Basis Set <=

    Name: (AUG-CC-PVQZ AUX)
    Role: RIFIT
    Keyword: DF_BASIS_MP2
    atoms 1   entry O          line   332 file /home/bdw2292/miniconda3/envs/amoebamdpoltype/share/psi4/basis/aug-cc-pvqz-ri.gbs 
    atoms 2-3 entry H          line    30 file /home/bdw2292/miniconda3/envs/amoebamdpoltype/share/psi4/basis/aug-cc-pvqz-ri.gbs 

	 --------------------------------------------------------
	                          DF-MP2                         
	      2nd-Order Density-Fitted Moller-Plesset Theory     
	              RMP2 Wavefunction,   4 Threads             
	                                                         
	        Rob Parrish, Justin Turney, Andy Simmonett,      
	           Ed Hohenstein, and C. David Sherrill          
	 --------------------------------------------------------

   => Auxiliary Basis Set <=

  Basis Set: (AUG-CC-PVQZ AUX)
    Blend: AUG-CC-PVQZ-RI
    Number of shells: 76
    Number of basis function: 328
    Number of Cartesian functions: 447
    Spherical Harmonics?: true
    Max angular momentum: 5

	 --------------------------------------------------------
	                 NBF =   172, NAUX =   328
	 --------------------------------------------------------
	   CLASS    FOCC     OCC    AOCC    AVIR     VIR    FVIR
	   PAIRS       1       5       4     167     167       0
	 --------------------------------------------------------

	-----------------------------------------------------------
	 ==================> DF-MP2 Energies <==================== 
	-----------------------------------------------------------
	 Reference Energy          =     -76.0658116916569611 [Eh]
	 Singles Energy            =      -0.0000000000000000 [Eh]
	 Same-Spin Energy          =      -0.0671611494350764 [Eh]
	 Opposite-Spin Energy      =      -0.2185063237801172 [Eh]
	 Correlation Energy        =      -0.2856674732151936 [Eh]
	 Total Energy              =     -76.3514791648721598 [Eh]
	-----------------------------------------------------------
	 ================> DF-SCS-MP2 Energies <================== 
	-----------------------------------------------------------
	 SCS Same-Spin Scale       =       0.3333333333333333 [-]
	 SCS Opposite-Spin Scale   =       1.2000000000000000 [-]
	 SCS Same-Spin Energy      =      -0.0223870498116921 [Eh]
	 SCS Opposite-Spin Energy  =      -0.2622075885361406 [Eh]
	 SCS Correlation Energy    =      -0.2845946383478328 [Eh]
	 SCS Total Energy          =     -76.3504063300047875 [Eh]
	-----------------------------------------------------------


*** tstop() called on node37.bme.utexas.edu at Tue Feb 22 17:49:58 2022
Module time:
	user time   =       2.62 seconds =       0.04 minutes
	system time =       0.19 seconds =       0.00 minutes
	total time  =          0 seconds =       0.00 minutes
Total time:
	user time   =      20.82 seconds =       0.35 minutes
	system time =       1.73 seconds =       0.03 minutes
	total time  =         16 seconds =       0.27 minutes

  //>>>>>>>>>>>>>>>>>>>>>>>>>>>>>>>>>>>//
  //  CBS Results: mp2/aug-cc-pV[TQ]Z  //
  //<<<<<<<<<<<<<<<<<<<<<<<<<<<<<<<<<<<//


   ==> HF <==

   HI-zeta (4) Energy:               -76.065811691657


   ==> Helgaker 2-point correlated extrapolation for method: MP2 <==

   LO-zeta (3) Energy:               -76.328481784624
   HI-zeta (4) Energy:               -76.351479164872
   Alpha (exponent) Value:             3.000000000000
   Extrapolated Energy:              -76.368261036945

   @Extrapolated MP2/(T,Q):          -76.368261036945



   ==> Helgaker 2-point correlated extrapolation for method: HF <==

   LO-zeta (3) Energy:               -76.060424154137
   HI-zeta (4) Energy:               -76.065811691657
   Alpha (exponent) Value:             3.000000000000
   Extrapolated Energy:              -76.069743137955

   @Extrapolated HF/(T,Q):           -76.069743137955


   ==> Components <==

  ---------------------------------------------------------------------------------------------------------
                          Method / Basis                      Rqd      Energy [Eh]   Variable
  ---------------------------------------------------------------------------------------------------------
                              hf / aug-cc-pvtz                  *     -76.06042415   HF TOTAL ENERGY
                             mp2 / aug-cc-pvtz                  *     -76.32848178   MP2 TOTAL ENERGY
                              hf / aug-cc-pvqz                  *     -76.06581169   HF TOTAL ENERGY
                             mp2 / aug-cc-pvqz                  *     -76.35147916   MP2 TOTAL ENERGY
  ---------------------------------------------------------------------------------------------------------

   ==> Stages <==

  ---------------------------------------------------------------------------------------------------------
      Stage               Method / Basis                       Wt      Energy [Eh]   Scheme
  ---------------------------------------------------------------------------------------------------------
        scf                   hf / aug-cc-pvqz                  1     -76.06581169   xtpl_highest_1
       corl                  mp2 / aug-cc-pv[tq]z               1     -76.36826104   corl_xtpl_helgaker_2
       corl                   hf / aug-cc-pv[tq]z              -1     -76.06974314   corl_xtpl_helgaker_2
  ---------------------------------------------------------------------------------------------------------

   ==> CBS <==

  ---------------------------------------------------------------------------------------------------------
      Stage               Method / Basis                               Energy [Eh]   Scheme
  ---------------------------------------------------------------------------------------------------------
        scf                   hf / aug-cc-pvqz                        -76.06581169   xtpl_highest_1
       corl                  mp2 / aug-cc-pv[tq]z                      -0.29851790   corl_xtpl_helgaker_2
      total                  CBS                                      -76.36432959   
  ---------------------------------------------------------------------------------------------------------
   => Loading Basis Set <=

    Name: DEF2-SVP
    Role: ORBITAL
    Keyword: BASIS
    atoms 1   entry O          line   130 file /home/bdw2292/miniconda3/envs/amoebamdpoltype/share/psi4/basis/def2-svp.gbs 
    atoms 2-3 entry H          line    15 file /home/bdw2292/miniconda3/envs/amoebamdpoltype/share/psi4/basis/def2-svp.gbs 


       N-Body: Complex Energy (fragments = (2,), basis = (2,):   -76.36432959064628)

       N-Body: Computing complex (2/4) with fragments (2,) in the basis of fragments (1, 2).


  //>>>>>>>>>>>>>>>>>>>>>>>>>>>>>>>>>>>//
  //   CBS Setup: mp2/aug-cc-pV[TQ]Z   //
  //<<<<<<<<<<<<<<<<<<<<<<<<<<<<<<<<<<<//

    Naive listing of computations required.
             hf / aug-cc-pvqz              for  HF TOTAL ENERGY
            mp2 / aug-cc-pvtz              for  MP2 TOTAL ENERGY
            mp2 / aug-cc-pvqz              for  MP2 TOTAL ENERGY
             hf / aug-cc-pvtz              for  HF TOTAL ENERGY
             hf / aug-cc-pvqz              for  HF TOTAL ENERGY

    Enlightened listing of computations required.
            mp2 / aug-cc-pvtz              for  MP2 TOTAL ENERGY
            mp2 / aug-cc-pvqz              for  MP2 TOTAL ENERGY

    Full listing of computations to be obtained (required and bonus).
             hf / aug-cc-pvtz              for  HF TOTAL ENERGY
            mp2 / aug-cc-pvtz              for  MP2 TOTAL ENERGY
             hf / aug-cc-pvqz              for  HF TOTAL ENERGY
            mp2 / aug-cc-pvqz              for  MP2 TOTAL ENERGY

  //>>>>>>>>>>>>>>>>>>>>>>>>>>>>>>>>>>>>//
  // CBS Computation: MP2 / AUG-CC-PVTZ //
  //<<<<<<<<<<<<<<<<<<<<<<<<<<<<<<<<<<<<//

    SCF Algorithm Type (re)set to DF.

*** tstart() called on node37.bme.utexas.edu
*** at Tue Feb 22 17:50:01 2022

   => Loading Basis Set <=

    Name: AUG-CC-PVTZ
    Role: ORBITAL
    Keyword: BASIS
    atoms 1-2      entry CL         line   984 file /home/bdw2292/miniconda3/envs/amoebamdpoltype/share/psi4/basis/aug-cc-pvtz.gbs 
    atoms 3        entry C          line   235 file /home/bdw2292/miniconda3/envs/amoebamdpoltype/share/psi4/basis/aug-cc-pvtz.gbs 
    atoms 4-5, 7-8 entry H          line    36 file /home/bdw2292/miniconda3/envs/amoebamdpoltype/share/psi4/basis/aug-cc-pvtz.gbs 
    atoms 6        entry O          line   327 file /home/bdw2292/miniconda3/envs/amoebamdpoltype/share/psi4/basis/aug-cc-pvtz.gbs 


         ---------------------------------------------------------
                                   SCF
               by Justin Turney, Rob Parrish, Andy Simmonett
                          and Daniel G. A. Smith
                              RHF Reference
                        4 Threads,  14305 MiB Core
         ---------------------------------------------------------

  ==> Geometry <==

    Molecular point group: c1
    Full point group: C1

    Geometry (in Angstrom), charge = 0, multiplicity = 1:

       Center              X                  Y                   Z               Mass       
    ------------   -----------------  -----------------  -----------------  -----------------
      Gh(CL)         -0.517626921118     0.716737313761    -0.244458051177    34.968852682000
      Gh(CL)          2.274927778882    -0.190026086239     0.081335348823    34.968852682000
      Gh(C)           0.567709878882    -0.654349486239     0.033671348823    12.000000000000
      Gh(H)           0.313154978882    -1.105312286239     0.992972548823     1.007825032230
      Gh(H)           0.432840378882    -1.368646686239    -0.778820951177     1.007825032230
         O           -3.883740421118    -0.413943486239     0.274817948823    15.994914619570
         H           -3.855902121118    -1.331239586239     0.545302348823     1.007825032230
         H           -2.985612521118    -0.109471786239     0.137991448823     1.007825032230

  Running in c1 symmetry.

  Rotational constants: A =      0.45171  B =      0.03648  C =      0.03406 [cm^-1]
  Rotational constants: A =  13541.87765  B =   1093.59546  C =   1021.00274 [MHz]
  Nuclear repulsion =    9.183549880565497

  Charge       = 0
  Multiplicity = 1
  Electrons    = 10
  Nalpha       = 5
  Nbeta        = 5

  ==> Algorithm <==

  SCF Algorithm Type is DF.
  DIIS enabled.
  MOM disabled.
  Fractional occupation disabled.
  Guess Type is SAD.
  Energy threshold   = 1.00e-08
  Density threshold  = 1.00e-08
  Integral threshold = 0.00e+00

  ==> Primary Basis <==

  Basis Set: AUG-CC-PVTZ
    Blend: AUG-CC-PVTZ
    Number of shells: 96
    Number of basis function: 284
    Number of Cartesian functions: 328
    Spherical Harmonics?: true
    Max angular momentum: 3

   => Loading Basis Set <=

    Name: (AUG-CC-PVTZ AUX)
    Role: JKFIT
    Keyword: DF_BASIS_SCF
    atoms 1-2      entry CL         line   816 file /home/bdw2292/miniconda3/envs/amoebamdpoltype/share/psi4/basis/aug-cc-pvtz-jkfit.gbs 
    atoms 3        entry C          line   162 file /home/bdw2292/miniconda3/envs/amoebamdpoltype/share/psi4/basis/aug-cc-pvtz-jkfit.gbs 
    atoms 4-5, 7-8 entry H          line    70 file /home/bdw2292/miniconda3/envs/amoebamdpoltype/share/psi4/basis/aug-cc-pvtz-jkfit.gbs 
    atoms 6        entry O          line   286 file /home/bdw2292/miniconda3/envs/amoebamdpoltype/share/psi4/basis/aug-cc-pvtz-jkfit.gbs 

  ==> Pre-Iterations <==

   -------------------------------------------------------
    Irrep   Nso     Nmo     Nalpha   Nbeta   Ndocc  Nsocc
   -------------------------------------------------------
     A        284     284       0       0       0       0
   -------------------------------------------------------
    Total     284     284       5       5       5       0
   -------------------------------------------------------

  ==> Integral Setup <==

  DFHelper Memory: AOs need 0.407 GiB; user supplied 10.477 GiB. Using in-core AOs.

  ==> MemDFJK: Density-Fitted J/K Matrices <==

    J tasked:                   Yes
    K tasked:                   Yes
    wK tasked:                   No
    OpenMP threads:               4
    Memory [MiB]:             10728
    Algorithm:                 Core
    Schwarz Cutoff:           1E-12
    Mask sparsity (%):       6.4719
    Fitting Condition:        1E-10

   => Auxiliary Basis Set <=

  Basis Set: (AUG-CC-PVTZ AUX)
    Blend: AUG-CC-PVTZ-JKFIT
    Number of shells: 200
    Number of basis function: 684
    Number of Cartesian functions: 842
    Spherical Harmonics?: true
    Max angular momentum: 4

  Minimum eigenvalue in the overlap matrix is 6.0125132901E-05.
  Using Symmetric Orthogonalization.

  SCF Guess: Superposition of Atomic Densities via on-the-fly atomic UHF.

  ==> Iterations <==

                           Total Energy        Delta E     RMS |[F,P]|

   @DF-RHF iter SAD:   -75.47387604642401   -7.54739e+01   0.00000e+00 
   @DF-RHF iter   1:   -75.97659539959787   -5.02719e-01   1.65033e-03 DIIS
   @DF-RHF iter   2:   -76.02901598097682   -5.24206e-02   1.11834e-03 DIIS
   @DF-RHF iter   3:   -76.06003697898944   -3.10210e-02   7.59363e-05 DIIS
   @DF-RHF iter   4:   -76.06042682596014   -3.89847e-04   1.81376e-05 DIIS
   @DF-RHF iter   5:   -76.06045080703151   -2.39811e-05   4.08267e-06 DIIS
   @DF-RHF iter   6:   -76.06045276576823   -1.95874e-06   9.09853e-07 DIIS
   @DF-RHF iter   7:   -76.06045287407373   -1.08305e-07   1.72360e-07 DIIS
   @DF-RHF iter   8:   -76.06045287752325   -3.44951e-09   2.85509e-08 DIIS
   @DF-RHF iter   9:   -76.06045287759794   -7.46923e-11   7.09378e-09 DIIS
  Energy and wave function converged.


  ==> Post-Iterations <==

    Orbital Energies [Eh]
    ---------------------

    Doubly Occupied:                                                      

       1A    -20.565446     2A     -1.350645     3A     -0.725308  
       4A     -0.577076     5A     -0.509139  

    Virtual:                                                              

       6A      0.017410     7A      0.039240     8A      0.042135  
       9A      0.047846    10A      0.062796    11A      0.081203  
      12A      0.092908    13A      0.106957    14A      0.111552  
      15A      0.114300    16A      0.117446    17A      0.127313  
      18A      0.139651    19A      0.156696    20A      0.168683  
      21A      0.176164    22A      0.180074    23A      0.184507  
      24A      0.212436    25A      0.227065    26A      0.248683  
      27A      0.262579    28A      0.271430    29A      0.272414  
      30A      0.282925    31A      0.297592    32A      0.300975  
      33A      0.304057    34A      0.313394    35A      0.338721  
      36A      0.346336    37A      0.352166    38A      0.373736  
      39A      0.381634    40A      0.383657    41A      0.398963  
      42A      0.417783    43A      0.428033    44A      0.442250  
      45A      0.450204    46A      0.461972    47A      0.464959  
      48A      0.469862    49A      0.488051    50A      0.507378  
      51A      0.525181    52A      0.549304    53A      0.565464  
      54A      0.572325    55A      0.598012    56A      0.604224  
      57A      0.608963    58A      0.622775    59A      0.627990  
      60A      0.654322    61A      0.656112    62A      0.680651  
      63A      0.699998    64A      0.720860    65A      0.730675  
      66A      0.736126    67A      0.737458    68A      0.742760  
      69A      0.756949    70A      0.763150    71A      0.780867  
      72A      0.813812    73A      0.862284    74A      0.880345  
      75A      0.924196    76A      0.929561    77A      0.937441  
      78A      0.946680    79A      0.958097    80A      0.970913  
      81A      0.984009    82A      1.031464    83A      1.046100  
      84A      1.057825    85A      1.069106    86A      1.072357  
      87A      1.073078    88A      1.095082    89A      1.108421  
      90A      1.112946    91A      1.125807    92A      1.142257  
      93A      1.150864    94A      1.181895    95A      1.204288  
      96A      1.214257    97A      1.218961    98A      1.228335  
      99A      1.235825   100A      1.249223   101A      1.265916  
     102A      1.277527   103A      1.298628   104A      1.326295  
     105A      1.342464   106A      1.357560   107A      1.363468  
     108A      1.377727   109A      1.385918   110A      1.407219  
     111A      1.427901   112A      1.439407   113A      1.452877  
     114A      1.465738   115A      1.469820   116A      1.476316  
     117A      1.514481   118A      1.531935   119A      1.550629  
     120A      1.555063   121A      1.566229   122A      1.580953  
     123A      1.583018   124A      1.598937   125A      1.614826  
     126A      1.621534   127A      1.628490   128A      1.641443  
     129A      1.658692   130A      1.686477   131A      1.705260  
     132A      1.734156   133A      1.759631   134A      1.778966  
     135A      1.864033   136A      1.879389   137A      1.907761  
     138A      1.947006   139A      1.984669   140A      2.032111  
     141A      2.046443   142A      2.050967   143A      2.069947  
     144A      2.076301   145A      2.100069   146A      2.114004  
     147A      2.124131   148A      2.170443   149A      2.213997  
     150A      2.228653   151A      2.277502   152A      2.282273  
     153A      2.342433   154A      2.362473   155A      2.402482  
     156A      2.432563   157A      2.457451   158A      2.468289  
     159A      2.479322   160A      2.493292   161A      2.513461  
     162A      2.554202   163A      2.572227   164A      2.615804  
     165A      2.629461   166A      2.698904   167A      2.724292  
     168A      2.734900   169A      2.744863   170A      2.880644  
     171A      2.927514   172A      2.959102   173A      3.049131  
     174A      3.680802   175A      3.805440   176A      3.814412  
     177A      3.849579   178A      3.889400   179A      3.910183  
     180A      3.955740   181A      3.969951   182A      3.973401  
     183A      3.975081   184A      3.982608   185A      4.005692  
     186A      4.030794   187A      4.047080   188A      4.061915  
     189A      4.113119   190A      4.121836   191A      4.132666  
     192A      4.147768   193A      4.164664   194A      4.174157  
     195A      4.181853   196A      4.217211   197A      4.225812  
     198A      4.260164   199A      4.280299   200A      4.300848  
     201A      4.322146   202A      4.337249   203A      4.344531  
     204A      4.392027   205A      4.399576   206A      4.429615  
     207A      4.473906   208A      4.481423   209A      4.510021  
     210A      4.546932   211A      4.548970   212A      4.593226  
     213A      4.636828   214A      4.685117   215A      4.689391  
     216A      4.732265   217A      4.746736   218A      4.757985  
     219A      4.764091   220A      4.775062   221A      4.782564  
     222A      4.805348   223A      4.833175   224A      4.836642  
     225A      4.842676   226A      4.897932   227A      4.938386  
     228A      5.013828   229A      5.068215   230A      5.111358  
     231A      5.161144   232A      5.177682   233A      5.181433  
     234A      5.189654   235A      5.260634   236A      5.330954  
     237A      5.342374   238A      5.366287   239A      5.386008  
     240A      5.422958   241A      5.434692   242A      5.479645  
     243A      5.517371   244A      5.643647   245A      5.785273  
     246A      5.890229   247A      5.912917   248A      6.043357  
     249A      6.090284   250A      6.169212   251A      6.241833  
     252A      6.290065   253A      6.433952   254A      6.559730  
     255A      6.735354   256A      6.895571   257A      7.015056  
     258A      7.152275   259A      7.278624   260A      7.316892  
     261A      7.329970   262A      7.421014   263A      7.422921  
     264A      7.696372   265A      7.740712   266A      7.862756  
     267A      7.936245   268A      7.978307   269A      8.016208  
     270A      8.141407   271A      8.811664   272A      9.961874  
     273A     16.110557   274A     16.399996   275A     16.772034  
     276A     28.079114   277A     28.090589   278A     28.097799  
     279A     28.233955   280A     28.842870   281A     29.166633  
     282A     49.075061   283A    161.005390   284A    161.048017  

    Final Occupation by Irrep:
              A 
    DOCC [     5 ]

  @DF-RHF Final Energy:   -76.06045287759794

   => Energetics <=

    Nuclear Repulsion Energy =              9.1835498805654971
    One-Electron Energy =                -123.0327735182374482
    Two-Electron Energy =                  37.7887707600740228
    Total Energy =                        -76.0604528775979247

Computation Completed


Properties will be evaluated at  -0.000000,   0.000000,  -0.000000 [a0]

Properties computed using the SCF density matrix

  Nuclear Dipole Moment: [e a0]
     X:   -71.6422      Y:    -8.9805      Z:     5.4459

  Electronic Dipole Moment: [e a0]
     X:    72.2662      Y:     8.5674      Z:    -5.3558

  Dipole Moment: [e a0]
     X:     0.6240      Y:    -0.4131      Z:     0.0901     Total:     0.7537

  Dipole Moment: [D]
     X:     1.5860      Y:    -1.0499      Z:     0.2290     Total:     1.9158


*** tstop() called on node37.bme.utexas.edu at Tue Feb 22 17:50:13 2022
Module time:
	user time   =      27.70 seconds =       0.46 minutes
	system time =       1.74 seconds =       0.03 minutes
	total time  =         12 seconds =       0.20 minutes
Total time:
	user time   =      50.38 seconds =       0.84 minutes
	system time =       3.53 seconds =       0.06 minutes
	total time  =         31 seconds =       0.52 minutes

*** tstart() called on node37.bme.utexas.edu
*** at Tue Feb 22 17:50:13 2022


  //>>>>>>>>>>>>>>>>>>>>>>>>>>>>>>>>>>>//
  //               DFMP2               //
  //<<<<<<<<<<<<<<<<<<<<<<<<<<<<<<<<<<<//

   => Loading Basis Set <=

    Name: (AUG-CC-PVTZ AUX)
    Role: RIFIT
    Keyword: DF_BASIS_MP2
    atoms 1-2      entry CL         line   742 file /home/bdw2292/miniconda3/envs/amoebamdpoltype/share/psi4/basis/aug-cc-pvtz-ri.gbs 
    atoms 3        entry C          line   148 file /home/bdw2292/miniconda3/envs/amoebamdpoltype/share/psi4/basis/aug-cc-pvtz-ri.gbs 
    atoms 4-5, 7-8 entry H          line    30 file /home/bdw2292/miniconda3/envs/amoebamdpoltype/share/psi4/basis/aug-cc-pvtz-ri.gbs 
    atoms 6        entry O          line   264 file /home/bdw2292/miniconda3/envs/amoebamdpoltype/share/psi4/basis/aug-cc-pvtz-ri.gbs 

	 --------------------------------------------------------
	                          DF-MP2                         
	      2nd-Order Density-Fitted Moller-Plesset Theory     
	              RMP2 Wavefunction,   4 Threads             
	                                                         
	        Rob Parrish, Justin Turney, Andy Simmonett,      
	           Ed Hohenstein, and C. David Sherrill          
	 --------------------------------------------------------

   => Auxiliary Basis Set <=

  Basis Set: (AUG-CC-PVTZ AUX)
    Blend: AUG-CC-PVTZ-RI
    Number of shells: 186
    Number of basis function: 690
    Number of Cartesian functions: 874
    Spherical Harmonics?: true
    Max angular momentum: 4

	 --------------------------------------------------------
	                 NBF =   284, NAUX =   690
	 --------------------------------------------------------
	   CLASS    FOCC     OCC    AOCC    AVIR     VIR    FVIR
	   PAIRS       1       5       4     279     279       0
	 --------------------------------------------------------

	-----------------------------------------------------------
	 ==================> DF-MP2 Energies <==================== 
	-----------------------------------------------------------
	 Reference Energy          =     -76.0604528775979389 [Eh]
	 Singles Energy            =      -0.0000000000000000 [Eh]
	 Same-Spin Energy          =      -0.0651055815674983 [Eh]
	 Opposite-Spin Energy      =      -0.2031162789769135 [Eh]
	 Correlation Energy        =      -0.2682218605444118 [Eh]
	 Total Energy              =     -76.3286747381423538 [Eh]
	-----------------------------------------------------------
	 ================> DF-SCS-MP2 Energies <================== 
	-----------------------------------------------------------
	 SCS Same-Spin Scale       =       0.3333333333333333 [-]
	 SCS Opposite-Spin Scale   =       1.2000000000000000 [-]
	 SCS Same-Spin Energy      =      -0.0217018605224994 [Eh]
	 SCS Opposite-Spin Energy  =      -0.2437395347722962 [Eh]
	 SCS Correlation Energy    =      -0.2654413952947956 [Eh]
	 SCS Total Energy          =     -76.3258942728927394 [Eh]
	-----------------------------------------------------------


*** tstop() called on node37.bme.utexas.edu at Tue Feb 22 17:50:18 2022
Module time:
	user time   =      10.58 seconds =       0.18 minutes
	system time =       0.69 seconds =       0.01 minutes
	total time  =          5 seconds =       0.08 minutes
Total time:
	user time   =      60.96 seconds =       1.02 minutes
	system time =       4.22 seconds =       0.07 minutes
	total time  =         36 seconds =       0.60 minutes

  //>>>>>>>>>>>>>>>>>>>>>>>>>>>>>>>>>>>>//
  // CBS Computation: MP2 / AUG-CC-PVQZ //
  //<<<<<<<<<<<<<<<<<<<<<<<<<<<<<<<<<<<<//

    SCF Algorithm Type (re)set to DF.

*** tstart() called on node37.bme.utexas.edu
*** at Tue Feb 22 17:50:18 2022

   => Loading Basis Set <=

    Name: AUG-CC-PVQZ
    Role: ORBITAL
    Keyword: BASIS
    atoms 1-2      entry CL         line  1218 file /home/bdw2292/miniconda3/envs/amoebamdpoltype/share/psi4/basis/aug-cc-pvqz.gbs 
    atoms 3        entry C          line   299 file /home/bdw2292/miniconda3/envs/amoebamdpoltype/share/psi4/basis/aug-cc-pvqz.gbs 
    atoms 4-5, 7-8 entry H          line    36 file /home/bdw2292/miniconda3/envs/amoebamdpoltype/share/psi4/basis/aug-cc-pvqz.gbs 
    atoms 6        entry O          line   419 file /home/bdw2292/miniconda3/envs/amoebamdpoltype/share/psi4/basis/aug-cc-pvqz.gbs 


         ---------------------------------------------------------
                                   SCF
               by Justin Turney, Rob Parrish, Andy Simmonett
                          and Daniel G. A. Smith
                              RHF Reference
                        4 Threads,  14305 MiB Core
         ---------------------------------------------------------

  ==> Geometry <==

    Molecular point group: c1
    Full point group: C1

    Geometry (in Angstrom), charge = 0, multiplicity = 1:

       Center              X                  Y                   Z               Mass       
    ------------   -----------------  -----------------  -----------------  -----------------
      Gh(CL)         -0.517626921118     0.716737313761    -0.244458051177    34.968852682000
      Gh(CL)          2.274927778882    -0.190026086239     0.081335348823    34.968852682000
      Gh(C)           0.567709878882    -0.654349486239     0.033671348823    12.000000000000
      Gh(H)           0.313154978882    -1.105312286239     0.992972548823     1.007825032230
      Gh(H)           0.432840378882    -1.368646686239    -0.778820951177     1.007825032230
         O           -3.883740421118    -0.413943486239     0.274817948823    15.994914619570
         H           -3.855902121118    -1.331239586239     0.545302348823     1.007825032230
         H           -2.985612521118    -0.109471786239     0.137991448823     1.007825032230

  Running in c1 symmetry.

  Rotational constants: A =      0.45171  B =      0.03648  C =      0.03406 [cm^-1]
  Rotational constants: A =  13541.87765  B =   1093.59546  C =   1021.00274 [MHz]
  Nuclear repulsion =    9.183549880565497

  Charge       = 0
  Multiplicity = 1
  Electrons    = 10
  Nalpha       = 5
  Nbeta        = 5

  ==> Algorithm <==

  SCF Algorithm Type is DF.
  DIIS enabled.
  MOM disabled.
  Fractional occupation disabled.
  Guess Type is SAD.
  Energy threshold   = 1.00e-08
  Density threshold  = 1.00e-08
  Integral threshold = 0.00e+00

  ==> Primary Basis <==

  Basis Set: AUG-CC-PVQZ
    Blend: AUG-CC-PVQZ
    Number of shells: 140
    Number of basis function: 512
    Number of Cartesian functions: 648
    Spherical Harmonics?: true
    Max angular momentum: 4

   => Loading Basis Set <=

    Name: (AUG-CC-PVQZ AUX)
    Role: JKFIT
    Keyword: DF_BASIS_SCF
    atoms 1-2      entry CL         line   904 file /home/bdw2292/miniconda3/envs/amoebamdpoltype/share/psi4/basis/aug-cc-pvqz-jkfit.gbs 
    atoms 3        entry C          line   178 file /home/bdw2292/miniconda3/envs/amoebamdpoltype/share/psi4/basis/aug-cc-pvqz-jkfit.gbs 
    atoms 4-5, 7-8 entry H          line    70 file /home/bdw2292/miniconda3/envs/amoebamdpoltype/share/psi4/basis/aug-cc-pvqz-jkfit.gbs 
    atoms 6        entry O          line   318 file /home/bdw2292/miniconda3/envs/amoebamdpoltype/share/psi4/basis/aug-cc-pvqz-jkfit.gbs 

  ==> Pre-Iterations <==

   -------------------------------------------------------
    Irrep   Nso     Nmo     Nalpha   Nbeta   Ndocc  Nsocc
   -------------------------------------------------------
     A        512     512       0       0       0       0
   -------------------------------------------------------
    Total     512     512       5       5       5       0
   -------------------------------------------------------

  ==> Integral Setup <==

  DFHelper Memory: AOs need 1.763 GiB; user supplied 10.477 GiB. Using in-core AOs.

  ==> MemDFJK: Density-Fitted J/K Matrices <==

    J tasked:                   Yes
    K tasked:                   Yes
    wK tasked:                   No
    OpenMP threads:               4
    Memory [MiB]:             10728
    Algorithm:                 Core
    Schwarz Cutoff:           1E-12
    Mask sparsity (%):       9.7977
    Fitting Condition:        1E-10

   => Auxiliary Basis Set <=

  Basis Set: (AUG-CC-PVQZ AUX)
    Blend: AUG-CC-PVQZ-JKFIT
    Number of shells: 232
    Number of basis function: 956
    Number of Cartesian functions: 1294
    Spherical Harmonics?: true
    Max angular momentum: 5

  Minimum eigenvalue in the overlap matrix is 1.2774728622E-05.
  Using Symmetric Orthogonalization.

  SCF Guess: Superposition of Atomic Densities via on-the-fly atomic UHF.

  ==> Iterations <==

                           Total Energy        Delta E     RMS |[F,P]|

   @DF-RHF iter SAD:   -75.47903265794280   -7.54790e+01   0.00000e+00 
   @DF-RHF iter   1:   -75.98167257208500   -5.02640e-01   9.17310e-04 DIIS
   @DF-RHF iter   2:   -76.03419126657411   -5.25187e-02   6.22992e-04 DIIS
   @DF-RHF iter   3:   -76.06540378897421   -3.12125e-02   4.24239e-05 DIIS
   @DF-RHF iter   4:   -76.06579559503766   -3.91806e-04   1.03651e-05 DIIS
   @DF-RHF iter   5:   -76.06582044583799   -2.48508e-05   2.32484e-06 DIIS
   @DF-RHF iter   6:   -76.06582248548786   -2.03965e-06   5.31582e-07 DIIS
   @DF-RHF iter   7:   -76.06582260479782   -1.19310e-07   1.03888e-07 DIIS
   @DF-RHF iter   8:   -76.06582260885121   -4.05339e-09   1.66238e-08 DIIS
   @DF-RHF iter   9:   -76.06582260893562   -8.44125e-11   4.02428e-09 DIIS
  Energy and wave function converged.


  ==> Post-Iterations <==

    Orbital Energies [Eh]
    ---------------------

    Doubly Occupied:                                                      

       1A    -20.562959     2A     -1.349921     3A     -0.725277  
       4A     -0.577130     5A     -0.509271  

    Virtual:                                                              

       6A      0.015628     7A      0.035240     8A      0.037921  
       9A      0.042876    10A      0.055612    11A      0.071968  
      12A      0.082432    13A      0.091608    14A      0.092174  
      15A      0.095517    16A      0.100860    17A      0.110252  
      18A      0.121995    19A      0.136821    20A      0.146580  
      21A      0.149722    22A      0.153485    23A      0.158271  
      24A      0.181873    25A      0.195806    26A      0.210757  
      27A      0.219632    28A      0.220047    29A      0.224368  
      30A      0.236387    31A      0.242041    32A      0.252188  
      33A      0.253933    34A      0.262975    35A      0.277106  
      36A      0.278976    37A      0.285386    38A      0.295439  
      39A      0.301007    40A      0.307885    41A      0.321157  
      42A      0.335308    43A      0.342083    44A      0.352517  
      45A      0.357734    46A      0.362837    47A      0.369912  
      48A      0.373032    49A      0.378139    50A      0.396405  
      51A      0.409750    52A      0.424789    53A      0.444027  
      54A      0.456018    55A      0.459462    56A      0.462995  
      57A      0.482261    58A      0.488580    59A      0.495949  
      60A      0.505074    61A      0.509921    62A      0.537361  
      63A      0.544386    64A      0.551596    65A      0.559524  
      66A      0.563239    67A      0.569687    68A      0.574111  
      69A      0.581302    70A      0.589851    71A      0.625004  
      72A      0.632833    73A      0.643935    74A      0.656963  
      75A      0.677148    76A      0.686507    77A      0.692466  
      78A      0.698833    79A      0.706102    80A      0.723849  
      81A      0.731653    82A      0.747962    83A      0.763032  
      84A      0.775640    85A      0.786391    86A      0.792446  
      87A      0.806849    88A      0.809848    89A      0.821906  
      90A      0.836235    91A      0.851130    92A      0.853447  
      93A      0.861346    94A      0.877028    95A      0.882714  
      96A      0.889483    97A      0.915090    98A      0.920263  
      99A      0.926739   100A      0.941323   101A      0.948111  
     102A      0.956729   103A      0.964583   104A      0.981236  
     105A      0.991712   106A      0.997945   107A      1.008672  
     108A      1.015274   109A      1.023248   110A      1.036821  
     111A      1.047122   112A      1.050296   113A      1.053149  
     114A      1.063988   115A      1.067479   116A      1.074652  
     117A      1.087341   118A      1.098773   119A      1.113152  
     120A      1.120180   121A      1.139086   122A      1.144955  
     123A      1.154427   124A      1.164522   125A      1.178714  
     126A      1.180326   127A      1.202303   128A      1.208740  
     129A      1.245803   130A      1.272692   131A      1.283819  
     132A      1.298437   133A      1.306751   134A      1.331135  
     135A      1.367028   136A      1.409118   137A      1.430830  
     138A      1.452618   139A      1.459084   140A      1.466435  
     141A      1.482711   142A      1.508595   143A      1.519051  
     144A      1.524076   145A      1.538848   146A      1.544454  
     147A      1.556948   148A      1.591616   149A      1.604546  
     150A      1.608428   151A      1.615854   152A      1.623236  
     153A      1.630400   154A      1.641522   155A      1.667977  
     156A      1.678084   157A      1.682584   158A      1.689949  
     159A      1.704627   160A      1.714469   161A      1.725660  
     162A      1.729669   163A      1.743535   164A      1.777546  
     165A      1.784984   166A      1.804037   167A      1.825983  
     168A      1.827771   169A      1.835076   170A      1.852295  
     171A      1.868379   172A      1.876887   173A      1.885253  
     174A      1.891607   175A      1.906317   176A      1.918558  
     177A      1.926178   178A      1.944672   179A      1.954496  
     180A      1.975504   181A      1.986589   182A      2.001977  
     183A      2.019063   184A      2.023376   185A      2.044403  
     186A      2.049456   187A      2.058952   188A      2.066458  
     189A      2.075485   190A      2.098618   191A      2.110785  
     192A      2.116955   193A      2.144754   194A      2.156007  
     195A      2.166574   196A      2.176641   197A      2.181888  
     198A      2.212044   199A      2.226887   200A      2.234644  
     201A      2.248722   202A      2.250768   203A      2.271723  
     204A      2.290413   205A      2.303751   206A      2.319559  
     207A      2.345104   208A      2.350532   209A      2.379983  
     210A      2.392940   211A      2.417831   212A      2.431886  
     213A      2.434084   214A      2.457121   215A      2.468142  
     216A      2.483169   217A      2.502917   218A      2.517133  
     219A      2.527268   220A      2.536500   221A      2.552462  
     222A      2.565656   223A      2.578362   224A      2.591719  
     225A      2.603877   226A      2.617542   227A      2.628576  
     228A      2.648016   229A      2.657381   230A      2.680429  
     231A      2.720182   232A      2.725238   233A      2.748628  
     234A      2.782287   235A      2.786138   236A      2.802316  
     237A      2.827828   238A      2.850155   239A      2.860692  
     240A      2.876802   241A      2.888969   242A      2.903426  
     243A      2.926575   244A      2.935270   245A      2.978456  
     246A      3.009394   247A      3.018385   248A      3.022882  
     249A      3.028205   250A      3.039049   251A      3.061953  
     252A      3.088899   253A      3.097240   254A      3.108644  
     255A      3.128318   256A      3.149216   257A      3.179560  
     258A      3.182574   259A      3.200579   260A      3.235614  
     261A      3.272798   262A      3.300261   263A      3.323027  
     264A      3.332077   265A      3.337682   266A      3.341239  
     267A      3.349708   268A      3.361985   269A      3.400098  
     270A      3.405955   271A      3.418826   272A      3.444728  
     273A      3.486623   274A      3.501618   275A      3.575149  
     276A      3.618287   277A      3.631449   278A      3.635952  
     279A      3.665266   280A      3.697815   281A      3.708029  
     282A      3.727814   283A      3.739762   284A      3.762639  
     285A      3.815741   286A      3.826051   287A      3.858819  
     288A      3.869112   289A      3.893803   290A      3.917767  
     291A      3.940459   292A      3.962470   293A      3.993164  
     294A      4.093796   295A      4.113748   296A      4.128948  
     297A      4.135324   298A      4.150770   299A      4.161876  
     300A      4.171157   301A      4.201071   302A      4.263857  
     303A      4.272236   304A      4.295081   305A      4.340192  
     306A      4.343970   307A      4.412332   308A      4.440198  
     309A      4.469189   310A      4.508205   311A      4.635751  
     312A      4.684548   313A      4.699933   314A      4.708502  
     315A      4.753657   316A      4.816213   317A      4.844927  
     318A      4.872725   319A      4.884172   320A      4.902718  
     321A      4.947260   322A      4.973337   323A      4.992382  
     324A      5.002487   325A      5.077301   326A      5.108740  
     327A      5.233260   328A      5.362118   329A      5.407175  
     330A      5.444234   331A      5.450474   332A      5.472440  
     333A      5.476837   334A      5.522501   335A      5.556420  
     336A      5.593351   337A      5.618083   338A      5.628649  
     339A      5.648020   340A      5.669400   341A      5.714735  
     342A      5.782440   343A      5.790358   344A      5.815354  
     345A      5.838502   346A      5.868230   347A      5.872442  
     348A      5.892635   349A      5.909116   350A      5.942448  
     351A      5.994364   352A      6.054923   353A      6.124757  
     354A      6.231641   355A      6.297042   356A      6.303370  
     357A      6.348382   358A      6.353695   359A      6.390073  
     360A      6.411013   361A      6.428276   362A      6.447942  
     363A      6.472754   364A      6.479183   365A      6.522333  
     366A      6.540331   367A      6.560689   368A      6.632081  
     369A      6.748062   370A      6.849851   371A      6.867114  
     372A      6.875663   373A      6.898166   374A      6.988558  
     375A      6.991999   376A      7.026938   377A      7.071097  
     378A      7.097370   379A      7.107684   380A      7.199749  
     381A      7.260881   382A      7.295474   383A      7.317438  
     384A      7.379719   385A      7.511063   386A      7.565202  
     387A      7.599906   388A      7.638846   389A      7.661422  
     390A      7.668967   391A      7.748847   392A      7.766494  
     393A      7.783954   394A      7.804137   395A      7.850898  
     396A      7.860932   397A      7.865039   398A      7.872126  
     399A      7.878158   400A      7.891367   401A      7.894186  
     402A      7.943026   403A      7.953582   404A      7.974424  
     405A      7.977694   406A      7.987455   407A      8.018291  
     408A      8.073682   409A      8.122126   410A      8.162365  
     411A      8.181031   412A      8.206655   413A      8.251456  
     414A      8.268306   415A      8.314859   416A      8.384059  
     417A      8.411055   418A      8.424980   419A      8.514869  
     420A      8.615881   421A      8.650184   422A      8.659526  
     423A      8.674252   424A      8.684895   425A      8.780190  
     426A      8.797849   427A      8.823078   428A      8.898889  
     429A      8.934051   430A      9.011757   431A      9.023449  
     432A      9.057706   433A      9.161113   434A      9.173398  
     435A      9.184891   436A      9.245709   437A      9.304190  
     438A      9.385555   439A      9.518230   440A      9.542467  
     441A      9.550106   442A      9.570260   443A      9.604910  
     444A      9.690395   445A      9.754887   446A      9.770157  
     447A      9.799489   448A      9.884649   449A      9.995285  
     450A     10.039016   451A     10.047091   452A     10.071926  
     453A     10.112802   454A     10.349916   455A     10.358902  
     456A     10.474116   457A     10.549313   458A     10.676481  
     459A     10.685869   460A     10.768546   461A     10.790108  
     462A     10.794860   463A     10.829024   464A     10.963892  
     465A     11.020005   466A     11.065391   467A     11.091038  
     468A     11.198503   469A     11.290903   470A     11.403171  
     471A     11.415168   472A     11.419872   473A     11.485453  
     474A     11.719327   475A     11.772200   476A     11.840904  
     477A     11.887294   478A     12.059395   479A     12.075274  
     480A     12.202225   481A     12.286935   482A     12.583292  
     483A     12.789745   484A     12.899569   485A     12.915356  
     486A     13.011314   487A     13.014455   488A     13.257645  
     489A     13.962726   490A     14.017971   491A     14.171938  
     492A     14.283833   493A     14.506047   494A     14.858659  
     495A     14.912311   496A     15.336713   497A     16.724072  
     498A     17.023563   499A     17.308325   500A     17.318789  
     501A     31.092381   502A     31.107764   503A     31.109932  
     504A     31.153386   505A     31.310974   506A     31.364611  
     507A     42.916620   508A     43.509985   509A     45.706625  
     510A     70.505292   511A    160.366257   512A    160.437350  

    Final Occupation by Irrep:
              A 
    DOCC [     5 ]

  @DF-RHF Final Energy:   -76.06582260893562

   => Energetics <=

    Nuclear Repulsion Energy =              9.1835498805654971
    One-Electron Energy =                -123.0496258741148949
    Two-Electron Energy =                  37.8002533846137823
    Total Energy =                        -76.0658226089356191

Computation Completed


Properties will be evaluated at  -0.000000,   0.000000,  -0.000000 [a0]

Properties computed using the SCF density matrix

  Nuclear Dipole Moment: [e a0]
     X:   -71.6422      Y:    -8.9805      Z:     5.4459

  Electronic Dipole Moment: [e a0]
     X:    72.2653      Y:     8.5679      Z:    -5.3559

  Dipole Moment: [e a0]
     X:     0.6231      Y:    -0.4126      Z:     0.0900     Total:     0.7527

  Dipole Moment: [D]
     X:     1.5836      Y:    -1.0486      Z:     0.2288     Total:     1.9131


*** tstop() called on node37.bme.utexas.edu at Tue Feb 22 17:50:58 2022
Module time:
	user time   =      97.55 seconds =       1.63 minutes
	system time =       6.37 seconds =       0.11 minutes
	total time  =         40 seconds =       0.67 minutes
Total time:
	user time   =     158.55 seconds =       2.64 minutes
	system time =      10.60 seconds =       0.18 minutes
	total time  =         76 seconds =       1.27 minutes

*** tstart() called on node37.bme.utexas.edu
*** at Tue Feb 22 17:50:58 2022


  //>>>>>>>>>>>>>>>>>>>>>>>>>>>>>>>>>>>//
  //               DFMP2               //
  //<<<<<<<<<<<<<<<<<<<<<<<<<<<<<<<<<<<//

   => Loading Basis Set <=

    Name: (AUG-CC-PVQZ AUX)
    Role: RIFIT
    Keyword: DF_BASIS_MP2
    atoms 1-2      entry CL         line   914 file /home/bdw2292/miniconda3/envs/amoebamdpoltype/share/psi4/basis/aug-cc-pvqz-ri.gbs 
    atoms 3        entry C          line   184 file /home/bdw2292/miniconda3/envs/amoebamdpoltype/share/psi4/basis/aug-cc-pvqz-ri.gbs 
    atoms 4-5, 7-8 entry H          line    30 file /home/bdw2292/miniconda3/envs/amoebamdpoltype/share/psi4/basis/aug-cc-pvqz-ri.gbs 
    atoms 6        entry O          line   332 file /home/bdw2292/miniconda3/envs/amoebamdpoltype/share/psi4/basis/aug-cc-pvqz-ri.gbs 

	 --------------------------------------------------------
	                          DF-MP2                         
	      2nd-Order Density-Fitted Moller-Plesset Theory     
	              RMP2 Wavefunction,   4 Threads             
	                                                         
	        Rob Parrish, Justin Turney, Andy Simmonett,      
	           Ed Hohenstein, and C. David Sherrill          
	 --------------------------------------------------------

   => Auxiliary Basis Set <=

  Basis Set: (AUG-CC-PVQZ AUX)
    Blend: AUG-CC-PVQZ-RI
    Number of shells: 240
    Number of basis function: 1044
    Number of Cartesian functions: 1430
    Spherical Harmonics?: true
    Max angular momentum: 5

	 --------------------------------------------------------
	                 NBF =   512, NAUX =  1044
	 --------------------------------------------------------
	   CLASS    FOCC     OCC    AOCC    AVIR     VIR    FVIR
	   PAIRS       1       5       4     507     507       0
	 --------------------------------------------------------

	-----------------------------------------------------------
	 ==================> DF-MP2 Energies <==================== 
	-----------------------------------------------------------
	 Reference Energy          =     -76.0658226089356191 [Eh]
	 Singles Energy            =      -0.0000000000000000 [Eh]
	 Same-Spin Energy          =      -0.0671657314373165 [Eh]
	 Opposite-Spin Energy      =      -0.2185709764914288 [Eh]
	 Correlation Energy        =      -0.2857367079287452 [Eh]
	 Total Energy              =     -76.3515593168643676 [Eh]
	-----------------------------------------------------------
	 ================> DF-SCS-MP2 Energies <================== 
	-----------------------------------------------------------
	 SCS Same-Spin Scale       =       0.3333333333333333 [-]
	 SCS Opposite-Spin Scale   =       1.2000000000000000 [-]
	 SCS Same-Spin Energy      =      -0.0223885771457722 [Eh]
	 SCS Opposite-Spin Energy  =      -0.2622851717897145 [Eh]
	 SCS Correlation Energy    =      -0.2846737489354866 [Eh]
	 SCS Total Energy          =     -76.3504963578711084 [Eh]
	-----------------------------------------------------------


*** tstop() called on node37.bme.utexas.edu at Tue Feb 22 17:51:15 2022
Module time:
	user time   =      39.06 seconds =       0.65 minutes
	system time =       3.63 seconds =       0.06 minutes
	total time  =         17 seconds =       0.28 minutes
Total time:
	user time   =     197.61 seconds =       3.29 minutes
	system time =      14.23 seconds =       0.24 minutes
	total time  =         93 seconds =       1.55 minutes

  //>>>>>>>>>>>>>>>>>>>>>>>>>>>>>>>>>>>//
  //  CBS Results: mp2/aug-cc-pV[TQ]Z  //
  //<<<<<<<<<<<<<<<<<<<<<<<<<<<<<<<<<<<//


   ==> HF <==

   HI-zeta (4) Energy:               -76.065822608936


   ==> Helgaker 2-point correlated extrapolation for method: MP2 <==

   LO-zeta (3) Energy:               -76.328674738142
   HI-zeta (4) Energy:               -76.351559316864
   Alpha (exponent) Value:             3.000000000000
   Extrapolated Energy:              -76.368258874310

   @Extrapolated MP2/(T,Q):          -76.368258874310



   ==> Helgaker 2-point correlated extrapolation for method: HF <==

   LO-zeta (3) Energy:               -76.060452877598
   HI-zeta (4) Energy:               -76.065822608936
   Alpha (exponent) Value:             3.000000000000
   Extrapolated Energy:              -76.069741061533

   @Extrapolated HF/(T,Q):           -76.069741061533


   ==> Components <==

  ---------------------------------------------------------------------------------------------------------
                          Method / Basis                      Rqd      Energy [Eh]   Variable
  ---------------------------------------------------------------------------------------------------------
                              hf / aug-cc-pvtz                  *     -76.06045288   HF TOTAL ENERGY
                             mp2 / aug-cc-pvtz                  *     -76.32867474   MP2 TOTAL ENERGY
                              hf / aug-cc-pvqz                  *     -76.06582261   HF TOTAL ENERGY
                             mp2 / aug-cc-pvqz                  *     -76.35155932   MP2 TOTAL ENERGY
  ---------------------------------------------------------------------------------------------------------

   ==> Stages <==

  ---------------------------------------------------------------------------------------------------------
      Stage               Method / Basis                       Wt      Energy [Eh]   Scheme
  ---------------------------------------------------------------------------------------------------------
        scf                   hf / aug-cc-pvqz                  1     -76.06582261   xtpl_highest_1
       corl                  mp2 / aug-cc-pv[tq]z               1     -76.36825887   corl_xtpl_helgaker_2
       corl                   hf / aug-cc-pv[tq]z              -1     -76.06974106   corl_xtpl_helgaker_2
  ---------------------------------------------------------------------------------------------------------

   ==> CBS <==

  ---------------------------------------------------------------------------------------------------------
      Stage               Method / Basis                               Energy [Eh]   Scheme
  ---------------------------------------------------------------------------------------------------------
        scf                   hf / aug-cc-pvqz                        -76.06582261   xtpl_highest_1
       corl                  mp2 / aug-cc-pv[tq]z                      -0.29851781   corl_xtpl_helgaker_2
      total                  CBS                                      -76.36434042   
  ---------------------------------------------------------------------------------------------------------
   => Loading Basis Set <=

    Name: DEF2-SVP
    Role: ORBITAL
    Keyword: BASIS
    atoms 1-2      entry CL         line   356 file /home/bdw2292/miniconda3/envs/amoebamdpoltype/share/psi4/basis/def2-svp.gbs 
    atoms 3        entry C          line    90 file /home/bdw2292/miniconda3/envs/amoebamdpoltype/share/psi4/basis/def2-svp.gbs 
    atoms 4-5, 7-8 entry H          line    15 file /home/bdw2292/miniconda3/envs/amoebamdpoltype/share/psi4/basis/def2-svp.gbs 
    atoms 6        entry O          line   130 file /home/bdw2292/miniconda3/envs/amoebamdpoltype/share/psi4/basis/def2-svp.gbs 


       N-Body: Complex Energy (fragments = (2,), basis = (1, 2):   -76.36434042171240)

       N-Body: Computing complex (3/4) with fragments (1,) in the basis of fragments (1, 2).


  //>>>>>>>>>>>>>>>>>>>>>>>>>>>>>>>>>>>//
  //   CBS Setup: mp2/aug-cc-pV[TQ]Z   //
  //<<<<<<<<<<<<<<<<<<<<<<<<<<<<<<<<<<<//

    Naive listing of computations required.
             hf / aug-cc-pvqz              for  HF TOTAL ENERGY
            mp2 / aug-cc-pvtz              for  MP2 TOTAL ENERGY
            mp2 / aug-cc-pvqz              for  MP2 TOTAL ENERGY
             hf / aug-cc-pvtz              for  HF TOTAL ENERGY
             hf / aug-cc-pvqz              for  HF TOTAL ENERGY

    Enlightened listing of computations required.
            mp2 / aug-cc-pvtz              for  MP2 TOTAL ENERGY
            mp2 / aug-cc-pvqz              for  MP2 TOTAL ENERGY

    Full listing of computations to be obtained (required and bonus).
             hf / aug-cc-pvtz              for  HF TOTAL ENERGY
            mp2 / aug-cc-pvtz              for  MP2 TOTAL ENERGY
             hf / aug-cc-pvqz              for  HF TOTAL ENERGY
            mp2 / aug-cc-pvqz              for  MP2 TOTAL ENERGY

  //>>>>>>>>>>>>>>>>>>>>>>>>>>>>>>>>>>>>//
  // CBS Computation: MP2 / AUG-CC-PVTZ //
  //<<<<<<<<<<<<<<<<<<<<<<<<<<<<<<<<<<<<//

    SCF Algorithm Type (re)set to DF.

*** tstart() called on node37.bme.utexas.edu
*** at Tue Feb 22 17:51:17 2022

   => Loading Basis Set <=

    Name: AUG-CC-PVTZ
    Role: ORBITAL
    Keyword: BASIS
    atoms 1-2      entry CL         line   984 file /home/bdw2292/miniconda3/envs/amoebamdpoltype/share/psi4/basis/aug-cc-pvtz.gbs 
    atoms 3        entry C          line   235 file /home/bdw2292/miniconda3/envs/amoebamdpoltype/share/psi4/basis/aug-cc-pvtz.gbs 
    atoms 4-5, 7-8 entry H          line    36 file /home/bdw2292/miniconda3/envs/amoebamdpoltype/share/psi4/basis/aug-cc-pvtz.gbs 
[...]
      66A      0.348370    67A      0.351665    68A      0.360379  
      69A      0.363664    70A      0.370285    71A      0.372851  
      72A      0.383587    73A      0.385797    74A      0.407315  
      75A      0.426109    76A      0.441132    77A      0.465151  
      78A      0.477931    79A      0.484604    80A      0.514968  
      81A      0.528083    82A      0.531502    83A      0.536512  
      84A      0.544677    85A      0.552338    86A      0.559143  
      87A      0.570659    88A      0.575477    89A      0.580086  
      90A      0.581347    91A      0.590259    92A      0.607330  
      93A      0.621278    94A      0.624848    95A      0.638463  
      96A      0.647690    97A      0.654559    98A      0.657070  
      99A      0.667363   100A      0.676236   101A      0.682309  
     102A      0.695586   103A      0.702790   104A      0.706471  
     105A      0.715254   106A      0.723229   107A      0.739841  
     108A      0.741881   109A      0.748175   110A      0.757704  
     111A      0.772703   112A      0.777774   113A      0.787480  
     114A      0.790896   115A      0.796664   116A      0.804965  
     117A      0.822144   118A      0.828793   119A      0.838345  
     120A      0.843214   121A      0.856379   122A      0.865946  
     123A      0.883547   124A      0.900924   125A      0.918608  
     126A      0.930165   127A      0.938576   128A      0.945968  
     129A      0.954773   130A      0.977884   131A      0.985384  
     132A      0.995880   133A      1.003903   134A      1.021580  
     135A      1.048626   136A      1.059957   137A      1.069112  
     138A      1.093457   139A      1.102499   140A      1.108810  
     141A      1.126526   142A      1.129793   143A      1.141054  
     144A      1.159345   145A      1.171604   146A      1.186217  
     147A      1.195038   148A      1.207956   149A      1.214867  
     150A      1.225515   151A      1.232489   152A      1.236717  
     153A      1.248793   154A      1.264440   155A      1.271217  
     156A      1.292166   157A      1.310168   158A      1.323342  
     159A      1.341908   160A      1.345358   161A      1.353888  
     162A      1.404320   163A      1.411911   164A      1.444956  
     165A      1.478435   166A      1.487087   167A      1.497633  
     168A      1.521781   169A      1.528399   170A      1.563225  
     171A      1.585525   172A      1.602545   173A      1.612695  
     174A      1.623550   175A      1.652744   176A      1.660634  
     177A      1.675010   178A      1.678500   179A      1.690501  
     180A      1.693242   181A      1.703523   182A      1.710876  
     183A      1.714406   184A      1.734794   185A      1.742427  
     186A      1.757474   187A      1.765791   188A      1.775432  
     189A      1.795653   190A      1.799146   191A      1.809552  
     192A      1.818513   193A      1.834430   194A      1.837817  
     195A      1.855876   196A      1.862873   197A      1.874068  
     198A      1.881870   199A      1.889346   200A      1.892427  
     201A      1.909340   202A      1.916861   203A      1.936056  
     204A      1.939752   205A      1.947257   206A      1.959222  
     207A      1.972722   208A      1.981794   209A      1.992022  
     210A      2.000704   211A      2.006595   212A      2.017213  
     213A      2.039957   214A      2.043209   215A      2.058446  
     216A      2.071805   217A      2.076640   218A      2.083439  
     219A      2.091308   220A      2.097633   221A      2.109156  
     222A      2.131847   223A      2.137527   224A      2.141829  
     225A      2.151344   226A      2.173282   227A      2.178814  
     228A      2.194495   229A      2.197172   230A      2.209700  
     231A      2.220938   232A      2.229719   233A      2.238310  
     234A      2.249087   235A      2.257530   236A      2.267933  
     237A      2.273644   238A      2.283434   239A      2.295987  
     240A      2.313109   241A      2.354243   242A      2.359492  
     243A      2.363990   244A      2.381234   245A      2.387717  
     246A      2.415984   247A      2.426767   248A      2.429707  
     249A      2.444777   250A      2.462460   251A      2.494076  
     252A      2.498470   253A      2.502085   254A      2.516984  
     255A      2.519003   256A      2.541186   257A      2.572269  
     258A      2.605887   259A      2.606772   260A      2.634627  
     261A      2.648218   262A      2.651534   263A      2.738735  
     264A      2.755049   265A      2.799335   266A      2.807150  
     267A      2.819993   268A      2.845943   269A      2.869778  
     270A      2.895620   271A      2.903330   272A      2.913598  
     273A      2.934476   274A      2.957368   275A      3.005214  
     276A      3.020625   277A      3.024855   278A      3.064255  
     279A      3.075636   280A      3.100340   281A      3.107545  
     282A      3.131017   283A      3.153811   284A      3.169095  
     285A      3.203556   286A      3.221090   287A      3.281870  
     288A      3.289275   289A      3.318655   290A      3.329459  
     291A      3.351983   292A      3.374181   293A      3.401605  
     294A      3.461202   295A      3.478141   296A      3.506464  
     297A      3.536344   298A      3.585947   299A      3.640029  
     300A      3.675185   301A      3.690155   302A      3.711029  
     303A      3.718429   304A      3.732366   305A      3.748721  
     306A      3.756215   307A      3.780218   308A      3.814276  
     309A      3.827794   310A      3.914783   311A      3.936067  
     312A      3.955065   313A      3.968507   314A      3.980895  
     315A      4.018710   316A      4.120438   317A      4.139828  
     318A      4.141074   319A      4.171220   320A      4.190549  
     321A      4.201650   322A      4.218112   323A      4.263919  
     324A      4.269189   325A      4.339758   326A      4.352876  
     327A      4.373589   328A      4.423745   329A      4.485500  
     330A      4.494159   331A      4.501566   332A      4.517903  
     333A      4.539822   334A      4.566427   335A      4.595343  
     336A      4.635505   337A      4.653167   338A      4.665469  
     339A      4.676563   340A      4.687766   341A      4.700934  
     342A      4.715895   343A      4.727054   344A      4.741988  
     345A      4.747859   346A      4.755089   347A      4.766401  
     348A      4.779869   349A      4.808567   350A      4.823363  
     351A      4.831483   352A      4.852761   353A      4.857564  
     354A      4.860852   355A      4.870586   356A      4.887945  
     357A      4.898394   358A      4.904340   359A      4.919611  
     360A      4.941072   361A      4.957464   362A      4.976488  
     363A      5.005818   364A      5.015055   365A      5.035642  
     366A      5.037821   367A      5.051345   368A      5.066312  
     369A      5.111785   370A      5.143687   371A      5.158289  
     372A      5.191058   373A      5.203793   374A      5.230757  
     375A      5.262466   376A      5.338518   377A      5.365173  
     378A      5.382229   379A      5.384263   380A      5.402866  
     381A      5.470672   382A      5.538620   383A      5.570856  
     384A      5.611944   385A      5.650819   386A      5.673514  
     387A      5.913382   388A      5.969785   389A      6.190162  
     390A      6.303686   391A      6.346219   392A      6.349705  
     393A      6.369608   394A      6.380618   395A      6.411534  
     396A      6.526476   397A      6.576851   398A      6.611086  
     399A      6.662699   400A      6.729426   401A      6.767846  
     402A      6.812468   403A      6.828139   404A      6.856280  
     405A      6.863635   406A      6.872652   407A      6.888010  
     408A      6.915566   409A      6.935749   410A      6.943509  
     411A      6.990955   412A      7.001785   413A      7.020644  
     414A      7.039120   415A      7.151608   416A      7.177796  
     417A      7.235330   418A      7.356843   419A      7.439117  
     420A      7.464835   421A      7.567882   422A      7.586869  
     423A      7.603708   424A      7.667660   425A      7.732739  
     426A      7.756230   427A      7.777854   428A      7.802818  
     429A      7.815429   430A      7.862902   431A      7.877379  
     432A      7.896642   433A      7.960080   434A      7.996982  
     435A      8.027578   436A      8.079049   437A      8.098813  
     438A      8.112205   439A      8.211897   440A      8.317200  
     441A      8.425354   442A      8.493754   443A      8.538746  
     444A      8.605069   445A      8.627063   446A      8.654174  
     447A      8.722995   448A      8.784058   449A      8.802609  
     450A      8.804377   451A      8.859323   452A      8.905023  
     453A      8.944396   454A      9.017248   455A      9.029246  
     456A      9.117358   457A      9.162608   458A      9.210562  
     459A      9.223061   460A      9.429720   461A      9.470657  
     462A      9.496924   463A      9.504902   464A      9.540164  
     465A      9.603031   466A      9.781497   467A      9.888495  
     468A      9.936190   469A      9.947633   470A     10.000050  
     471A     10.046360   472A     10.053199   473A     10.300297  
     474A     10.382332   475A     10.479774   476A     10.555020  
     477A     10.572239   478A     10.757142   479A     10.776421  
     480A     10.803563   481A     11.022376   482A     11.048712  
     483A     11.069859   484A     11.200188   485A     11.296630  
     486A     11.416466   487A     11.488702   488A     11.724737  
     489A     11.845096   490A     11.892285   491A     12.064077  
     492A     12.207438   493A     12.291713   494A     12.588290  
     495A     12.793751   496A     12.904728   497A     12.923027  
     498A     13.014436   499A     13.082205   500A     13.263650  
     501A     14.022470   502A     14.176200   503A     14.511674  
     504A     14.864547   505A     14.917927   506A     15.342695  
     507A     17.027561   508A     17.317031   509A     26.109809  
     510A     26.796173   511A     27.921976   512A     45.705584  

    Final Occupation by Irrep:
              A 
    DOCC [    26 ]

  @DF-RHF Final Energy: -1034.15440902572709

   => Energetics <=

    Nuclear Repulsion Energy =            193.6260338239719090
    One-Electron Energy =               -1813.0014789819824728
    Two-Electron Energy =                 585.2210361322834160
    Total Energy =                      -1034.1544090257270909

Computation Completed


Properties will be evaluated at  -0.000000,   0.000000,  -0.000000 [a0]

Properties computed using the SCF density matrix

  Nuclear Dipole Moment: [e a0]
     X:    -7.3417      Y:    -4.1540      Z:     0.9920

  Electronic Dipole Moment: [e a0]
     X:     7.8960      Y:     3.1108      Z:    -0.8367

  Dipole Moment: [e a0]
     X:     0.5543      Y:    -1.0432      Z:     0.1553     Total:     1.1915

  Dipole Moment: [D]
     X:     1.4088      Y:    -2.6516      Z:     0.3947     Total:     3.0285


*** tstop() called on node37.bme.utexas.edu at Tue Feb 22 17:54:23 2022
Module time:
	user time   =     118.51 seconds =       1.98 minutes
	system time =       8.35 seconds =       0.14 minutes
	total time  =         46 seconds =       0.77 minutes
Total time:
	user time   =     654.99 seconds =      10.92 minutes
	system time =      47.54 seconds =       0.79 minutes
	total time  =        281 seconds =       4.68 minutes

*** tstart() called on node37.bme.utexas.edu
*** at Tue Feb 22 17:54:23 2022


  //>>>>>>>>>>>>>>>>>>>>>>>>>>>>>>>>>>>//
  //               DFMP2               //
  //<<<<<<<<<<<<<<<<<<<<<<<<<<<<<<<<<<<//

   => Loading Basis Set <=

    Name: (AUG-CC-PVQZ AUX)
    Role: RIFIT
    Keyword: DF_BASIS_MP2
    atoms 1-2      entry CL         line   914 file /home/bdw2292/miniconda3/envs/amoebamdpoltype/share/psi4/basis/aug-cc-pvqz-ri.gbs 
    atoms 3        entry C          line   184 file /home/bdw2292/miniconda3/envs/amoebamdpoltype/share/psi4/basis/aug-cc-pvqz-ri.gbs 
    atoms 4-5, 7-8 entry H          line    30 file /home/bdw2292/miniconda3/envs/amoebamdpoltype/share/psi4/basis/aug-cc-pvqz-ri.gbs 
    atoms 6        entry O          line   332 file /home/bdw2292/miniconda3/envs/amoebamdpoltype/share/psi4/basis/aug-cc-pvqz-ri.gbs 

	 --------------------------------------------------------
	                          DF-MP2                         
	      2nd-Order Density-Fitted Moller-Plesset Theory     
	              RMP2 Wavefunction,   4 Threads             
	                                                         
	        Rob Parrish, Justin Turney, Andy Simmonett,      
	           Ed Hohenstein, and C. David Sherrill          
	 --------------------------------------------------------

   => Auxiliary Basis Set <=

  Basis Set: (AUG-CC-PVQZ AUX)
    Blend: AUG-CC-PVQZ-RI
    Number of shells: 240
    Number of basis function: 1044
    Number of Cartesian functions: 1430
    Spherical Harmonics?: true
    Max angular momentum: 5

	 --------------------------------------------------------
	                 NBF =   512, NAUX =  1044
	 --------------------------------------------------------
	   CLASS    FOCC     OCC    AOCC    AVIR     VIR    FVIR
	   PAIRS      12      26      14     486     486       0
	 --------------------------------------------------------

	-----------------------------------------------------------
	 ==================> DF-MP2 Energies <==================== 
	-----------------------------------------------------------
	 Reference Energy          =   -1034.1544090257270909 [Eh]
	 Singles Energy            =      -0.0000000000000000 [Eh]
	 Same-Spin Energy          =      -0.2097835640202866 [Eh]
	 Opposite-Spin Energy      =      -0.6869644005274576 [Eh]
	 Correlation Energy        =      -0.8967479645477442 [Eh]
	 Total Energy              =   -1035.0511569902748761 [Eh]
	-----------------------------------------------------------
	 ================> DF-SCS-MP2 Energies <================== 
	-----------------------------------------------------------
	 SCS Same-Spin Scale       =       0.3333333333333333 [-]
	 SCS Opposite-Spin Scale   =       1.2000000000000000 [-]
	 SCS Same-Spin Energy      =      -0.0699278546734289 [Eh]
	 SCS Opposite-Spin Energy  =      -0.8243572806329490 [Eh]
	 SCS Correlation Energy    =      -0.8942851353063779 [Eh]
	 SCS Total Energy          =   -1035.0486941610333815 [Eh]
	-----------------------------------------------------------


*** tstop() called on node37.bme.utexas.edu at Tue Feb 22 17:54:40 2022
Module time:
	user time   =      44.41 seconds =       0.74 minutes
	system time =       3.05 seconds =       0.05 minutes
	total time  =         17 seconds =       0.28 minutes
Total time:
	user time   =     699.40 seconds =      11.66 minutes
	system time =      50.59 seconds =       0.84 minutes
	total time  =        298 seconds =       4.97 minutes

  //>>>>>>>>>>>>>>>>>>>>>>>>>>>>>>>>>>>//
  //  CBS Results: mp2/aug-cc-pV[TQ]Z  //
  //<<<<<<<<<<<<<<<<<<<<<<<<<<<<<<<<<<<//


   ==> HF <==

   HI-zeta (4) Energy:               -1034.154409025727


   ==> Helgaker 2-point correlated extrapolation for method: MP2 <==

   LO-zeta (3) Energy:               -1034.975716616901
   HI-zeta (4) Energy:               -1035.051156990275
   Alpha (exponent) Value:             3.000000000000
   Extrapolated Energy:              -1035.106208073548

   @Extrapolated MP2/(T,Q):          -1035.106208073548



   ==> Helgaker 2-point correlated extrapolation for method: HF <==

   LO-zeta (3) Energy:               -1034.139357423908
   HI-zeta (4) Energy:               -1034.154409025727
   Alpha (exponent) Value:             3.000000000000
   Extrapolated Energy:              -1034.165392627055

   @Extrapolated HF/(T,Q):           -1034.165392627055


   ==> Components <==

  ---------------------------------------------------------------------------------------------------------
                          Method / Basis                      Rqd      Energy [Eh]   Variable
  ---------------------------------------------------------------------------------------------------------
                              hf / aug-cc-pvtz                  *   -1034.13935742   HF TOTAL ENERGY
                             mp2 / aug-cc-pvtz                  *   -1034.97571662   MP2 TOTAL ENERGY
                              hf / aug-cc-pvqz                  *   -1034.15440903   HF TOTAL ENERGY
                             mp2 / aug-cc-pvqz                  *   -1035.05115699   MP2 TOTAL ENERGY
  ---------------------------------------------------------------------------------------------------------

   ==> Stages <==

  ---------------------------------------------------------------------------------------------------------
      Stage               Method / Basis                       Wt      Energy [Eh]   Scheme
  ---------------------------------------------------------------------------------------------------------
        scf                   hf / aug-cc-pvqz                  1   -1034.15440903   xtpl_highest_1
       corl                  mp2 / aug-cc-pv[tq]z               1   -1035.10620807   corl_xtpl_helgaker_2
       corl                   hf / aug-cc-pv[tq]z              -1   -1034.16539263   corl_xtpl_helgaker_2
  ---------------------------------------------------------------------------------------------------------

   ==> CBS <==

  ---------------------------------------------------------------------------------------------------------
      Stage               Method / Basis                               Energy [Eh]   Scheme
  ---------------------------------------------------------------------------------------------------------
        scf                   hf / aug-cc-pvqz                      -1034.15440903   xtpl_highest_1
       corl                  mp2 / aug-cc-pv[tq]z                      -0.94081545   corl_xtpl_helgaker_2
      total                  CBS                                    -1035.09522447   
  ---------------------------------------------------------------------------------------------------------
   => Loading Basis Set <=

    Name: DEF2-SVP
    Role: ORBITAL
    Keyword: BASIS
    atoms 1-2      entry CL         line   356 file /home/bdw2292/miniconda3/envs/amoebamdpoltype/share/psi4/basis/def2-svp.gbs 
    atoms 3        entry C          line    90 file /home/bdw2292/miniconda3/envs/amoebamdpoltype/share/psi4/basis/def2-svp.gbs 
    atoms 4-5, 7-8 entry H          line    15 file /home/bdw2292/miniconda3/envs/amoebamdpoltype/share/psi4/basis/def2-svp.gbs 
    atoms 6        entry O          line   130 file /home/bdw2292/miniconda3/envs/amoebamdpoltype/share/psi4/basis/def2-svp.gbs 


       N-Body: Complex Energy (fragments = (1, 2), basis = (1, 2): -1035.09522447222025)

   ==> N-Body: Counterpoise Corrected (CP) energies <==

   n-Body     Total Energy [Eh]       I.E. [kcal/mol]      Delta [kcal/mol]
        1    -1035.093138617545        0.000000000000        0.000000000000
        2    -1035.095128873923       -1.248904732660       -1.248904732660

   => Loading Basis Set <=

    Name: DEF2-SVP
    Role: ORBITAL
    Keyword: BASIS
    atoms 1-2      entry CL         line   356 file /home/bdw2292/miniconda3/envs/amoebamdpoltype/share/psi4/basis/def2-svp.gbs 
    atoms 3        entry C          line    90 file /home/bdw2292/miniconda3/envs/amoebamdpoltype/share/psi4/basis/def2-svp.gbs 
    atoms 4-5, 7-8 entry H          line    15 file /home/bdw2292/miniconda3/envs/amoebamdpoltype/share/psi4/basis/def2-svp.gbs 
    atoms 6        entry O          line   130 file /home/bdw2292/miniconda3/envs/amoebamdpoltype/share/psi4/basis/def2-svp.gbs 

CP Energy =  -0.001990
    Psi4 stopped on: Tuesday, 22 February 2022 05:54PM
    Psi4 wall time for execution: 0:05:00.74

*** Psi4 exiting successfully. Buy a developer a beer!
