
    -----------------------------------------------------------------------
          Psi4: An Open-Source Ab Initio Electronic Structure Package
                               Psi4 1.3.2 release

                         Git: Rev {HEAD} ecbda83 


    R. M. Parrish, L. A. Burns, D. G. A. Smith, A. C. Simmonett,
    A. E. DePrince III, E. G. Hohenstein, U. Bozkaya, A. Yu. Sokolov,
    R. Di Remigio, R. M. Richard, J. F. Gonthier, A. M. James,
    H. R. McAlexander, A. Kumar, M. Saitow, X. Wang, B. P. Pritchard,
    P. Verma, H. F. Schaefer III, K. Patkowski, R. A. King, E. F. Valeev,
    F. A. Evangelista, J. M. Turney, T. D. Crawford, and C. D. Sherrill,
    J. Chem. Theory Comput. 13(7) pp 3185--3197 (2017).
    (doi: 10.1021/acs.jctc.7b00174)


                         Additional Contributions by
    P. Kraus, H. Kruse, M. H. Lechner, M. C. Schieber, R. A. Shaw,
    A. Alenaizan, R. Galvelis, Z. L. Glick, S. Lehtola, and J. P. Misiewicz

    -----------------------------------------------------------------------


    Psi4 started on: Tuesday, 22 February 2022 06:51PM

    Process ID: 35116
    Host:       node37.bme.utexas.edu
    PSIDATADIR: /home/bdw2292/miniconda3/envs/amoebamdpoltype/share/psi4
    Memory:     500.0 MiB
    Threads:    1
    
  ==> Input File <==

--------------------------------------------------------------------------
molecule { 
0 1
 Cl                 -1.5388435    -0.1931364     0.6760242
 Cl                  1.2369893     0.3960644    -0.1472336
  C                  0.0155402    -0.8508783     0.1416569
  H                  0.3883584    -1.5173747     0.9193488
  H                 -0.1425503    -1.3959932    -0.7887828
--
0 1
 Cl                 -3.8144883     3.2090796    -2.8006457
 Cl                 -0.8850613     2.8742199    -2.6428600
  C                 -2.4612556     2.0724914    -2.7050029
  H                 -2.5769254     1.4793039    -1.7983855
  H                 -2.4862189     1.4363836    -3.5896511
}
memory 15GB
set_num_threads(4)
psi4_io.set_default_path("/scratch/bdw2292/Psi4-CH2Cl2")
set maxiter 500
set freeze_core True
set PROPERTIES_ORIGIN ["COM"]
e_dim= energy('mp2/aug-cc-pV[TQ]Z',bsse_type='cp')

psi4.print_out('CP Energy = %10.6f' % (e_dim))
clean()
--------------------------------------------------------------------------

  Memory set to  13.970 GiB by Python driver.
  Threads set to 4 by Python driver.


   ===> N-Body Interaction Abacus <===
        BSSE Treatment:                     cp
        Number of 1-body computations:     4
        Number of 2-body computations:     1

   ==> N-Body: Now computing 1-body complexes <==


       N-Body: Computing complex (1/4) with fragments (2,) in the basis of fragments (2,).


  //>>>>>>>>>>>>>>>>>>>>>>>>>>>>>>>>>>>//
  //   CBS Setup: mp2/aug-cc-pV[TQ]Z   //
  //<<<<<<<<<<<<<<<<<<<<<<<<<<<<<<<<<<<//

    Naive listing of computations required.
             hf / aug-cc-pvqz              for  HF TOTAL ENERGY
            mp2 / aug-cc-pvtz              for  MP2 TOTAL ENERGY
            mp2 / aug-cc-pvqz              for  MP2 TOTAL ENERGY
             hf / aug-cc-pvtz              for  HF TOTAL ENERGY
             hf / aug-cc-pvqz              for  HF TOTAL ENERGY

    Enlightened listing of computations required.
            mp2 / aug-cc-pvtz              for  MP2 TOTAL ENERGY
            mp2 / aug-cc-pvqz              for  MP2 TOTAL ENERGY

    Full listing of computations to be obtained (required and bonus).
             hf / aug-cc-pvtz              for  HF TOTAL ENERGY
            mp2 / aug-cc-pvtz              for  MP2 TOTAL ENERGY
             hf / aug-cc-pvqz              for  HF TOTAL ENERGY
            mp2 / aug-cc-pvqz              for  MP2 TOTAL ENERGY

  //>>>>>>>>>>>>>>>>>>>>>>>>>>>>>>>>>>>>//
  // CBS Computation: MP2 / AUG-CC-PVTZ //
  //<<<<<<<<<<<<<<<<<<<<<<<<<<<<<<<<<<<<//

    SCF Algorithm Type (re)set to DF.

*** tstart() called on node37.bme.utexas.edu
*** at Tue Feb 22 18:51:35 2022

   => Loading Basis Set <=

    Name: AUG-CC-PVTZ
    Role: ORBITAL
    Keyword: BASIS
    atoms 1-2 entry CL         line   984 file /home/bdw2292/miniconda3/envs/amoebamdpoltype/share/psi4/basis/aug-cc-pvtz.gbs 
    atoms 3   entry C          line   235 file /home/bdw2292/miniconda3/envs/amoebamdpoltype/share/psi4/basis/aug-cc-pvtz.gbs 
    atoms 4-5 entry H          line    36 file /home/bdw2292/miniconda3/envs/amoebamdpoltype/share/psi4/basis/aug-cc-pvtz.gbs 


         ---------------------------------------------------------
                                   SCF
               by Justin Turney, Rob Parrish, Andy Simmonett
                          and Daniel G. A. Smith
                              RHF Reference
                        4 Threads,  14305 MiB Core
         ---------------------------------------------------------

  ==> Geometry <==

    Molecular point group: c1
    Full point group: C1

    Geometry (in Angstrom), charge = 0, multiplicity = 1:

       Center              X                  Y                   Z               Mass       
    ------------   -----------------  -----------------  -----------------  -----------------
         CL          -2.569171966726     1.812566875004    -1.562334796751    34.968852682000
         CL           0.360255033274     1.477707175004    -1.404549096751    34.968852682000
         C           -1.215939266726     0.675978675004    -1.466691996751    12.000000000000
         H           -1.331609066726     0.082791175004    -0.560074596751     1.007825032230
         H           -1.240902566726     0.039870875004    -2.351340196751     1.007825032230

  Running in c1 symmetry.

  Rotational constants: A =      0.16567  B =      0.03092  C =      0.02669 [cm^-1]
  Rotational constants: A =   4966.70668  B =    927.10652  C =    800.20146 [MHz]
  Nuclear repulsion =  134.224886861784569

  Charge       = 0
  Multiplicity = 1
  Electrons    = 42
  Nalpha       = 21
  Nbeta        = 21

  ==> Algorithm <==

  SCF Algorithm Type is DF.
  DIIS enabled.
  MOM disabled.
  Fractional occupation disabled.
  Guess Type is SAD.
  Energy threshold   = 1.00e-08
  Density threshold  = 1.00e-08
  Integral threshold = 0.00e+00

  ==> Primary Basis <==

  Basis Set: AUG-CC-PVTZ
    Blend: AUG-CC-PVTZ
    Number of shells: 64
    Number of basis function: 192
    Number of Cartesian functions: 223
    Spherical Harmonics?: true
    Max angular momentum: 3

   => Loading Basis Set <=

    Name: (AUG-CC-PVTZ AUX)
    Role: JKFIT
    Keyword: DF_BASIS_SCF
    atoms 1-2 entry CL         line   816 file /home/bdw2292/miniconda3/envs/amoebamdpoltype/share/psi4/basis/aug-cc-pvtz-jkfit.gbs 
    atoms 3   entry C          line   162 file /home/bdw2292/miniconda3/envs/amoebamdpoltype/share/psi4/basis/aug-cc-pvtz-jkfit.gbs 
    atoms 4-5 entry H          line    70 file /home/bdw2292/miniconda3/envs/amoebamdpoltype/share/psi4/basis/aug-cc-pvtz-jkfit.gbs 

  ==> Pre-Iterations <==

   -------------------------------------------------------
    Irrep   Nso     Nmo     Nalpha   Nbeta   Ndocc  Nsocc
   -------------------------------------------------------
     A        192     192       0       0       0       0
   -------------------------------------------------------
    Total     192     192      21      21      21       0
   -------------------------------------------------------

  ==> Integral Setup <==

  DFHelper Memory: AOs need 0.144 GiB; user supplied 10.477 GiB. Using in-core AOs.

  ==> MemDFJK: Density-Fitted J/K Matrices <==

    J tasked:                   Yes
    K tasked:                   Yes
    wK tasked:                   No
    OpenMP threads:               4
    Memory [MiB]:             10728
    Algorithm:                 Core
    Schwarz Cutoff:           1E-12
    Mask sparsity (%):       0.0000
    Fitting Condition:        1E-10

   => Auxiliary Basis Set <=

  Basis Set: (AUG-CC-PVTZ AUX)
    Blend: AUG-CC-PVTZ-JKFIT
    Number of shells: 142
    Number of basis function: 488
    Number of Cartesian functions: 601
    Spherical Harmonics?: true
    Max angular momentum: 4

  Minimum eigenvalue in the overlap matrix is 6.8388790013E-05.
  Using Symmetric Orthogonalization.

  SCF Guess: Superposition of Atomic Densities via on-the-fly atomic UHF.

  ==> Iterations <==

                           Total Energy        Delta E     RMS |[F,P]|

   @DF-RHF iter SAD:  -957.79895707823505   -9.57799e+02   0.00000e+00 
   @DF-RHF iter   1:  -958.05052842709858   -2.51571e-01   1.05871e-03 DIIS
   @DF-RHF iter   2:  -958.07560228218540   -2.50739e-02   3.30470e-04 DIIS
   @DF-RHF iter   3:  -958.07825646940455   -2.65419e-03   1.38011e-04 DIIS
   @DF-RHF iter   4:  -958.07882459268762   -5.68123e-04   4.50455e-05 DIIS
   @DF-RHF iter   5:  -958.07889050184770   -6.59092e-05   9.85646e-06 DIIS
   @DF-RHF iter   6:  -958.07889609282779   -5.59098e-06   2.89464e-06 DIIS
   @DF-RHF iter   7:  -958.07889654453720   -4.51709e-07   7.92944e-07 DIIS
   @DF-RHF iter   8:  -958.07889657621308   -3.16759e-08   1.52693e-07 DIIS
   @DF-RHF iter   9:  -958.07889657727708   -1.06400e-09   3.19544e-08 DIIS
   @DF-RHF iter  10:  -958.07889657732301   -4.59295e-11   8.22604e-09 DIIS
  Energy and wave function converged.


  ==> Post-Iterations <==

    Orbital Energies [Eh]
    ---------------------

    Doubly Occupied:                                                      

       1A   -104.850720     2A   -104.850692     3A    -11.367252  
       4A    -10.575075     5A    -10.575056     6A     -8.041929  
       7A     -8.041912     8A     -8.039963     9A     -8.039945  
      10A     -8.039868    11A     -8.039850    12A     -1.192718  
      13A     -1.097642    14A     -0.895191    15A     -0.674241  
      16A     -0.616870    17A     -0.586140    18A     -0.474699  
      19A     -0.471017    20A     -0.449203    21A     -0.445847  

    Virtual:                                                              

      22A      0.029440    23A      0.042765    24A      0.064275  
      25A      0.066912    26A      0.113152    27A      0.114136  
      28A      0.120838    29A      0.132623    30A      0.132910  
      31A      0.133426    32A      0.145194    33A      0.161313  
      34A      0.187899    35A      0.205688    36A      0.231133  
      37A      0.234745    38A      0.266944    39A      0.269750  
      40A      0.273062    41A      0.322267    42A      0.324379  
      43A      0.327737    44A      0.353547    45A      0.360690  
      46A      0.373866    47A      0.386681    48A      0.411976  
      49A      0.422187    50A      0.434614    51A      0.434838  
      52A      0.455796    53A      0.456592    54A      0.464549  
      55A      0.491769    56A      0.502903    57A      0.516027  
      58A      0.519046    59A      0.553688    60A      0.554444  
      61A      0.695063    62A      0.697810    63A      0.698860  
      64A      0.722945    65A      0.750133    66A      0.766607  
      67A      0.778815    68A      0.823954    69A      0.837727  
      70A      0.841928    71A      0.848894    72A      0.872000  
      73A      0.893562    74A      0.897274    75A      0.898008  
      76A      0.914063    77A      0.937540    78A      0.947858  
      79A      0.954485    80A      0.970916    81A      1.005396  
      82A      1.022890    83A      1.041261    84A      1.043137  
      85A      1.067992    86A      1.086352    87A      1.088996  
      88A      1.098357    89A      1.115102    90A      1.117399  
      91A      1.131527    92A      1.144537    93A      1.200764  
      94A      1.226878    95A      1.253207    96A      1.260504  
      97A      1.298187    98A      1.355780    99A      1.366153  
     100A      1.401848   101A      1.458208   102A      1.495335  
     103A      1.508705   104A      1.542949   105A      1.551587  
     106A      1.567018   107A      1.616098   108A      1.685186  
     109A      1.716748   110A      1.724618   111A      1.725613  
     112A      1.734355   113A      1.752720   114A      1.760362  
     115A      1.822712   116A      1.840902   117A      1.910765  
     118A      1.924833   119A      1.932517   120A      1.937500  
     121A      1.943277   122A      2.024726   123A      2.099236  
     124A      2.138279   125A      2.206834   126A      2.450167  
     127A      2.579493   128A      2.592619   129A      2.596640  
     130A      2.634162   131A      2.647900   132A      2.654880  
     133A      2.665898   134A      2.701561   135A      2.710198  
     136A      2.732647   137A      2.884420   138A      2.931868  
     139A      2.936723   140A      2.972593   141A      3.029139  
     142A      3.043106   143A      3.052758   144A      3.058244  
     145A      3.076047   146A      3.107088   147A      3.108288  
     148A      3.150960   149A      3.168075   150A      3.186032  
     151A      3.188571   152A      3.193497   153A      3.206170  
     154A      3.254314   155A      3.292114   156A      3.309554  
     157A      3.409930   158A      3.443856   159A      3.595086  
     160A      3.597323   161A      3.606553   162A      3.642089  
     163A      3.727066   164A      3.748898   165A      3.905919  
     166A      3.918121   167A      3.977890   168A      4.052770  
     169A      4.087168   170A      4.180603   171A      4.193237  
     172A      4.245795   173A      4.343066   174A      4.378987  
     175A      4.529744   176A      4.690450   177A      4.718969  
     178A      4.794254   179A      4.908175   180A      4.945085  
     181A      4.970168   182A      5.164640   183A      5.256658  
     184A      5.312705   185A      5.341840   186A      5.726959  
     187A      5.774405   188A      5.911769   189A      6.568609  
     190A      7.340062   191A      7.688333   192A     15.535850  

    Final Occupation by Irrep:
              A 
    DOCC [    21 ]

  @DF-RHF Final Energy:  -958.07889657732301

   => Energetics <=

    Nuclear Repulsion Energy =            134.2248868617845687
    One-Electron Energy =               -1589.8759095057184823
    Two-Electron Energy =                 497.5721260666109060
    Total Energy =                       -958.0788965773228938

Computation Completed


Properties will be evaluated at  -2.125484,   2.775220,  -2.797516 [a0]

Properties computed using the SCF density matrix

  Nuclear Dipole Moment: [e a0]
     X:    -0.3400      Y:    -2.9618      Z:     0.0519

  Electronic Dipole Moment: [e a0]
     X:     0.2579      Y:     2.2474      Z:    -0.0394

  Dipole Moment: [e a0]
     X:    -0.0820      Y:    -0.7143      Z:     0.0125     Total:     0.7191

  Dipole Moment: [D]
     X:    -0.2085      Y:    -1.8157      Z:     0.0318     Total:     1.8279


*** tstop() called on node37.bme.utexas.edu at Tue Feb 22 18:51:46 2022
Module time:
	user time   =      17.29 seconds =       0.29 minutes
	system time =       1.49 seconds =       0.02 minutes
	total time  =         11 seconds =       0.18 minutes
Total time:
	user time   =      17.29 seconds =       0.29 minutes
	system time =       1.49 seconds =       0.02 minutes
	total time  =         11 seconds =       0.18 minutes

*** tstart() called on node37.bme.utexas.edu
*** at Tue Feb 22 18:51:46 2022


  //>>>>>>>>>>>>>>>>>>>>>>>>>>>>>>>>>>>//
  //               DFMP2               //
  //<<<<<<<<<<<<<<<<<<<<<<<<<<<<<<<<<<<//

   => Loading Basis Set <=

    Name: (AUG-CC-PVTZ AUX)
    Role: RIFIT
    Keyword: DF_BASIS_MP2
    atoms 1-2 entry CL         line   742 file /home/bdw2292/miniconda3/envs/amoebamdpoltype/share/psi4/basis/aug-cc-pvtz-ri.gbs 
    atoms 3   entry C          line   148 file /home/bdw2292/miniconda3/envs/amoebamdpoltype/share/psi4/basis/aug-cc-pvtz-ri.gbs 
    atoms 4-5 entry H          line    30 file /home/bdw2292/miniconda3/envs/amoebamdpoltype/share/psi4/basis/aug-cc-pvtz-ri.gbs 

	 --------------------------------------------------------
	                          DF-MP2                         
	      2nd-Order Density-Fitted Moller-Plesset Theory     
	              RMP2 Wavefunction,   4 Threads             
	                                                         
	        Rob Parrish, Justin Turney, Andy Simmonett,      
	           Ed Hohenstein, and C. David Sherrill          
	 --------------------------------------------------------

   => Auxiliary Basis Set <=

  Basis Set: (AUG-CC-PVTZ AUX)
    Blend: AUG-CC-PVTZ-RI
    Number of shells: 130
    Number of basis function: 492
    Number of Cartesian functions: 628
    Spherical Harmonics?: true
    Max angular momentum: 4

	 --------------------------------------------------------
	                 NBF =   192, NAUX =   492
	 --------------------------------------------------------
	   CLASS    FOCC     OCC    AOCC    AVIR     VIR    FVIR
	   PAIRS      11      21      10     171     171       0
	 --------------------------------------------------------

	-----------------------------------------------------------
	 ==================> DF-MP2 Energies <==================== 
	-----------------------------------------------------------
	 Reference Energy          =    -958.0788965773230075 [Eh]
	 Singles Energy            =      -0.0000000000000000 [Eh]
	 Same-Spin Energy          =      -0.1372550641506939 [Eh]
	 Opposite-Spin Energy      =      -0.4286502503077173 [Eh]
	 Correlation Energy        =      -0.5659053144584111 [Eh]
	 Total Energy              =    -958.6448018917814125 [Eh]
	-----------------------------------------------------------
	 ================> DF-SCS-MP2 Energies <================== 
	-----------------------------------------------------------
	 SCS Same-Spin Scale       =       0.3333333333333333 [-]
	 SCS Opposite-Spin Scale   =       1.2000000000000000 [-]
	 SCS Same-Spin Energy      =      -0.0457516880502313 [Eh]
	 SCS Opposite-Spin Energy  =      -0.5143803003692606 [Eh]
	 SCS Correlation Energy    =      -0.5601319884194920 [Eh]
	 SCS Total Energy          =    -958.6390285657424783 [Eh]
	-----------------------------------------------------------


*** tstop() called on node37.bme.utexas.edu at Tue Feb 22 18:51:48 2022
Module time:
	user time   =       5.38 seconds =       0.09 minutes
	system time =       0.34 seconds =       0.01 minutes
	total time  =          2 seconds =       0.03 minutes
Total time:
	user time   =      22.67 seconds =       0.38 minutes
	system time =       1.83 seconds =       0.03 minutes
	total time  =         13 seconds =       0.22 minutes

  //>>>>>>>>>>>>>>>>>>>>>>>>>>>>>>>>>>>>//
  // CBS Computation: MP2 / AUG-CC-PVQZ //
  //<<<<<<<<<<<<<<<<<<<<<<<<<<<<<<<<<<<<//

    SCF Algorithm Type (re)set to DF.

*** tstart() called on node37.bme.utexas.edu
*** at Tue Feb 22 18:51:48 2022

   => Loading Basis Set <=

    Name: AUG-CC-PVQZ
    Role: ORBITAL
    Keyword: BASIS
    atoms 1-2 entry CL         line  1218 file /home/bdw2292/miniconda3/envs/amoebamdpoltype/share/psi4/basis/aug-cc-pvqz.gbs 
    atoms 3   entry C          line   299 file /home/bdw2292/miniconda3/envs/amoebamdpoltype/share/psi4/basis/aug-cc-pvqz.gbs 
    atoms 4-5 entry H          line    36 file /home/bdw2292/miniconda3/envs/amoebamdpoltype/share/psi4/basis/aug-cc-pvqz.gbs 


         ---------------------------------------------------------
                                   SCF
               by Justin Turney, Rob Parrish, Andy Simmonett
                          and Daniel G. A. Smith
                              RHF Reference
                        4 Threads,  14305 MiB Core
         ---------------------------------------------------------

  ==> Geometry <==

    Molecular point group: c1
    Full point group: C1

    Geometry (in Angstrom), charge = 0, multiplicity = 1:

       Center              X                  Y                   Z               Mass       
    ------------   -----------------  -----------------  -----------------  -----------------
         CL          -2.569171966726     1.812566875004    -1.562334796751    34.968852682000
         CL           0.360255033274     1.477707175004    -1.404549096751    34.968852682000
         C           -1.215939266726     0.675978675004    -1.466691996751    12.000000000000
         H           -1.331609066726     0.082791175004    -0.560074596751     1.007825032230
         H           -1.240902566726     0.039870875004    -2.351340196751     1.007825032230

  Running in c1 symmetry.

  Rotational constants: A =      0.16567  B =      0.03092  C =      0.02669 [cm^-1]
  Rotational constants: A =   4966.70668  B =    927.10652  C =    800.20146 [MHz]
  Nuclear repulsion =  134.224886861784569

  Charge       = 0
  Multiplicity = 1
  Electrons    = 42
  Nalpha       = 21
  Nbeta        = 21

  ==> Algorithm <==

  SCF Algorithm Type is DF.
  DIIS enabled.
  MOM disabled.
  Fractional occupation disabled.
  Guess Type is SAD.
  Energy threshold   = 1.00e-08
  Density threshold  = 1.00e-08
  Integral threshold = 0.00e+00

  ==> Primary Basis <==

  Basis Set: AUG-CC-PVQZ
    Blend: AUG-CC-PVQZ
    Number of shells: 92
    Number of basis function: 340
    Number of Cartesian functions: 433
    Spherical Harmonics?: true
    Max angular momentum: 4

   => Loading Basis Set <=

    Name: (AUG-CC-PVQZ AUX)
    Role: JKFIT
    Keyword: DF_BASIS_SCF
    atoms 1-2 entry CL         line   904 file /home/bdw2292/miniconda3/envs/amoebamdpoltype/share/psi4/basis/aug-cc-pvqz-jkfit.gbs 
    atoms 3   entry C          line   178 file /home/bdw2292/miniconda3/envs/amoebamdpoltype/share/psi4/basis/aug-cc-pvqz-jkfit.gbs 
    atoms 4-5 entry H          line    70 file /home/bdw2292/miniconda3/envs/amoebamdpoltype/share/psi4/basis/aug-cc-pvqz-jkfit.gbs 

  ==> Pre-Iterations <==

   -------------------------------------------------------
    Irrep   Nso     Nmo     Nalpha   Nbeta   Ndocc  Nsocc
   -------------------------------------------------------
     A        340     340       0       0       0       0
   -------------------------------------------------------
    Total     340     340      21      21      21       0
   -------------------------------------------------------

  ==> Integral Setup <==

  DFHelper Memory: AOs need 0.604 GiB; user supplied 10.477 GiB. Using in-core AOs.

  ==> MemDFJK: Density-Fitted J/K Matrices <==

    J tasked:                   Yes
    K tasked:                   Yes
    wK tasked:                   No
    OpenMP threads:               4
    Memory [MiB]:             10728
    Algorithm:                 Core
    Schwarz Cutoff:           1E-12
    Mask sparsity (%):       0.1713
    Fitting Condition:        1E-10

   => Auxiliary Basis Set <=

  Basis Set: (AUG-CC-PVQZ AUX)
    Blend: AUG-CC-PVQZ-JKFIT
    Number of shells: 162
    Number of basis function: 662
    Number of Cartesian functions: 894
    Spherical Harmonics?: true
    Max angular momentum: 5

  Minimum eigenvalue in the overlap matrix is 1.4671017713E-05.
  Using Symmetric Orthogonalization.

  SCF Guess: Superposition of Atomic Densities via on-the-fly atomic UHF.

  ==> Iterations <==

                           Total Energy        Delta E     RMS |[F,P]|

   @DF-RHF iter SAD:  -957.80646615270780   -9.57806e+02   0.00000e+00 
   @DF-RHF iter   1:  -958.05972938046796   -2.53263e-01   6.37368e-04 DIIS
   @DF-RHF iter   2:  -958.08523453173814   -2.55052e-02   1.96604e-04 DIIS
   @DF-RHF iter   3:  -958.08793908471716   -2.70455e-03   7.78758e-05 DIIS
   @DF-RHF iter   4:  -958.08851977167456   -5.80687e-04   2.79358e-05 DIIS
   @DF-RHF iter   5:  -958.08859607231466   -7.63006e-05   6.09645e-06 DIIS
   @DF-RHF iter   6:  -958.08860259710593   -6.52479e-06   1.75429e-06 DIIS
   @DF-RHF iter   7:  -958.08860311339106   -5.16285e-07   5.05321e-07 DIIS
   @DF-RHF iter   8:  -958.08860315167863   -3.82876e-08   9.86663e-08 DIIS
   @DF-RHF iter   9:  -958.08860315303048   -1.35185e-09   2.16628e-08 DIIS
   @DF-RHF iter  10:  -958.08860315308868   -5.82077e-11   5.55473e-09 DIIS
  Energy and wave function converged.


  ==> Post-Iterations <==

    Orbital Energies [Eh]
    ---------------------

    Doubly Occupied:                                                      

       1A   -104.848454     2A   -104.848426     3A    -11.365403  
       4A    -10.574010     5A    -10.573991     6A     -8.041081  
       7A     -8.041063     8A     -8.039276     9A     -8.039258  
      10A     -8.039185    11A     -8.039166    12A     -1.192006  
      13A     -1.097136    14A     -0.894849    15A     -0.673927  
      16A     -0.616778    17A     -0.586102    18A     -0.474547  
      19A     -0.470873    20A     -0.449069    21A     -0.445713  

    Virtual:                                                              

      22A      0.026462    23A      0.038546    24A      0.054432  
      25A      0.056133    26A      0.095959    27A      0.097672  
      28A      0.099539    29A      0.103234    30A      0.110454  
      31A      0.116413    32A      0.127414    33A      0.138783  
      34A      0.163048    35A      0.179716    36A      0.196781  
      37A      0.200272    38A      0.233080    39A      0.235694  
      40A      0.237118    41A      0.260750    42A      0.262066  
      43A      0.265855    44A      0.294320    45A      0.298185  
      46A      0.299239    47A      0.305766    48A      0.319706  
      49A      0.335221    50A      0.341739    51A      0.347170  
      52A      0.350576    53A      0.354403    54A      0.359168  
      55A      0.371739    56A      0.388318    57A      0.396652  
      58A      0.397265    59A      0.415820    60A      0.449636  
      61A      0.506918    62A      0.529943    63A      0.536498  
      64A      0.552556    65A      0.553198    66A      0.569136  
      67A      0.585061    68A      0.591510    69A      0.597770  
      70A      0.603692    71A      0.615741    72A      0.647571  
      73A      0.649915    74A      0.674251    75A      0.674795  
      76A      0.678681    77A      0.716911    78A      0.725137  
      79A      0.728753    80A      0.730619    81A      0.764748  
      82A      0.776812    83A      0.777864    84A      0.779001  
      85A      0.794480    86A      0.828527    87A      0.829032  
      88A      0.831608    89A      0.844245    90A      0.861934  
      91A      0.872783    92A      0.918782    93A      0.920508  
      94A      0.935298    95A      0.939200    96A      0.976087  
      97A      0.992618    98A      1.026463    99A      1.033141  
     100A      1.057419   101A      1.066320   102A      1.093434  
     103A      1.114401   104A      1.126931   105A      1.131599  
     106A      1.135296   107A      1.159935   108A      1.170397  
     109A      1.184700   110A      1.208072   111A      1.212181  
     112A      1.230614   113A      1.234702   114A      1.257226  
     115A      1.267501   116A      1.278710   117A      1.306815  
     118A      1.313183   119A      1.333731   120A      1.410129  
     121A      1.416212   122A      1.482191   123A      1.484844  
     124A      1.530356   125A      1.606555   126A      1.629226  
     127A      1.678175   128A      1.707662   129A      1.718736  
     130A      1.741862   131A      1.741973   132A      1.766896  
     133A      1.770380   134A      1.775581   135A      1.808669  
     136A      1.813863   137A      1.822269   138A      1.854914  
     139A      1.862977   140A      1.865725   141A      1.902303  
     142A      1.902567   143A      1.907175   144A      1.926456  
     145A      1.956586   146A      1.963025   147A      1.979489  
     148A      1.991705   149A      1.994563   150A      2.011087  
     151A      2.019240   152A      2.040428   153A      2.059723  
     154A      2.065006   155A      2.070910   156A      2.084649  
     157A      2.102356   158A      2.110941   159A      2.124398  
     160A      2.141715   161A      2.150672   162A      2.151209  
     163A      2.161001   164A      2.197512   165A      2.199259  
     166A      2.209375   167A      2.242283   168A      2.247805  
     169A      2.250132   170A      2.260085   171A      2.270721  
     172A      2.299359   173A      2.301182   174A      2.340322  
     175A      2.344910   176A      2.356422   177A      2.413693  
     178A      2.418390   179A      2.423044   180A      2.437301  
     181A      2.451486   182A      2.465337   183A      2.472505  
     184A      2.495451   185A      2.498301   186A      2.552799  
     187A      2.601158   188A      2.613381   189A      2.630115  
     190A      2.631233   191A      2.742830   192A      2.752187  
     193A      2.806865   194A      2.814840   195A      2.891189  
     196A      2.892544   197A      2.893959   198A      2.898296  
     199A      2.986062   200A      3.014698   201A      3.031534  
     202A      3.086817   203A      3.112085   204A      3.151351  
     205A      3.193245   206A      3.207717   207A      3.302440  
     208A      3.316289   209A      3.352764   210A      3.355778  
     211A      3.452465   212A      3.475693   213A      3.517878  
     214A      3.563948   215A      3.612926   216A      3.706477  
     217A      3.708321   218A      3.743435   219A      3.744844  
     220A      3.811242   221A      3.901125   222A      3.920379  
     223A      3.945563   224A      4.015914   225A      4.075893  
     226A      4.144239   227A      4.193231   228A      4.200231  
     229A      4.344946   230A      4.370612   231A      4.387872  
     232A      4.463510   233A      4.481624   234A      4.505685  
     235A      4.541247   236A      4.542505   237A      4.568815  
     238A      4.679060   239A      4.681921   240A      4.682030  
     241A      4.686326   242A      4.721490   243A      4.724513  
     244A      4.725217   245A      4.741375   246A      4.752252  
     247A      4.763514   248A      4.764495   249A      4.794837  
     250A      4.800692   251A      4.805488   252A      4.839934  
     253A      4.846364   254A      4.856257   255A      4.894670  
     256A      4.902222   257A      4.919601   258A      4.932106  
     259A      4.942933   260A      4.953628   261A      4.983510  
     262A      5.041937   263A      5.046758   264A      5.058206  
     265A      5.081092   266A      5.170065   267A      5.194731  
     268A      5.209121   269A      5.245186   270A      5.290883  
     271A      5.385963   272A      5.404365   273A      5.405070  
     274A      5.505312   275A      5.646987   276A      6.306249  
     277A      6.346438   278A      6.353120   279A      6.372224  
     280A      6.388782   281A      6.532040   282A      6.567554  
     283A      6.609698   284A      6.655870   285A      6.731526  
     286A      6.769103   287A      6.811512   288A      6.817833  
     289A      6.830717   290A      6.869402   291A      6.942482  
     292A      6.944228   293A      6.984387   294A      7.000646  
     295A      7.026220   296A      7.144409   297A      7.170988  
     298A      7.220438   299A      7.350714   300A      7.430148  
     301A      7.449034   302A      7.569242   303A      7.586471  
     304A      7.612342   305A      7.666162   306A      7.712579  
     307A      7.757408   308A      7.808654   309A      8.011567  
     310A      8.090883   311A      8.119507   312A      8.316202  
     313A      8.500248   314A      8.537444   315A      8.585656  
     316A      8.719565   317A      8.807471   318A      8.868241  
     319A      8.935751   320A      9.126111   321A      9.212688  
     322A      9.426993   323A      9.464049   324A      9.498195  
     325A      9.505858   326A      9.540827   327A      9.772203  
     328A      9.931525   329A      9.951146   330A     10.311117  
     331A     10.391331   332A     10.583798   333A     10.758191  
     334A     10.773195   335A     11.061729   336A     13.005281  
     337A     13.088775   338A     25.965349   339A     26.588669  
     340A     27.887037  

    Final Occupation by Irrep:
              A 
    DOCC [    21 ]

  @DF-RHF Final Energy:  -958.08860315308868

   => Energetics <=

    Nuclear Repulsion Energy =            134.2248868617845687
    One-Electron Energy =               -1589.9263535249974666
    Two-Electron Energy =                 497.6128635101241571
    Total Energy =                       -958.0886031530886839

Computation Completed


Properties will be evaluated at  -2.125484,   2.775220,  -2.797516 [a0]

Properties computed using the SCF density matrix

  Nuclear Dipole Moment: [e a0]
     X:    -0.3400      Y:    -2.9618      Z:     0.0519

  Electronic Dipole Moment: [e a0]
     X:     0.2584      Y:     2.2517      Z:    -0.0394

  Dipole Moment: [e a0]
     X:    -0.0815      Y:    -0.7101      Z:     0.0124     Total:     0.7149

  Dipole Moment: [D]
     X:    -0.2072      Y:    -1.8049      Z:     0.0316     Total:     1.8170


*** tstop() called on node37.bme.utexas.edu at Tue Feb 22 18:52:02 2022
Module time:
	user time   =      40.77 seconds =       0.68 minutes
	system time =       2.76 seconds =       0.05 minutes
	total time  =         14 seconds =       0.23 minutes
Total time:
	user time   =      63.50 seconds =       1.06 minutes
	system time =       4.60 seconds =       0.08 minutes
	total time  =         27 seconds =       0.45 minutes

*** tstart() called on node37.bme.utexas.edu
*** at Tue Feb 22 18:52:02 2022


  //>>>>>>>>>>>>>>>>>>>>>>>>>>>>>>>>>>>//
  //               DFMP2               //
  //<<<<<<<<<<<<<<<<<<<<<<<<<<<<<<<<<<<//

   => Loading Basis Set <=

    Name: (AUG-CC-PVQZ AUX)
    Role: RIFIT
    Keyword: DF_BASIS_MP2
    atoms 1-2 entry CL         line   914 file /home/bdw2292/miniconda3/envs/amoebamdpoltype/share/psi4/basis/aug-cc-pvqz-ri.gbs 
    atoms 3   entry C          line   184 file /home/bdw2292/miniconda3/envs/amoebamdpoltype/share/psi4/basis/aug-cc-pvqz-ri.gbs 
    atoms 4-5 entry H          line    30 file /home/bdw2292/miniconda3/envs/amoebamdpoltype/share/psi4/basis/aug-cc-pvqz-ri.gbs 

	 --------------------------------------------------------
	                          DF-MP2                         
	      2nd-Order Density-Fitted Moller-Plesset Theory     
	              RMP2 Wavefunction,   4 Threads             
	                                                         
	        Rob Parrish, Justin Turney, Andy Simmonett,      
	           Ed Hohenstein, and C. David Sherrill          
	 --------------------------------------------------------

   => Auxiliary Basis Set <=

  Basis Set: (AUG-CC-PVQZ AUX)
    Blend: AUG-CC-PVQZ-RI
    Number of shells: 164
    Number of basis function: 716
    Number of Cartesian functions: 983
    Spherical Harmonics?: true
    Max angular momentum: 5

	 --------------------------------------------------------
	                 NBF =   340, NAUX =   716
	 --------------------------------------------------------
	   CLASS    FOCC     OCC    AOCC    AVIR     VIR    FVIR
	   PAIRS      11      21      10     319     319       0
	 --------------------------------------------------------

	-----------------------------------------------------------
	 ==================> DF-MP2 Energies <==================== 
	-----------------------------------------------------------
	 Reference Energy          =    -958.0886031530886839 [Eh]
	 Singles Energy            =      -0.0000000000000000 [Eh]
	 Same-Spin Energy          =      -0.1416202440645535 [Eh]
	 Opposite-Spin Energy      =      -0.4672537357812651 [Eh]
	 Correlation Energy        =      -0.6088739798458186 [Eh]
	 Total Energy              =    -958.6974771329345231 [Eh]
	-----------------------------------------------------------
	 ================> DF-SCS-MP2 Energies <================== 
	-----------------------------------------------------------
	 SCS Same-Spin Scale       =       0.3333333333333333 [-]
	 SCS Opposite-Spin Scale   =       1.2000000000000000 [-]
	 SCS Same-Spin Energy      =      -0.0472067480215178 [Eh]
	 SCS Opposite-Spin Energy  =      -0.5607044829375181 [Eh]
	 SCS Correlation Energy    =      -0.6079112309590359 [Eh]
	 SCS Total Energy          =    -958.6965143840477594 [Eh]
	-----------------------------------------------------------


*** tstop() called on node37.bme.utexas.edu at Tue Feb 22 18:52:08 2022
Module time:
	user time   =      15.54 seconds =       0.26 minutes
	system time =       1.24 seconds =       0.02 minutes
	total time  =          6 seconds =       0.10 minutes
Total time:
	user time   =      79.05 seconds =       1.32 minutes
	system time =       5.84 seconds =       0.10 minutes
	total time  =         33 seconds =       0.55 minutes

  //>>>>>>>>>>>>>>>>>>>>>>>>>>>>>>>>>>>//
  //  CBS Results: mp2/aug-cc-pV[TQ]Z  //
  //<<<<<<<<<<<<<<<<<<<<<<<<<<<<<<<<<<<//


   ==> HF <==

   HI-zeta (4) Energy:               -958.088603153089


   ==> Helgaker 2-point correlated extrapolation for method: MP2 <==

   LO-zeta (3) Energy:               -958.644801891781
   HI-zeta (4) Energy:               -958.697477132935
   Alpha (exponent) Value:             3.000000000000
   Extrapolated Energy:              -958.735915822425

   @Extrapolated MP2/(T,Q):          -958.735915822425



   ==> Helgaker 2-point correlated extrapolation for method: HF <==

   LO-zeta (3) Energy:               -958.078896577323
   HI-zeta (4) Energy:               -958.088603153089
   Alpha (exponent) Value:             3.000000000000
   Extrapolated Energy:              -958.095686329999

   @Extrapolated HF/(T,Q):           -958.095686329999


   ==> Components <==

  ---------------------------------------------------------------------------------------------------------
                          Method / Basis                      Rqd      Energy [Eh]   Variable
  ---------------------------------------------------------------------------------------------------------
                              hf / aug-cc-pvtz                  *    -958.07889658   HF TOTAL ENERGY
                             mp2 / aug-cc-pvtz                  *    -958.64480189   MP2 TOTAL ENERGY
                              hf / aug-cc-pvqz                  *    -958.08860315   HF TOTAL ENERGY
                             mp2 / aug-cc-pvqz                  *    -958.69747713   MP2 TOTAL ENERGY
  ---------------------------------------------------------------------------------------------------------

   ==> Stages <==

  ---------------------------------------------------------------------------------------------------------
      Stage               Method / Basis                       Wt      Energy [Eh]   Scheme
  ---------------------------------------------------------------------------------------------------------
        scf                   hf / aug-cc-pvqz                  1    -958.08860315   xtpl_highest_1
       corl                  mp2 / aug-cc-pv[tq]z               1    -958.73591582   corl_xtpl_helgaker_2
       corl                   hf / aug-cc-pv[tq]z              -1    -958.09568633   corl_xtpl_helgaker_2
  ---------------------------------------------------------------------------------------------------------

   ==> CBS <==

  ---------------------------------------------------------------------------------------------------------
      Stage               Method / Basis                               Energy [Eh]   Scheme
  ---------------------------------------------------------------------------------------------------------
        scf                   hf / aug-cc-pvqz                       -958.08860315   xtpl_highest_1
       corl                  mp2 / aug-cc-pv[tq]z                      -0.64022949   corl_xtpl_helgaker_2
      total                  CBS                                     -958.72883265   
  ---------------------------------------------------------------------------------------------------------
   => Loading Basis Set <=

    Name: DEF2-SVP
    Role: ORBITAL
    Keyword: BASIS
    atoms 1-2 entry CL         line   356 file /home/bdw2292/miniconda3/envs/amoebamdpoltype/share/psi4/basis/def2-svp.gbs 
    atoms 3   entry C          line    90 file /home/bdw2292/miniconda3/envs/amoebamdpoltype/share/psi4/basis/def2-svp.gbs 
    atoms 4-5 entry H          line    15 file /home/bdw2292/miniconda3/envs/amoebamdpoltype/share/psi4/basis/def2-svp.gbs 


       N-Body: Complex Energy (fragments = (2,), basis = (2,):  -958.72883264551433)

       N-Body: Computing complex (2/4) with fragments (2,) in the basis of fragments (1, 2).


  //>>>>>>>>>>>>>>>>>>>>>>>>>>>>>>>>>>>//
  //   CBS Setup: mp2/aug-cc-pV[TQ]Z   //
  //<<<<<<<<<<<<<<<<<<<<<<<<<<<<<<<<<<<//

    Naive listing of computations required.
             hf / aug-cc-pvqz              for  HF TOTAL ENERGY
            mp2 / aug-cc-pvtz              for  MP2 TOTAL ENERGY
            mp2 / aug-cc-pvqz              for  MP2 TOTAL ENERGY
             hf / aug-cc-pvtz              for  HF TOTAL ENERGY
             hf / aug-cc-pvqz              for  HF TOTAL ENERGY

    Enlightened listing of computations required.
            mp2 / aug-cc-pvtz              for  MP2 TOTAL ENERGY
            mp2 / aug-cc-pvqz              for  MP2 TOTAL ENERGY

    Full listing of computations to be obtained (required and bonus).
             hf / aug-cc-pvtz              for  HF TOTAL ENERGY
            mp2 / aug-cc-pvtz              for  MP2 TOTAL ENERGY
             hf / aug-cc-pvqz              for  HF TOTAL ENERGY
            mp2 / aug-cc-pvqz              for  MP2 TOTAL ENERGY

  //>>>>>>>>>>>>>>>>>>>>>>>>>>>>>>>>>>>>//
  // CBS Computation: MP2 / AUG-CC-PVTZ //
  //<<<<<<<<<<<<<<<<<<<<<<<<<<<<<<<<<<<<//

    SCF Algorithm Type (re)set to DF.

*** tstart() called on node37.bme.utexas.edu
*** at Tue Feb 22 18:52:09 2022

   => Loading Basis Set <=

    Name: AUG-CC-PVTZ
    Role: ORBITAL
    Keyword: BASIS
    atoms 1-2, 6-7  entry CL         line   984 file /home/bdw2292/miniconda3/envs/amoebamdpoltype/share/psi4/basis/aug-cc-pvtz.gbs 
    atoms 3, 8      entry C          line   235 file /home/bdw2292/miniconda3/envs/amoebamdpoltype/share/psi4/basis/aug-cc-pvtz.gbs 
    atoms 4-5, 9-10 entry H          line    36 file /home/bdw2292/miniconda3/envs/amoebamdpoltype/share/psi4/basis/aug-cc-pvtz.gbs 


         ---------------------------------------------------------
                                   SCF
               by Justin Turney, Rob Parrish, Andy Simmonett
                          and Daniel G. A. Smith
                              RHF Reference
                        4 Threads,  14305 MiB Core
         ---------------------------------------------------------

  ==> Geometry <==

    Molecular point group: c1
    Full point group: C1

    Geometry (in Angstrom), charge = 0, multiplicity = 1:

       Center              X                  Y                   Z               Mass       
    ------------   -----------------  -----------------  -----------------  -----------------
      Gh(CL)         -0.293527166726    -1.589649124996     1.914335103249    34.968852682000
      Gh(CL)          2.482305633274    -1.000448324996     1.091077303249    34.968852682000
      Gh(C)           1.260856533274    -2.247391024996     1.379967803249    12.000000000000
      Gh(H)           1.633674733274    -2.913887424996     2.157659703249     1.007825032230
      Gh(H)           1.102766033274    -2.792505924996     0.449528103249     1.007825032230
         CL          -2.569171966726     1.812566875004    -1.562334796751    34.968852682000
         CL           0.360255033274     1.477707175004    -1.404549096751    34.968852682000
         C           -1.215939266726     0.675978675004    -1.466691996751    12.000000000000
         H           -1.331609066726     0.082791175004    -0.560074596751     1.007825032230
         H           -1.240902566726     0.039870875004    -2.351340196751     1.007825032230

  Running in c1 symmetry.

  Rotational constants: A =      0.06470  B =      0.01629  C =      0.01336 [cm^-1]
  Rotational constants: A =   1939.58934  B =    488.30882  C =    400.55257 [MHz]
  Nuclear repulsion =  134.224886861784569

  Charge       = 0
  Multiplicity = 1
  Electrons    = 42
  Nalpha       = 21
  Nbeta        = 21

  ==> Algorithm <==

  SCF Algorithm Type is DF.
  DIIS enabled.
  MOM disabled.
  Fractional occupation disabled.
  Guess Type is SAD.
  Energy threshold   = 1.00e-08
  Density threshold  = 1.00e-08
  Integral threshold = 0.00e+00

  ==> Primary Basis <==

  Basis Set: AUG-CC-PVTZ
    Blend: AUG-CC-PVTZ
    Number of shells: 128
    Number of basis function: 384
    Number of Cartesian functions: 446
    Spherical Harmonics?: true
    Max angular momentum: 3

   => Loading Basis Set <=

    Name: (AUG-CC-PVTZ AUX)
    Role: JKFIT
    Keyword: DF_BASIS_SCF
    atoms 1-2, 6-7  entry CL         line   816 file /home/bdw2292/miniconda3/envs/amoebamdpoltype/share/psi4/basis/aug-cc-pvtz-jkfit.gbs 
    atoms 3, 8      entry C          line   162 file /home/bdw2292/miniconda3/envs/amoebamdpoltype/share/psi4/basis/aug-cc-pvtz-jkfit.gbs 
    atoms 4-5, 9-10 entry H          line    70 file /home/bdw2292/miniconda3/envs/amoebamdpoltype/share/psi4/basis/aug-cc-pvtz-jkfit.gbs 

  ==> Pre-Iterations <==

   -------------------------------------------------------
    Irrep   Nso     Nmo     Nalpha   Nbeta   Ndocc  Nsocc
   -------------------------------------------------------
     A        384     384       0       0       0       0
   -------------------------------------------------------
    Total     384     384      21      21      21       0
   -------------------------------------------------------

  ==> Integral Setup <==

  DFHelper Memory: AOs need 1.038 GiB; user supplied 10.477 GiB. Using in-core AOs.

  ==> MemDFJK: Density-Fitted J/K Matrices <==

    J tasked:                   Yes
    K tasked:                   Yes
    wK tasked:                   No
    OpenMP threads:               4
    Memory [MiB]:             10728
    Algorithm:                 Core
    Schwarz Cutoff:           1E-12
    Mask sparsity (%):       7.0530
    Fitting Condition:        1E-10

   => Auxiliary Basis Set <=

  Basis Set: (AUG-CC-PVTZ AUX)
    Blend: AUG-CC-PVTZ-JKFIT
    Number of shells: 284
    Number of basis function: 976
    Number of Cartesian functions: 1202
    Spherical Harmonics?: true
    Max angular momentum: 4

  Minimum eigenvalue in the overlap matrix is 5.2253794842E-05.
  Using Symmetric Orthogonalization.

  SCF Guess: Superposition of Atomic Densities via on-the-fly atomic UHF.

  ==> Iterations <==

                           Total Energy        Delta E     RMS |[F,P]|

   @DF-RHF iter SAD:  -957.79895751095387   -9.57799e+02   0.00000e+00 
   @DF-RHF iter   1:  -958.05056383796489   -2.51606e-01   5.29554e-04 DIIS
   @DF-RHF iter   2:  -958.07564079926965   -2.50770e-02   1.65278e-04 DIIS
   @DF-RHF iter   3:  -958.07829539975671   -2.65460e-03   6.90058e-05 DIIS
   @DF-RHF iter   4:  -958.07886359335555   -5.68194e-04   2.25340e-05 DIIS
   @DF-RHF iter   5:  -958.07892955103205   -6.59577e-05   4.92994e-06 DIIS
   @DF-RHF iter   6:  -958.07893514516104   -5.59413e-06   1.44776e-06 DIIS
   @DF-RHF iter   7:  -958.07893559718661   -4.52026e-07   3.96709e-07 DIIS
   @DF-RHF iter   8:  -958.07893562889126   -3.17046e-08   7.64029e-08 DIIS
   @DF-RHF iter   9:  -958.07893562996003   -1.06877e-09   1.59916e-08 DIIS
   @DF-RHF iter  10:  -958.07893563000448   -4.44516e-11   4.11852e-09 DIIS
  Energy and wave function converged.


  ==> Post-Iterations <==

    Orbital Energies [Eh]
    ---------------------

    Doubly Occupied:                                                      

       1A   -104.850737     2A   -104.850695     3A    -11.367234  
       4A    -10.575068     5A    -10.575035     6A     -8.041919  
       7A     -8.041889     8A     -8.039957     9A     -8.039924  
      10A     -8.039862    11A     -8.039829    12A     -1.192698  
      13A     -1.097622    14A     -0.895173    15A     -0.674224  
      16A     -0.616855    17A     -0.586126    18A     -0.474684  
      19A     -0.471004    20A     -0.449190    21A     -0.445833  

    Virtual:                                                              

      22A      0.020237    23A      0.034688    24A      0.043944  
      25A      0.050615    26A      0.055656    27A      0.069330  
      28A      0.076735    29A      0.091648    30A      0.096575  
      31A      0.100308    32A      0.107636    33A      0.117839  
      34A      0.123072    35A      0.128142    36A      0.130380  
      37A      0.136677    38A      0.140283    39A      0.143184  
      40A      0.151131    41A      0.160192    42A      0.162560  
      43A      0.170267    44A      0.173691    45A      0.182559  
      46A      0.189706    47A      0.202188    48A      0.205357  
      49A      0.214250    50A      0.247252    51A      0.253331  
      52A      0.259759    53A      0.267875    54A      0.276256  
      55A      0.288334    56A      0.297496    57A      0.309665  
      58A      0.313685    59A      0.317687    60A      0.324679  
      61A      0.331450    62A      0.335277    63A      0.345360  
      64A      0.357681    65A      0.359424    66A      0.367901  
      67A      0.375790    68A      0.381475    69A      0.386010  
      70A      0.393036    71A      0.400772    72A      0.412895  
      73A      0.414408    74A      0.428179    75A      0.433541  
      76A      0.438667    77A      0.449998    78A      0.454844  
      79A      0.455684    80A      0.461581    81A      0.475458  
      82A      0.482285    83A      0.493231    84A      0.498058  
      85A      0.505777    86A      0.514898    87A      0.520382  
      88A      0.528994    89A      0.543607    90A      0.544698  
      91A      0.555700    92A      0.574248    93A      0.581852  
      94A      0.587990    95A      0.597175    96A      0.614541  
      97A      0.625592    98A      0.637159    99A      0.648653  
     100A      0.652810   101A      0.666980   102A      0.683007  
     103A      0.694232   104A      0.707369   105A      0.723254  
     106A      0.728974   107A      0.750201   108A      0.755589  
     109A      0.765666   110A      0.769475   111A      0.778165  
     112A      0.784514   113A      0.792778   114A      0.799284  
     115A      0.831999   116A      0.845381   117A      0.851081  
     118A      0.859980   119A      0.871365   120A      0.886670  
     121A      0.899416   122A      0.908899   123A      0.915217  
     124A      0.924047   125A      0.943552   126A      0.968968  
     127A      0.980206   128A      0.989327   129A      1.003362  
     130A      1.014668   131A      1.021723   132A      1.036036  
     133A      1.040252   134A      1.050785   135A      1.059532  
     136A      1.071262   137A      1.076975   138A      1.083225  
     139A      1.091589   140A      1.095320   141A      1.105227  
     142A      1.112285   143A      1.121334   144A      1.128511  
     145A      1.134188   146A      1.137520   147A      1.150780  
     148A      1.158448   149A      1.172675   150A      1.177379  
     151A      1.181327   152A      1.205720   153A      1.216556  
     154A      1.226212   155A      1.235857   156A      1.250388  
     157A      1.259917   158A      1.270430   159A      1.282811  
     160A      1.297826   161A      1.307824   162A      1.324323  
     163A      1.336691   164A      1.346487   165A      1.357744  
     166A      1.361895   167A      1.368507   168A      1.385275  
     169A      1.403754   170A      1.415088   171A      1.416609  
     172A      1.420993   173A      1.436650   174A      1.446033  
     175A      1.465877   176A      1.489150   177A      1.495074  
     178A      1.497660   179A      1.505212   180A      1.517354  
     181A      1.519711   182A      1.537263   183A      1.545704  
     184A      1.551159   185A      1.558119   186A      1.569050  
     187A      1.591798   188A      1.597959   189A      1.612608  
     190A      1.618219   191A      1.635263   192A      1.636456  
     193A      1.648093   194A      1.671600   195A      1.679900  
     196A      1.689403   197A      1.708977   198A      1.722612  
     199A      1.743689   200A      1.755553   201A      1.756879  
     202A      1.769506   203A      1.782750   204A      1.788573  
     205A      1.805978   206A      1.829510   207A      1.868386  
     208A      1.874000   209A      1.895142   210A      1.916237  
     211A      1.923977   212A      1.952649   213A      1.955436  
     214A      1.970109   215A      1.983440   216A      1.994632  
     217A      2.033863   218A      2.048748   219A      2.058558  
     220A      2.074981   221A      2.091590   222A      2.099402  
     223A      2.109794   224A      2.117982   225A      2.155663  
     226A      2.170525   227A      2.189286   228A      2.212760  
     229A      2.234584   230A      2.253034   231A      2.280677  
     232A      2.371350   233A      2.435081   234A      2.488107  
     235A      2.498973   236A      2.522601   237A      2.571077  
     238A      2.580162   239A      2.597894   240A      2.610739  
     241A      2.621080   242A      2.666643   243A      2.674142  
     244A      2.692263   245A      2.699234   246A      2.717344  
     247A      2.721852   248A      2.729379   249A      2.748031  
     250A      2.764938   251A      2.903619   252A      2.955458  
     253A      2.958551   254A      3.000630   255A      3.018783  
     256A      3.053404   257A      3.065313   258A      3.068611  
     259A      3.078108   260A      3.101968   261A      3.127392  
     262A      3.133014   263A      3.163039   264A      3.193601  
     265A      3.199264   266A      3.203370   267A      3.209456  
     268A      3.214126   269A      3.298991   270A      3.307543  
     271A      3.317940   272A      3.417457   273A      3.456164  
     274A      3.604560   275A      3.618284   276A      3.631596  
     277A      3.655708   278A      3.755546   279A      3.760551  
     280A      3.816155   281A      3.836855   282A      3.907824  
     283A      3.916301   284A      3.927907   285A      3.930869  
     286A      3.962916   287A      3.980700   288A      3.981798  
     289A      3.991544   290A      3.996942   291A      3.999046  
     292A      4.027748   293A      4.045744   294A      4.065305  
     295A      4.085456   296A      4.094657   297A      4.102594  
     298A      4.135420   299A      4.145734   300A      4.166894  
     301A      4.177679   302A      4.181229   303A      4.190494  
     304A      4.199242   305A      4.223323   306A      4.238247  
     307A      4.259421   308A      4.305848   309A      4.331660  
     310A      4.349283   311A      4.370267   312A      4.379596  
     313A      4.410540   314A      4.482891   315A      4.530015  
     316A      4.548321   317A      4.555359   318A      4.564315  
     319A      4.654399   320A      4.687496   321A      4.696609  
     322A      4.706719   323A      4.742509   324A      4.750936  
     325A      4.764096   326A      4.771784   327A      4.779251  
     328A      4.813007   329A      4.814850   330A      4.838141  
     331A      4.843132   332A      4.852513   333A      4.875263  
     334A      4.892853   335A      4.915412   336A      4.973341  
     337A      4.982820   338A      5.018029   339A      5.062550  
     340A      5.135147   341A      5.174429   342A      5.189383  
     343A      5.196859   344A      5.211176   345A      5.264867  
     346A      5.318380   347A      5.337161   348A      5.342546  
     349A      5.360077   350A      5.381769   351A      5.438496  
     352A      5.494333   353A      5.635268   354A      5.764497  
     355A      5.811200   356A      5.890760   357A      5.929052  
     358A      5.938855   359A      6.053379   360A      6.093625  
     361A      6.246402   362A      6.291326   363A      6.461854  
     364A      6.592901   365A      7.024533   366A      7.411480  
     367A      7.726406   368A      7.769893   369A      7.861347  
     370A      7.979233   371A      8.179887   372A      9.937458  
     373A     15.822850   374A     16.155818   375A     16.484484  
     376A     28.071904   377A     28.105507   378A     28.133137  
     379A     28.230281   380A     28.828016   381A     29.158928  
     382A     48.894813   383A    161.008991   384A    161.047971  

    Final Occupation by Irrep:
              A 
    DOCC [    21 ]

  @DF-RHF Final Energy:  -958.07893563000448

   => Energetics <=

    Nuclear Repulsion Energy =            134.2248868617845687
    One-Electron Energy =               -1589.8765291599411285
    Two-Electron Energy =                 497.5727066681520228
    Total Energy =                       -958.0789356300044801

Computation Completed


Properties will be evaluated at   0.000000,  -0.000000,   0.000000 [a0]

Properties computed using the SCF density matrix

  Nuclear Dipole Moment: [e a0]
     X:   -89.6103      Y:   113.5975      Z:  -117.4438

  Electronic Dipole Moment: [e a0]
     X:    89.5284      Y:  -114.3115      Z:   117.4560

  Dipole Moment: [e a0]
     X:    -0.0820      Y:    -0.7140      Z:     0.0122     Total:     0.7188

  Dipole Moment: [D]
     X:    -0.2083      Y:    -1.8148      Z:     0.0309     Total:     1.8270


*** tstop() called on node37.bme.utexas.edu at Tue Feb 22 18:52:29 2022
Module time:
	user time   =      55.76 seconds =       0.93 minutes
	system time =       3.32 seconds =       0.06 minutes
	total time  =         20 seconds =       0.33 minutes
Total time:
	user time   =     136.85 seconds =       2.28 minutes
	system time =       9.22 seconds =       0.15 minutes
	total time  =         54 seconds =       0.90 minutes

*** tstart() called on node37.bme.utexas.edu
*** at Tue Feb 22 18:52:29 2022


  //>>>>>>>>>>>>>>>>>>>>>>>>>>>>>>>>>>>//
  //               DFMP2               //
  //<<<<<<<<<<<<<<<<<<<<<<<<<<<<<<<<<<<//

   => Loading Basis Set <=

    Name: (AUG-CC-PVTZ AUX)
    Role: RIFIT
    Keyword: DF_BASIS_MP2
    atoms 1-2, 6-7  entry CL         line   742 file /home/bdw2292/miniconda3/envs/amoebamdpoltype/share/psi4/basis/aug-cc-pvtz-ri.gbs 
    atoms 3, 8      entry C          line   148 file /home/bdw2292/miniconda3/envs/amoebamdpoltype/share/psi4/basis/aug-cc-pvtz-ri.gbs 
    atoms 4-5, 9-10 entry H          line    30 file /home/bdw2292/miniconda3/envs/amoebamdpoltype/share/psi4/basis/aug-cc-pvtz-ri.gbs 

	 --------------------------------------------------------
	                          DF-MP2                         
	      2nd-Order Density-Fitted Moller-Plesset Theory     
	              RMP2 Wavefunction,   4 Threads             
	                                                         
	        Rob Parrish, Justin Turney, Andy Simmonett,      
	           Ed Hohenstein, and C. David Sherrill          
	 --------------------------------------------------------

   => Auxiliary Basis Set <=

  Basis Set: (AUG-CC-PVTZ AUX)
    Blend: AUG-CC-PVTZ-RI
    Number of shells: 260
    Number of basis function: 984
    Number of Cartesian functions: 1256
    Spherical Harmonics?: true
    Max angular momentum: 4

	 --------------------------------------------------------
	                 NBF =   384, NAUX =   984
	 --------------------------------------------------------
	   CLASS    FOCC     OCC    AOCC    AVIR     VIR    FVIR
	   PAIRS      11      21      10     363     363       0
	 --------------------------------------------------------

	-----------------------------------------------------------
	 ==================> DF-MP2 Energies <==================== 
	-----------------------------------------------------------
	 Reference Energy          =    -958.0789356300044801 [Eh]
	 Singles Energy            =      -0.0000000000000000 [Eh]
	 Same-Spin Energy          =      -0.1372795817838485 [Eh]
	 Opposite-Spin Energy      =      -0.4288328579880837 [Eh]
	 Correlation Energy        =      -0.5661124397719322 [Eh]
	 Total Energy              =    -958.6450480697764078 [Eh]
	-----------------------------------------------------------
	 ================> DF-SCS-MP2 Energies <================== 
	-----------------------------------------------------------
	 SCS Same-Spin Scale       =       0.3333333333333333 [-]
	 SCS Opposite-Spin Scale   =       1.2000000000000000 [-]
	 SCS Same-Spin Energy      =      -0.0457598605946162 [Eh]
	 SCS Opposite-Spin Energy  =      -0.5145994295857004 [Eh]
	 SCS Correlation Energy    =      -0.5603592901803165 [Eh]
	 SCS Total Energy          =    -958.6392949201848523 [Eh]
	-----------------------------------------------------------


*** tstop() called on node37.bme.utexas.edu at Tue Feb 22 18:52:38 2022
Module time:
	user time   =      24.33 seconds =       0.41 minutes
	system time =       1.39 seconds =       0.02 minutes
	total time  =          9 seconds =       0.15 minutes
Total time:
	user time   =     161.18 seconds =       2.69 minutes
	system time =      10.61 seconds =       0.18 minutes
	total time  =         63 seconds =       1.05 minutes

  //>>>>>>>>>>>>>>>>>>>>>>>>>>>>>>>>>>>>//
  // CBS Computation: MP2 / AUG-CC-PVQZ //
  //<<<<<<<<<<<<<<<<<<<<<<<<<<<<<<<<<<<<//

    SCF Algorithm Type (re)set to DF.

*** tstart() called on node37.bme.utexas.edu
*** at Tue Feb 22 18:52:38 2022

   => Loading Basis Set <=

    Name: AUG-CC-PVQZ
    Role: ORBITAL
    Keyword: BASIS
    atoms 1-2, 6-7  entry CL         line  1218 file /home/bdw2292/miniconda3/envs/amoebamdpoltype/share/psi4/basis/aug-cc-pvqz.gbs 
    atoms 3, 8      entry C          line   299 file /home/bdw2292/miniconda3/envs/amoebamdpoltype/share/psi4/basis/aug-cc-pvqz.gbs 
    atoms 4-5, 9-10 entry H          line    36 file /home/bdw2292/miniconda3/envs/amoebamdpoltype/share/psi4/basis/aug-cc-pvqz.gbs 


         ---------------------------------------------------------
                                   SCF
               by Justin Turney, Rob Parrish, Andy Simmonett
                          and Daniel G. A. Smith
                              RHF Reference
                        4 Threads,  14305 MiB Core
         ---------------------------------------------------------

  ==> Geometry <==

    Molecular point group: c1
    Full point group: C1

    Geometry (in Angstrom), charge = 0, multiplicity = 1:

       Center              X                  Y                   Z               Mass       
    ------------   -----------------  -----------------  -----------------  -----------------
      Gh(CL)         -0.293527166726    -1.589649124996     1.914335103249    34.968852682000
      Gh(CL)          2.482305633274    -1.000448324996     1.091077303249    34.968852682000
      Gh(C)           1.260856533274    -2.247391024996     1.379967803249    12.000000000000
      Gh(H)           1.633674733274    -2.913887424996     2.157659703249     1.007825032230
      Gh(H)           1.102766033274    -2.792505924996     0.449528103249     1.007825032230
         CL          -2.569171966726     1.812566875004    -1.562334796751    34.968852682000
         CL           0.360255033274     1.477707175004    -1.404549096751    34.968852682000
         C           -1.215939266726     0.675978675004    -1.466691996751    12.000000000000
         H           -1.331609066726     0.082791175004    -0.560074596751     1.007825032230
         H           -1.240902566726     0.039870875004    -2.351340196751     1.007825032230

  Running in c1 symmetry.

  Rotational constants: A =      0.06470  B =      0.01629  C =      0.01336 [cm^-1]
  Rotational constants: A =   1939.58934  B =    488.30882  C =    400.55257 [MHz]
  Nuclear repulsion =  134.224886861784569

  Charge       = 0
  Multiplicity = 1
  Electrons    = 42
  Nalpha       = 21
  Nbeta        = 21

  ==> Algorithm <==

  SCF Algorithm Type is DF.
  DIIS enabled.
  MOM disabled.
  Fractional occupation disabled.
  Guess Type is SAD.
  Energy threshold   = 1.00e-08
  Density threshold  = 1.00e-08
  Integral threshold = 0.00e+00

  ==> Primary Basis <==

  Basis Set: AUG-CC-PVQZ
    Blend: AUG-CC-PVQZ
    Number of shells: 184
    Number of basis function: 680
    Number of Cartesian functions: 866
    Spherical Harmonics?: true
    Max angular momentum: 4

   => Loading Basis Set <=

    Name: (AUG-CC-PVQZ AUX)
    Role: JKFIT
    Keyword: DF_BASIS_SCF
    atoms 1-2, 6-7  entry CL         line   904 file /home/bdw2292/miniconda3/envs/amoebamdpoltype/share/psi4/basis/aug-cc-pvqz-jkfit.gbs 
    atoms 3, 8      entry C          line   178 file /home/bdw2292/miniconda3/envs/amoebamdpoltype/share/psi4/basis/aug-cc-pvqz-jkfit.gbs 
    atoms 4-5, 9-10 entry H          line    70 file /home/bdw2292/miniconda3/envs/amoebamdpoltype/share/psi4/basis/aug-cc-pvqz-jkfit.gbs 

  ==> Pre-Iterations <==

   -------------------------------------------------------
    Irrep   Nso     Nmo     Nalpha   Nbeta   Ndocc  Nsocc
   -------------------------------------------------------
     A        680     680       0       0       0       0
   -------------------------------------------------------
    Total     680     680      21      21      21       0
   -------------------------------------------------------

  ==> Integral Setup <==

  DFHelper Memory: AOs need 4.173 GiB; user supplied 10.477 GiB. Using in-core AOs.

  ==> MemDFJK: Density-Fitted J/K Matrices <==

    J tasked:                   Yes
    K tasked:                   Yes
    wK tasked:                   No
    OpenMP threads:               4
    Memory [MiB]:             10728
    Algorithm:                 Disk
    Schwarz Cutoff:           1E-12
    Mask sparsity (%):      11.5973
    Fitting Condition:        1E-10

   => Auxiliary Basis Set <=

  Basis Set: (AUG-CC-PVQZ AUX)
    Blend: AUG-CC-PVQZ-JKFIT
    Number of shells: 324
    Number of basis function: 1324
    Number of Cartesian functions: 1788
    Spherical Harmonics?: true
    Max angular momentum: 5

  Minimum eigenvalue in the overlap matrix is 1.0910904717E-05.
  Using Symmetric Orthogonalization.

  SCF Guess: Superposition of Atomic Densities via on-the-fly atomic UHF.

  ==> Iterations <==

                           Total Energy        Delta E     RMS |[F,P]|

   @DF-RHF iter SAD:  -957.80646622758934   -9.57806e+02   0.00000e+00 
   @DF-RHF iter   1:  -958.05974140837270   -2.53275e-01   3.18708e-04 DIIS
   @DF-RHF iter   2:  -958.08524791634022   -2.55065e-02   9.83083e-05 DIIS
   @DF-RHF iter   3:  -958.08795260687782   -2.70469e-03   3.89383e-05 DIIS
   @DF-RHF iter   4:  -958.08853331833404   -5.80711e-04   1.39694e-05 DIIS
   @DF-RHF iter   5:  -958.08860963011932   -7.63118e-05   3.04854e-06 DIIS
   @DF-RHF iter   6:  -958.08861615571413   -6.52559e-06   8.77254e-07 DIIS
   @DF-RHF iter   7:  -958.08861667211613   -5.16402e-07   2.52706e-07 DIIS
   @DF-RHF iter   8:  -958.08861671040643   -3.82903e-08   4.93455e-08 DIIS
   @DF-RHF iter   9:  -958.08861671175748   -1.35105e-09   1.08356e-08 DIIS
   @DF-RHF iter  10:  -958.08861671181717   -5.96856e-11   2.77854e-09 DIIS
  Energy and wave function converged.


  ==> Post-Iterations <==

    Orbital Energies [Eh]
    ---------------------

    Doubly Occupied:                                                      

       1A   -104.848454     2A   -104.848426     3A    -11.365399  
       4A    -10.574008     5A    -10.573988     6A     -8.041079  
       7A     -8.041061     8A     -8.039274     9A     -8.039255  
      10A     -8.039182    11A     -8.039164    12A     -1.192002  
      13A     -1.097132    14A     -0.894845    15A     -0.673924  
      16A     -0.616775    17A     -0.586100    18A     -0.474544  
      19A     -0.470871    20A     -0.449067    21A     -0.445710  

    Virtual:                                                              

      22A      0.018219    23A      0.031319    24A      0.039229  
      25A      0.044616    26A      0.049736    27A      0.060004  
      28A      0.066670    29A      0.080755    30A      0.084651  
      31A      0.085386    32A      0.088493    33A      0.101618  
      34A      0.105120    35A      0.108825    36A      0.112133  
      37A      0.115491    38A      0.121549    39A      0.124243  
      40A      0.130944    41A      0.136902    42A      0.140945  
      43A      0.147630    44A      0.149095    45A      0.157673  
      46A      0.166178    47A      0.171377    48A      0.177446  
      49A      0.187468    50A      0.214173    51A      0.216790  
      52A      0.222741    53A      0.229007    54A      0.238513  
      55A      0.241081    56A      0.252394    57A      0.254156  
      58A      0.257565    59A      0.259810    60A      0.261243  
      61A      0.273555    62A      0.277922    63A      0.286497  
      64A      0.290204    65A      0.294818    66A      0.301675  
      67A      0.305531    68A      0.307147    69A      0.319458  
      70A      0.321094    71A      0.330300    72A      0.336963  
      73A      0.340003    74A      0.345130    75A      0.347668  
      76A      0.347946    77A      0.350088    78A      0.353617  
      79A      0.364195    80A      0.369485    81A      0.374397  
      82A      0.382180    83A      0.384428    84A      0.393406  
      85A      0.396079    86A      0.399480    87A      0.405399  
      88A      0.410648    89A      0.424785    90A      0.437882  
      91A      0.440056    92A      0.446929    93A      0.453898  
      94A      0.472835    95A      0.474571    96A      0.485210  
      97A      0.496116    98A      0.498304    99A      0.504946  
     100A      0.518091   101A      0.524795   102A      0.536880  
     103A      0.542931   104A      0.551606   105A      0.555555  
     106A      0.561193   107A      0.570210   108A      0.578024  
     109A      0.585920   110A      0.588191   111A      0.596266  
     112A      0.597565   113A      0.605234   114A      0.607922  
     115A      0.618858   116A      0.630942   117A      0.639639  
     118A      0.646395   119A      0.661814   120A      0.673508  
     121A      0.677424   122A      0.680232   123A      0.685605  
     124A      0.698836   125A      0.713420   126A      0.719354  
     127A      0.731939   128A      0.736185   129A      0.745718  
     130A      0.748910   131A      0.758128   132A      0.768165  
     133A      0.778413   134A      0.783940   135A      0.787796  
     136A      0.795375   137A      0.797467   138A      0.805258  
     139A      0.817902   140A      0.824696   141A      0.834706  
     142A      0.838934   143A      0.845744   144A      0.850671  
     145A      0.854647   146A      0.862940   147A      0.870993  
     148A      0.878120   149A      0.890462   150A      0.897056  
     151A      0.912712   152A      0.919763   153A      0.929100  
     154A      0.930972   155A      0.936363   156A      0.953287  
     157A      0.958349   158A      0.971264   159A      0.977239  
     160A      0.980027   161A      0.981433   162A      0.997102  
     163A      1.005487   164A      1.011262   165A      1.014422  
     166A      1.021658   167A      1.027638   168A      1.032703  
     169A      1.038491   170A      1.040253   171A      1.043038  
     172A      1.064548   173A      1.068787   174A      1.077283  
     175A      1.086078   176A      1.090901   177A      1.098750  
     178A      1.108282   179A      1.110490   180A      1.117731  
     181A      1.121237   182A      1.122979   183A      1.133775  
     184A      1.134995   185A      1.146602   186A      1.152989  
     187A      1.158761   188A      1.167573   189A      1.184370  
     190A      1.186407   191A      1.196133   192A      1.201780  
     193A      1.206610   194A      1.219979   195A      1.224994  
     196A      1.233836   197A      1.239525   198A      1.248114  
     199A      1.253039   200A      1.256945   201A      1.272798  
     202A      1.280543   203A      1.282011   204A      1.309706  
     205A      1.321453   206A      1.328704   207A      1.336450  
     208A      1.340142   209A      1.355631   210A      1.368327  
     211A      1.391199   212A      1.416744   213A      1.435254  
     214A      1.443192   215A      1.454465   216A      1.461407  
     217A      1.474102   218A      1.494960   219A      1.497091  
     220A      1.523105   221A      1.543142   222A      1.559998  
     223A      1.578427   224A      1.590107   225A      1.595230  
     226A      1.607209   227A      1.611880   228A      1.614288  
     229A      1.629066   230A      1.638739   231A      1.650870  
     232A      1.686549   233A      1.694437   234A      1.721597  
     235A      1.726450   236A      1.734285   237A      1.753176  
     238A      1.762029   239A      1.771826   240A      1.790322  
     241A      1.795634   242A      1.807063   243A      1.808762  
     244A      1.823115   245A      1.833609   246A      1.843722  
     247A      1.857111   248A      1.872111   249A      1.878773  
     250A      1.887347   251A      1.890731   252A      1.906811  
     253A      1.908145   254A      1.917490   255A      1.924663  
     256A      1.925785   257A      1.936442   258A      1.937586  
     259A      1.946640   260A      1.952303   261A      1.958614  
     262A      1.961698   263A      1.975648   264A      1.989902  
     265A      2.003320   266A      2.015108   267A      2.020855  
     268A      2.027991   269A      2.029082   270A      2.042609  
     271A      2.054014   272A      2.056907   273A      2.067851  
     274A      2.069450   275A      2.079903   276A      2.080745  
     277A      2.093890   278A      2.097668   279A      2.104331  
     280A      2.114803   281A      2.128148   282A      2.133751  
     283A      2.138508   284A      2.141849   285A      2.155146  
     286A      2.157957   287A      2.168362   288A      2.171786  
     289A      2.180066   290A      2.190360   291A      2.198394  
     292A      2.199930   293A      2.208020   294A      2.217317  
     295A      2.221945   296A      2.229525   297A      2.240022  
     298A      2.243916   299A      2.256416   300A      2.259137  
     301A      2.269964   302A      2.278726   303A      2.287597  
     304A      2.298535   305A      2.307543   306A      2.317910  
     307A      2.329878   308A      2.333567   309A      2.350879  
     310A      2.365595   311A      2.371044   312A      2.379075  
     313A      2.381454   314A      2.396119   315A      2.403289  
     316A      2.422619   317A      2.426754   318A      2.431409  
     319A      2.439874   320A      2.450164   321A      2.453442  
     322A      2.459322   323A      2.468469   324A      2.483056  
     325A      2.494718   326A      2.496889   327A      2.507998  
     328A      2.516902   329A      2.522176   330A      2.530228  
     331A      2.545395   332A      2.557234   333A      2.562537  
     334A      2.567907   335A      2.578646   336A      2.585496  
     337A      2.595417   338A      2.600888   339A      2.609569  
     340A      2.619112   341A      2.622792   342A      2.641223  
     343A      2.647061   344A      2.656655   345A      2.674005  
     346A      2.689957   347A      2.697264   348A      2.722264  
     349A      2.749929   350A      2.753664   351A      2.776062  
     352A      2.793379   353A      2.802193   354A      2.810264  
     355A      2.825153   356A      2.836291   357A      2.842749  
     358A      2.851490   359A      2.883771   360A      2.903268  
     361A      2.910326   362A      2.918595   363A      2.924557  
     364A      2.928256   365A      2.951634   366A      2.957117  
     367A      2.995130   368A      3.001242   369A      3.005983  
     370A      3.017186   371A      3.031866   372A      3.042531  
     373A      3.057354   374A      3.063780   375A      3.084363  
     376A      3.097690   377A      3.131785   378A      3.144928  
     379A      3.151582   380A      3.162409   381A      3.179263  
     382A      3.193719   383A      3.204016   384A      3.233427  
     385A      3.237207   386A      3.246215   387A      3.293739  
     388A      3.326713   389A      3.336859   390A      3.344353  
     391A      3.348697   392A      3.361449   393A      3.373182  
     394A      3.381496   395A      3.386987   396A      3.414886  
     397A      3.430885   398A      3.451027   399A      3.463767  
     400A      3.481968   401A      3.490962   402A      3.520411  
     403A      3.537239   404A      3.539584   405A      3.595178  
     406A      3.632829   407A      3.637543   408A      3.654654  
     409A      3.666601   410A      3.725336   411A      3.730828  
     412A      3.738345   413A      3.751997   414A      3.769627  
     415A      3.787733   416A      3.790897   417A      3.833417  
     418A      3.839652   419A      3.865327   420A      3.889649  
     421A      3.910945   422A      3.928964   423A      3.940442  
     424A      3.948409   425A      3.975527   426A      4.066221  
     427A      4.101763   428A      4.107000   429A      4.124041  
     430A      4.130234   431A      4.139922   432A      4.187003  
     433A      4.191666   434A      4.215463   435A      4.245134  
     436A      4.288804   437A      4.317529   438A      4.366129  
     439A      4.415760   440A      4.420559   441A      4.433836  
     442A      4.450439   443A      4.454870   444A      4.492450  
     445A      4.506938   446A      4.524215   447A      4.552130  
     448A      4.582994   449A      4.587783   450A      4.649162  
     451A      4.687153   452A      4.691764   453A      4.695647  
     454A      4.700363   455A      4.734475   456A      4.739817  
     457A      4.746499   458A      4.755020   459A      4.767114  
     460A      4.769691   461A      4.776852   462A      4.798362  
     463A      4.818373   464A      4.835807   465A      4.842635  
     466A      4.853160   467A      4.866716   468A      4.876090  
     469A      4.884465   470A      4.899479   471A      4.918882  
     472A      4.926448   473A      4.939099   474A      4.947004  
     475A      4.949651   476A      4.963110   477A      4.967908  
     478A      5.003669   479A      5.004782   480A      5.055223  
     481A      5.070567   482A      5.084132   483A      5.102889  
     484A      5.119465   485A      5.190345   486A      5.215372  
     487A      5.225373   488A      5.247965   489A      5.274592  
     490A      5.306730   491A      5.401409   492A      5.406335  
     493A      5.421677   494A      5.441564   495A      5.461270  
     496A      5.474598   497A      5.503200   498A      5.517405  
     499A      5.524708   500A      5.547028   501A      5.591315  
     502A      5.644794   503A      5.654425   504A      5.661325  
     505A      5.682361   506A      5.715452   507A      5.765250  
     508A      5.830255   509A      5.836454   510A      5.853046  
     511A      5.883695   512A      5.934523   513A      5.981139  
     514A      6.009099   515A      6.102847   516A      6.321156  
     517A      6.332065   518A      6.348689   519A      6.356377  
     520A      6.366889   521A      6.376020   522A      6.392962  
     523A      6.398345   524A      6.419901   525A      6.428407  
     526A      6.453110   527A      6.456489   528A      6.485920  
     529A      6.493588   530A      6.521529   531A      6.544604  
     532A      6.547807   533A      6.575076   534A      6.595991  
     535A      6.621153   536A      6.642117   537A      6.659097  
     538A      6.670980   539A      6.750871   540A      6.797614  
     541A      6.849454   542A      6.856765   543A      6.875835  
     544A      6.895406   545A      6.905478   546A      6.973998  
     547A      6.977898   548A      7.002591   549A      7.010476  
     550A      7.029646   551A      7.040396   552A      7.045605  
     553A      7.072781   554A      7.108815   555A      7.126602  
[...]
     217A      1.224758   218A      1.236261   219A      1.245791  
     220A      1.247243   221A      1.261200   222A      1.264444  
     223A      1.266405   224A      1.272063   225A      1.277755  
     226A      1.284104   227A      1.287161   228A      1.303651  
     229A      1.306915   230A      1.318396   231A      1.324624  
     232A      1.334743   233A      1.349410   234A      1.352835  
     235A      1.369665   236A      1.381175   237A      1.392985  
     238A      1.414646   239A      1.434638   240A      1.438944  
     241A      1.451275   242A      1.468598   243A      1.497527  
     244A      1.506765   245A      1.539461   246A      1.566959  
     247A      1.576256   248A      1.600699   249A      1.628552  
     250A      1.640168   251A      1.652146   252A      1.674545  
     253A      1.692548   254A      1.709481   255A      1.715614  
     256A      1.728638   257A      1.736248   258A      1.742026  
     259A      1.757037   260A      1.769616   261A      1.771177  
     262A      1.782318   263A      1.786387   264A      1.790878  
     265A      1.793640   266A      1.802007   267A      1.810786  
     268A      1.819316   269A      1.832145   270A      1.839729  
     271A      1.846866   272A      1.851756   273A      1.853988  
     274A      1.872871   275A      1.874772   276A      1.886251  
     277A      1.892520   278A      1.897889   279A      1.906281  
     280A      1.916462   281A      1.924795   282A      1.932750  
     283A      1.940273   284A      1.950473   285A      1.951690  
     286A      1.963976   287A      1.964138   288A      1.970171  
     289A      1.974474   290A      1.983161   291A      1.988827  
     292A      1.993355   293A      2.003394   294A      2.006965  
     295A      2.011974   296A      2.029897   297A      2.030987  
     298A      2.046131   299A      2.049768   300A      2.058229  
     301A      2.059669   302A      2.067814   303A      2.069682  
     304A      2.077842   305A      2.084967   306A      2.091130  
     307A      2.098731   308A      2.100483   309A      2.105883  
     310A      2.114259   311A      2.121199   312A      2.126556  
     313A      2.138666   314A      2.147916   315A      2.153360  
     316A      2.159930   317A      2.165471   318A      2.168825  
     319A      2.176087   320A      2.181141   321A      2.186265  
     322A      2.197577   323A      2.198573   324A      2.211974  
     325A      2.220044   326A      2.222994   327A      2.229417  
     328A      2.236728   329A      2.248586   330A      2.254037  
     331A      2.259064   332A      2.263120   333A      2.267974  
     334A      2.282847   335A      2.291885   336A      2.292963  
     337A      2.299290   338A      2.304700   339A      2.308732  
     340A      2.315048   341A      2.321704   342A      2.334361  
     343A      2.344892   344A      2.353968   345A      2.364250  
     346A      2.373955   347A      2.383122   348A      2.387607  
     349A      2.394548   350A      2.398561   351A      2.404756  
     352A      2.425221   353A      2.428569   354A      2.439795  
     355A      2.446721   356A      2.454766   357A      2.457375  
     358A      2.463865   359A      2.474806   360A      2.479594  
     361A      2.481350   362A      2.492745   363A      2.501053  
     364A      2.505244   365A      2.520420   366A      2.531896  
     367A      2.541590   368A      2.550988   369A      2.571499  
     370A      2.583527   371A      2.589820   372A      2.597942  
     373A      2.625391   374A      2.632541   375A      2.634214  
     376A      2.646943   377A      2.659843   378A      2.677906  
     379A      2.682819   380A      2.735767   381A      2.767214  
     382A      2.775136   383A      2.778711   384A      2.824658  
     385A      2.841008   386A      2.850786   387A      2.866254  
     388A      2.873285   389A      2.905247   390A      2.911174  
     391A      2.913789   392A      2.920324   393A      2.922825  
     394A      2.946536   395A      2.965143   396A      2.977452  
     397A      2.987867   398A      3.016464   399A      3.033879  
     400A      3.039842   401A      3.062384   402A      3.089005  
     403A      3.105724   404A      3.122404   405A      3.145646  
     406A      3.152355   407A      3.169616   408A      3.181559  
     409A      3.214414   410A      3.221672   411A      3.237560  
     412A      3.256424   413A      3.325551   414A      3.344297  
     415A      3.346462   416A      3.365672   417A      3.371250  
     418A      3.384319   419A      3.387564   420A      3.427866  
     421A      3.483649   422A      3.484463   423A      3.502746  
     424A      3.509593   425A      3.535737   426A      3.543040  
     427A      3.589384   428A      3.598432   429A      3.640075  
     430A      3.664240   431A      3.712550   432A      3.724222  
     433A      3.739895   434A      3.748737   435A      3.759271  
     436A      3.765663   437A      3.778449   438A      3.794614  
     439A      3.824367   440A      3.846423   441A      3.912708  
     442A      3.934138   443A      3.944629   444A      3.950354  
     445A      3.952019   446A      3.983876   447A      4.021921  
     448A      4.062320   449A      4.096391   450A      4.114523  
     451A      4.177249   452A      4.181831   453A      4.200936  
     454A      4.221479   455A      4.241562   456A      4.254817  
     457A      4.353175   458A      4.375254   459A      4.391056  
     460A      4.399980   461A      4.425839   462A      4.439582  
     463A      4.489110   464A      4.496118   465A      4.502197  
     466A      4.506615   467A      4.527479   468A      4.545637  
     469A      4.552210   470A      4.561927   471A      4.579938  
     472A      4.588637   473A      4.590974   474A      4.616374  
     475A      4.680181   476A      4.683099   477A      4.686799  
     478A      4.692683   479A      4.696103   480A      4.700072  
     481A      4.708250   482A      4.719693   483A      4.721633  
     484A      4.733739   485A      4.742733   486A      4.747100  
     487A      4.749197   488A      4.753196   489A      4.764958  
     490A      4.769078   491A      4.771718   492A      4.774528  
     493A      4.784113   494A      4.798499   495A      4.814247  
     496A      4.817451   497A      4.821138   498A      4.834308  
     499A      4.841195   500A      4.845456   501A      4.858405  
     502A      4.862494   503A      4.869672   504A      4.881583  
     505A      4.889963   506A      4.894099   507A      4.898819  
     508A      4.906585   509A      4.926949   510A      4.931058  
     511A      4.935259   512A      4.936094   513A      4.947565  
     514A      4.956530   515A      4.961312   516A      4.968941  
     517A      4.974154   518A      4.982408   519A      4.983003  
     520A      5.002857   521A      5.017958   522A      5.035229  
     523A      5.055108   524A      5.077462   525A      5.079409  
     526A      5.086516   527A      5.097761   528A      5.105642  
     529A      5.136809   530A      5.153380   531A      5.185666  
     532A      5.203376   533A      5.221864   534A      5.224401  
     535A      5.241046   536A      5.250016   537A      5.275968  
     538A      5.293865   539A      5.307828   540A      5.321792  
     541A      5.399429   542A      5.410585   543A      5.416853  
     544A      5.429140   545A      5.438717   546A      5.455728  
     547A      5.511000   548A      5.551510   549A      5.660230  
     550A      5.678672   551A      6.314858   552A      6.328707  
     553A      6.344528   554A      6.348631   555A      6.367528  
     556A      6.383095   557A      6.393724   558A      6.410638  
     559A      6.412451   560A      6.439931   561A      6.536947  
     562A      6.547896   563A      6.578315   564A      6.602036  
     565A      6.615061   566A      6.649014   567A      6.656570  
     568A      6.671459   569A      6.743594   570A      6.754928  
     571A      6.769243   572A      6.801731   573A      6.815601  
     574A      6.834012   575A      6.835507   576A      6.855911  
     577A      6.862852   578A      6.881070   579A      6.885214  
     580A      6.908882   581A      6.946291   582A      6.958332  
     583A      6.979977   584A      6.984688   585A      6.997299  
     586A      7.010033   587A      7.022328   588A      7.031753  
     589A      7.041822   590A      7.055411   591A      7.154916  
     592A      7.169581   593A      7.182982   594A      7.206332  
     595A      7.221973   596A      7.245731   597A      7.360143  
     598A      7.378810   599A      7.453963   600A      7.464447  
     601A      7.478077   602A      7.486011   603A      7.583558  
     604A      7.585285   605A      7.600010   606A      7.623818  
     607A      7.634991   608A      7.643935   609A      7.684154  
     610A      7.701975   611A      7.720054   612A      7.733418  
     613A      7.766816   614A      7.783231   615A      7.819324  
     616A      7.831276   617A      8.028397   618A      8.037495  
     619A      8.102203   620A      8.116691   621A      8.128287  
     622A      8.134637   623A      8.321367   624A      8.338683  
     625A      8.518500   626A      8.547050   627A      8.550622  
     628A      8.576105   629A      8.589871   630A      8.616652  
     631A      8.720957   632A      8.745089   633A      8.807471  
     634A      8.835851   635A      8.871946   636A      8.884219  
     637A      8.959980   638A      8.974228   639A      9.139352  
     640A      9.148408   641A      9.211209   642A      9.238177  
     643A      9.434096   644A      9.448415   645A      9.478097  
     646A      9.484080   647A      9.509247   648A      9.533951  
     649A      9.536746   650A      9.546782   651A      9.564710  
     652A      9.580658   653A      9.773528   654A      9.791867  
     655A      9.936385   656A      9.954305   657A      9.974842  
     658A      9.988260   659A     10.319669   660A     10.323332  
     661A     10.385571   662A     10.401430   663A     10.582828  
     664A     10.601934   665A     10.771755   666A     10.780679  
     667A     10.787929   668A     10.806670   669A     11.061088  
     670A     11.073333   671A     13.030813   672A     13.047705  
     673A     13.114105   674A     13.131089   675A     26.065866  
     676A     26.103135   677A     26.652719   678A     26.714487  
     679A     27.918367   680A     27.950471  

    Final Occupation by Irrep:
              A 
    DOCC [    42 ]

  @DF-RHF Final Energy: -1916.17660815014847

   => Energetics <=

    Nuclear Repulsion Energy =            457.6078955315160783
    One-Electron Energy =               -3558.1830264761415492
    Two-Electron Energy =                1184.3985227944770031
    Total Energy =                      -1916.1766081501484678

Computation Completed


Properties will be evaluated at   0.000000,  -0.000000,   0.000000 [a0]

Properties computed using the SCF density matrix

  Nuclear Dipole Moment: [e a0]
     X:     0.1721      Y:    -5.8755      Z:    -0.3205

  Electronic Dipole Moment: [e a0]
     X:    -0.0452      Y:     4.4593      Z:     0.3114

  Dipole Moment: [e a0]
     X:     0.1269      Y:    -1.4163      Z:    -0.0091     Total:     1.4220

  Dipole Moment: [D]
     X:     0.3226      Y:    -3.5998      Z:    -0.0231     Total:     3.6143


*** tstop() called on node37.bme.utexas.edu at Tue Feb 22 19:04:51 2022
Module time:
	user time   =     394.55 seconds =       6.58 minutes
	system time =      68.34 seconds =       1.14 minutes
	total time  =        214 seconds =       3.57 minutes
Total time:
	user time   =    1742.32 seconds =      29.04 minutes
	system time =     245.60 seconds =       4.09 minutes
	total time  =        796 seconds =      13.27 minutes

*** tstart() called on node37.bme.utexas.edu
*** at Tue Feb 22 19:04:51 2022


  //>>>>>>>>>>>>>>>>>>>>>>>>>>>>>>>>>>>//
  //               DFMP2               //
  //<<<<<<<<<<<<<<<<<<<<<<<<<<<<<<<<<<<//

   => Loading Basis Set <=

    Name: (AUG-CC-PVQZ AUX)
    Role: RIFIT
    Keyword: DF_BASIS_MP2
    atoms 1-2, 6-7  entry CL         line   914 file /home/bdw2292/miniconda3/envs/amoebamdpoltype/share/psi4/basis/aug-cc-pvqz-ri.gbs 
    atoms 3, 8      entry C          line   184 file /home/bdw2292/miniconda3/envs/amoebamdpoltype/share/psi4/basis/aug-cc-pvqz-ri.gbs 
    atoms 4-5, 9-10 entry H          line    30 file /home/bdw2292/miniconda3/envs/amoebamdpoltype/share/psi4/basis/aug-cc-pvqz-ri.gbs 

	 --------------------------------------------------------
	                          DF-MP2                         
	      2nd-Order Density-Fitted Moller-Plesset Theory     
	              RMP2 Wavefunction,   4 Threads             
	                                                         
	        Rob Parrish, Justin Turney, Andy Simmonett,      
	           Ed Hohenstein, and C. David Sherrill          
	 --------------------------------------------------------

   => Auxiliary Basis Set <=

  Basis Set: (AUG-CC-PVQZ AUX)
    Blend: AUG-CC-PVQZ-RI
    Number of shells: 328
    Number of basis function: 1432
    Number of Cartesian functions: 1966
    Spherical Harmonics?: true
    Max angular momentum: 5

	 --------------------------------------------------------
	                 NBF =   680, NAUX =  1432
	 --------------------------------------------------------
	   CLASS    FOCC     OCC    AOCC    AVIR     VIR    FVIR
	   PAIRS      22      42      20     638     638       0
	 --------------------------------------------------------

	-----------------------------------------------------------
	 ==================> DF-MP2 Energies <==================== 
	-----------------------------------------------------------
	 Reference Energy          =   -1916.1766081501484678 [Eh]
	 Singles Energy            =      -0.0000000000000000 [Eh]
	 Same-Spin Energy          =      -0.2846735139823992 [Eh]
	 Opposite-Spin Energy      =      -0.9361581146562883 [Eh]
	 Correlation Energy        =      -1.2208316286386875 [Eh]
	 Total Energy              =   -1917.3974397787872022 [Eh]
	-----------------------------------------------------------
	 ================> DF-SCS-MP2 Energies <================== 
	-----------------------------------------------------------
	 SCS Same-Spin Scale       =       0.3333333333333333 [-]
	 SCS Opposite-Spin Scale   =       1.2000000000000000 [-]
	 SCS Same-Spin Energy      =      -0.0948911713274664 [Eh]
	 SCS Opposite-Spin Energy  =      -1.1233897375875459 [Eh]
	 SCS Correlation Energy    =      -1.2182809089150124 [Eh]
	 SCS Total Energy          =   -1917.3948890590634164 [Eh]
	-----------------------------------------------------------


*** tstop() called on node37.bme.utexas.edu at Tue Feb 22 19:05:37 2022
Module time:
	user time   =     122.29 seconds =       2.04 minutes
	system time =       6.30 seconds =       0.11 minutes
	total time  =         46 seconds =       0.77 minutes
Total time:
	user time   =    1864.62 seconds =      31.08 minutes
	system time =     251.90 seconds =       4.20 minutes
	total time  =        842 seconds =      14.03 minutes

  //>>>>>>>>>>>>>>>>>>>>>>>>>>>>>>>>>>>//
  //  CBS Results: mp2/aug-cc-pV[TQ]Z  //
  //<<<<<<<<<<<<<<<<<<<<<<<<<<<<<<<<<<<//


   ==> HF <==

   HI-zeta (4) Energy:               -1916.176608150148


   ==> Helgaker 2-point correlated extrapolation for method: MP2 <==

   LO-zeta (3) Energy:               -1917.292327585899
   HI-zeta (4) Energy:               -1917.397439778787
   Alpha (exponent) Value:             3.000000000000
   Extrapolated Energy:              -1917.474143270895

   @Extrapolated MP2/(T,Q):          -1917.474143270895



   ==> Helgaker 2-point correlated extrapolation for method: HF <==

   LO-zeta (3) Energy:               -1916.157262217978
   HI-zeta (4) Energy:               -1916.176608150148
   Alpha (exponent) Value:             3.000000000000
   Extrapolated Energy:              -1916.190725452003

   @Extrapolated HF/(T,Q):           -1916.190725452003


   ==> Components <==

  ---------------------------------------------------------------------------------------------------------
                          Method / Basis                      Rqd      Energy [Eh]   Variable
  ---------------------------------------------------------------------------------------------------------
                              hf / aug-cc-pvtz                  *   -1916.15726222   HF TOTAL ENERGY
                             mp2 / aug-cc-pvtz                  *   -1917.29232759   MP2 TOTAL ENERGY
                              hf / aug-cc-pvqz                  *   -1916.17660815   HF TOTAL ENERGY
                             mp2 / aug-cc-pvqz                  *   -1917.39743978   MP2 TOTAL ENERGY
  ---------------------------------------------------------------------------------------------------------

   ==> Stages <==

  ---------------------------------------------------------------------------------------------------------
      Stage               Method / Basis                       Wt      Energy [Eh]   Scheme
  ---------------------------------------------------------------------------------------------------------
        scf                   hf / aug-cc-pvqz                  1   -1916.17660815   xtpl_highest_1
       corl                  mp2 / aug-cc-pv[tq]z               1   -1917.47414327   corl_xtpl_helgaker_2
       corl                   hf / aug-cc-pv[tq]z              -1   -1916.19072545   corl_xtpl_helgaker_2
  ---------------------------------------------------------------------------------------------------------

   ==> CBS <==

  ---------------------------------------------------------------------------------------------------------
      Stage               Method / Basis                               Energy [Eh]   Scheme
  ---------------------------------------------------------------------------------------------------------
        scf                   hf / aug-cc-pvqz                      -1916.17660815   xtpl_highest_1
       corl                  mp2 / aug-cc-pv[tq]z                      -1.28341782   corl_xtpl_helgaker_2
      total                  CBS                                    -1917.46002597   
  ---------------------------------------------------------------------------------------------------------
   => Loading Basis Set <=

    Name: DEF2-SVP
    Role: ORBITAL
    Keyword: BASIS
    atoms 1-2, 6-7  entry CL         line   356 file /home/bdw2292/miniconda3/envs/amoebamdpoltype/share/psi4/basis/def2-svp.gbs 
    atoms 3, 8      entry C          line    90 file /home/bdw2292/miniconda3/envs/amoebamdpoltype/share/psi4/basis/def2-svp.gbs 
    atoms 4-5, 9-10 entry H          line    15 file /home/bdw2292/miniconda3/envs/amoebamdpoltype/share/psi4/basis/def2-svp.gbs 


       N-Body: Complex Energy (fragments = (1, 2), basis = (1, 2): -1917.46002596904032)

   ==> N-Body: Counterpoise Corrected (CP) energies <==

   n-Body     Total Energy [Eh]       I.E. [kcal/mol]      Delta [kcal/mol]
        1    -1917.457641960927        0.000000000000        0.000000000000
        2    -1917.459966465552       -1.458648673881       -1.458648673881

   => Loading Basis Set <=

    Name: DEF2-SVP
    Role: ORBITAL
    Keyword: BASIS
    atoms 1-2, 6-7  entry CL         line   356 file /home/bdw2292/miniconda3/envs/amoebamdpoltype/share/psi4/basis/def2-svp.gbs 
    atoms 3, 8      entry C          line    90 file /home/bdw2292/miniconda3/envs/amoebamdpoltype/share/psi4/basis/def2-svp.gbs 
    atoms 4-5, 9-10 entry H          line    15 file /home/bdw2292/miniconda3/envs/amoebamdpoltype/share/psi4/basis/def2-svp.gbs 

CP Energy =  -0.002325
    Psi4 stopped on: Tuesday, 22 February 2022 07:05PM
    Psi4 wall time for execution: 0:14:04.01

*** Psi4 exiting successfully. Buy a developer a beer!
