
    -----------------------------------------------------------------------
          Psi4: An Open-Source Ab Initio Electronic Structure Package
                               Psi4 1.3.2 release

                         Git: Rev {HEAD} ecbda83 


    R. M. Parrish, L. A. Burns, D. G. A. Smith, A. C. Simmonett,
    A. E. DePrince III, E. G. Hohenstein, U. Bozkaya, A. Yu. Sokolov,
    R. Di Remigio, R. M. Richard, J. F. Gonthier, A. M. James,
    H. R. McAlexander, A. Kumar, M. Saitow, X. Wang, B. P. Pritchard,
    P. Verma, H. F. Schaefer III, K. Patkowski, R. A. King, E. F. Valeev,
    F. A. Evangelista, J. M. Turney, T. D. Crawford, and C. D. Sherrill,
    J. Chem. Theory Comput. 13(7) pp 3185--3197 (2017).
    (doi: 10.1021/acs.jctc.7b00174)


                         Additional Contributions by
    P. Kraus, H. Kruse, M. H. Lechner, M. C. Schieber, R. A. Shaw,
    A. Alenaizan, R. Galvelis, Z. L. Glick, S. Lehtola, and J. P. Misiewicz

    -----------------------------------------------------------------------


    Psi4 started on: Tuesday, 22 February 2022 05:44PM

    Process ID: 25240
    Host:       node37.bme.utexas.edu
    PSIDATADIR: /home/bdw2292/miniconda3/envs/amoebamdpoltype/share/psi4
    Memory:     500.0 MiB
    Threads:    1
    
  ==> Input File <==

--------------------------------------------------------------------------
molecule { 
0 1
 Cl                 -0.8869533     0.6775213    -0.2883658
 Cl                  1.9056014    -0.2292421     0.0374276
  C                  0.1983835    -0.6935655    -0.0102364
  H                 -0.0561714    -1.1445283     0.9490648
  H                  0.0635140    -1.4078627    -0.8227287
--
0 1
  O                 -3.5798441    -0.2270233     0.1270550
  H                 -3.5520058    -1.1443194     0.3975394
  H                 -2.6817162     0.0774484    -0.0097714
}
memory 15GB
set_num_threads(4)
psi4_io.set_default_path("/scratch/bdw2292/Psi4-CH2Cl2")
set maxiter 500
set freeze_core True
set PROPERTIES_ORIGIN ["COM"]
e_dim= energy('mp2/aug-cc-pV[TQ]Z',bsse_type='cp')

psi4.print_out('CP Energy = %10.6f' % (e_dim))
clean()
--------------------------------------------------------------------------

  Memory set to  13.970 GiB by Python driver.
  Threads set to 4 by Python driver.


   ===> N-Body Interaction Abacus <===
        BSSE Treatment:                     cp
        Number of 1-body computations:     4
        Number of 2-body computations:     1

   ==> N-Body: Now computing 1-body complexes <==


       N-Body: Computing complex (1/4) with fragments (2,) in the basis of fragments (2,).


  //>>>>>>>>>>>>>>>>>>>>>>>>>>>>>>>>>>>//
  //   CBS Setup: mp2/aug-cc-pV[TQ]Z   //
  //<<<<<<<<<<<<<<<<<<<<<<<<<<<<<<<<<<<//

    Naive listing of computations required.
             hf / aug-cc-pvqz              for  HF TOTAL ENERGY
            mp2 / aug-cc-pvtz              for  MP2 TOTAL ENERGY
            mp2 / aug-cc-pvqz              for  MP2 TOTAL ENERGY
             hf / aug-cc-pvtz              for  HF TOTAL ENERGY
             hf / aug-cc-pvqz              for  HF TOTAL ENERGY

    Enlightened listing of computations required.
            mp2 / aug-cc-pvtz              for  MP2 TOTAL ENERGY
            mp2 / aug-cc-pvqz              for  MP2 TOTAL ENERGY

    Full listing of computations to be obtained (required and bonus).
             hf / aug-cc-pvtz              for  HF TOTAL ENERGY
            mp2 / aug-cc-pvtz              for  MP2 TOTAL ENERGY
             hf / aug-cc-pvqz              for  HF TOTAL ENERGY
            mp2 / aug-cc-pvqz              for  MP2 TOTAL ENERGY

  //>>>>>>>>>>>>>>>>>>>>>>>>>>>>>>>>>>>>//
  // CBS Computation: MP2 / AUG-CC-PVTZ //
  //<<<<<<<<<<<<<<<<<<<<<<<<<<<<<<<<<<<<//

    SCF Algorithm Type (re)set to DF.

*** tstart() called on node37.bme.utexas.edu
*** at Tue Feb 22 17:44:57 2022

   => Loading Basis Set <=

    Name: AUG-CC-PVTZ
    Role: ORBITAL
    Keyword: BASIS
    atoms 1   entry O          line   327 file /home/bdw2292/miniconda3/envs/amoebamdpoltype/share/psi4/basis/aug-cc-pvtz.gbs 
    atoms 2-3 entry H          line    36 file /home/bdw2292/miniconda3/envs/amoebamdpoltype/share/psi4/basis/aug-cc-pvtz.gbs 


         ---------------------------------------------------------
                                   SCF
               by Justin Turney, Rob Parrish, Andy Simmonett
                          and Daniel G. A. Smith
                              RHF Reference
                        4 Threads,  14305 MiB Core
         ---------------------------------------------------------

  ==> Geometry <==

    Molecular point group: c1
    Full point group: C1

    Geometry (in Angstrom), charge = 0, multiplicity = 1:

       Center              X                  Y                   Z               Mass       
    ------------   -----------------  -----------------  -----------------  -----------------
         O           -3.329433519684    -0.227751225752     0.189307381852    15.994914619570
         H           -3.301595219684    -1.145047325752     0.459791781852     1.007825032230
         H           -2.431305619684     0.076720474248     0.052480981852     1.007825032230

  Running in c1 symmetry.

  Rotational constants: A =     17.73100  B =      0.08590  C =      0.08549 [cm^-1]
  Rotational constants: A = 531562.08630  B =   2575.25241  C =   2562.84032 [MHz]
  Nuclear repulsion =    9.183549952155024

  Charge       = 0
  Multiplicity = 1
  Electrons    = 10
  Nalpha       = 5
  Nbeta        = 5

  ==> Algorithm <==

  SCF Algorithm Type is DF.
  DIIS enabled.
  MOM disabled.
  Fractional occupation disabled.
  Guess Type is SAD.
  Energy threshold   = 1.00e-08
  Density threshold  = 1.00e-08
  Integral threshold = 0.00e+00

  ==> Primary Basis <==

  Basis Set: AUG-CC-PVTZ
    Blend: AUG-CC-PVTZ
    Number of shells: 32
    Number of basis function: 92
    Number of Cartesian functions: 105
    Spherical Harmonics?: true
    Max angular momentum: 3

   => Loading Basis Set <=

    Name: (AUG-CC-PVTZ AUX)
    Role: JKFIT
    Keyword: DF_BASIS_SCF
    atoms 1   entry O          line   286 file /home/bdw2292/miniconda3/envs/amoebamdpoltype/share/psi4/basis/aug-cc-pvtz-jkfit.gbs 
    atoms 2-3 entry H          line    70 file /home/bdw2292/miniconda3/envs/amoebamdpoltype/share/psi4/basis/aug-cc-pvtz-jkfit.gbs 

  ==> Pre-Iterations <==

   -------------------------------------------------------
    Irrep   Nso     Nmo     Nalpha   Nbeta   Ndocc  Nsocc
   -------------------------------------------------------
     A         92      92       0       0       0       0
   -------------------------------------------------------
    Total      92      92       5       5       5       0
   -------------------------------------------------------

  ==> Integral Setup <==

  DFHelper Memory: AOs need 0.015 GiB; user supplied 10.477 GiB. Using in-core AOs.

  ==> MemDFJK: Density-Fitted J/K Matrices <==

    J tasked:                   Yes
    K tasked:                   Yes
    wK tasked:                   No
    OpenMP threads:               4
    Memory [MiB]:             10728
    Algorithm:                 Core
    Schwarz Cutoff:           1E-12
    Mask sparsity (%):       0.0000
    Fitting Condition:        1E-10

   => Auxiliary Basis Set <=

  Basis Set: (AUG-CC-PVTZ AUX)
    Blend: AUG-CC-PVTZ-JKFIT
    Number of shells: 58
    Number of basis function: 196
    Number of Cartesian functions: 241
    Spherical Harmonics?: true
    Max angular momentum: 4

  Minimum eigenvalue in the overlap matrix is 3.7696851143E-04.
  Using Symmetric Orthogonalization.

  SCF Guess: Superposition of Atomic Densities via on-the-fly atomic UHF.

  ==> Iterations <==

                           Total Energy        Delta E     RMS |[F,P]|

   @DF-RHF iter SAD:   -75.47387607387162   -7.54739e+01   0.00000e+00 
   @DF-RHF iter   1:   -75.97658270343398   -5.02707e-01   5.09412e-03 DIIS
   @DF-RHF iter   2:   -76.02899485885607   -5.24122e-02   3.45149e-03 DIIS
   @DF-RHF iter   3:   -76.06000842120824   -3.10136e-02   2.34381e-04 DIIS
   @DF-RHF iter   4:   -76.06039813687670   -3.89716e-04   5.59659e-05 DIIS
   @DF-RHF iter   5:   -76.06042208678417   -2.39499e-05   1.25977e-05 DIIS
   @DF-RHF iter   6:   -76.06042404336341   -1.95658e-06   2.80550e-06 DIIS
   @DF-RHF iter   7:   -76.06042415135997   -1.07997e-07   5.30923e-07 DIIS
   @DF-RHF iter   8:   -76.06042415479210   -3.43213e-09   8.80109e-08 DIIS
   @DF-RHF iter   9:   -76.06042415486640   -7.42943e-11   2.18741e-08 DIIS
   @DF-RHF iter  10:   -76.06042415487042   -4.02167e-12   2.97649e-09 DIIS
  Energy and wave function converged.


  ==> Post-Iterations <==

    Orbital Energies [Eh]
    ---------------------

    Doubly Occupied:                                                      

       1A    -20.565430     2A     -1.350658     3A     -0.725324  
       4A     -0.577088     5A     -0.509148  

    Virtual:                                                              

       6A      0.029679     7A      0.047437     8A      0.136497  
       9A      0.157839    10A      0.174238    11A      0.182007  
      12A      0.228888    13A      0.244440    14A      0.263801  
      15A      0.304859    16A      0.313317    17A      0.365211  
      18A      0.437949    19A      0.466805    20A      0.602324  
      21A      0.654132    22A      0.711218    23A      0.719195  
      24A      0.731217    25A      0.827933    26A      0.843707  
      27A      0.889963    28A      0.912886    29A      0.920576  
      30A      0.924087    31A      0.927864    32A      0.971608  
      33A      1.023028    34A      1.045366    35A      1.085228  
      36A      1.114322    37A      1.172616    38A      1.177229  
      39A      1.259606    40A      1.514620    41A      1.564380  
      42A      1.596294    43A      1.783925    44A      1.796969  
      45A      2.004029    46A      2.115877    47A      2.259545  
      48A      2.318730    49A      2.320813    50A      2.413003  
      51A      2.414273    52A      2.438374    53A      2.471222  
      54A      2.687223    55A      2.703424    56A      2.768061  
      57A      2.858528    58A      2.883781    59A      3.644956  
      60A      3.770442    61A      4.007106    62A      4.090376  
      63A      4.212840    64A      4.230782    65A      4.337209  
      66A      4.382085    67A      4.400515    68A      4.418239  
      69A      4.492518    70A      4.707022    71A      4.811259  
      72A      5.124455    73A      5.173406    74A      5.308002  
      75A      5.330297    76A      5.513076    77A      5.723445  
      78A      6.138333    79A      6.535010    80A      6.713264  
      81A      6.857411    82A      7.146639    83A      7.262937  
      84A      7.297712    85A      7.307542    86A      7.371305  
      87A      7.390776    88A      7.559371    89A      7.896397  
      90A      7.966059    91A      8.788589    92A     15.864470  

    Final Occupation by Irrep:
              A 
    DOCC [     5 ]

  @DF-RHF Final Energy:   -76.06042415487042

   => Energetics <=

    Nuclear Repulsion Energy =              9.1835499521550243
    One-Electron Energy =                -123.0326538932303038
    Two-Electron Energy =                  37.7886797862048738
    Total Energy =                        -76.0604241548704181

Computation Completed


Properties will be evaluated at  -6.193802,  -0.495190,   0.371873 [a0]

Properties computed using the SCF density matrix

  Nuclear Dipole Moment: [e a0]
     X:     0.7707      Y:    -0.5100      Z:     0.1112

  Electronic Dipole Moment: [e a0]
     X:    -0.1469      Y:     0.0970      Z:    -0.0211

  Dipole Moment: [e a0]
     X:     0.6238      Y:    -0.4131      Z:     0.0901     Total:     0.7535

  Dipole Moment: [D]
     X:     1.5854      Y:    -1.0499      Z:     0.2290     Total:     1.9153


*** tstop() called on node37.bme.utexas.edu at Tue Feb 22 17:45:03 2022
Module time:
	user time   =       5.87 seconds =       0.10 minutes
	system time =       0.44 seconds =       0.01 minutes
	total time  =          6 seconds =       0.10 minutes
Total time:
	user time   =       5.87 seconds =       0.10 minutes
	system time =       0.44 seconds =       0.01 minutes
	total time  =          6 seconds =       0.10 minutes

*** tstart() called on node37.bme.utexas.edu
*** at Tue Feb 22 17:45:03 2022


  //>>>>>>>>>>>>>>>>>>>>>>>>>>>>>>>>>>>//
  //               DFMP2               //
  //<<<<<<<<<<<<<<<<<<<<<<<<<<<<<<<<<<<//

   => Loading Basis Set <=

    Name: (AUG-CC-PVTZ AUX)
    Role: RIFIT
    Keyword: DF_BASIS_MP2
    atoms 1   entry O          line   264 file /home/bdw2292/miniconda3/envs/amoebamdpoltype/share/psi4/basis/aug-cc-pvtz-ri.gbs 
    atoms 2-3 entry H          line    30 file /home/bdw2292/miniconda3/envs/amoebamdpoltype/share/psi4/basis/aug-cc-pvtz-ri.gbs 

	 --------------------------------------------------------
	                          DF-MP2                         
	      2nd-Order Density-Fitted Moller-Plesset Theory     
	              RMP2 Wavefunction,   4 Threads             
	                                                         
	        Rob Parrish, Justin Turney, Andy Simmonett,      
	           Ed Hohenstein, and C. David Sherrill          
	 --------------------------------------------------------

   => Auxiliary Basis Set <=

  Basis Set: (AUG-CC-PVTZ AUX)
    Blend: AUG-CC-PVTZ-RI
    Number of shells: 56
    Number of basis function: 198
    Number of Cartesian functions: 246
    Spherical Harmonics?: true
    Max angular momentum: 4

	 --------------------------------------------------------
	                 NBF =    92, NAUX =   198
	 --------------------------------------------------------
	   CLASS    FOCC     OCC    AOCC    AVIR     VIR    FVIR
	   PAIRS       1       5       4      87      87       0
	 --------------------------------------------------------

	-----------------------------------------------------------
	 ==================> DF-MP2 Energies <==================== 
	-----------------------------------------------------------
	 Reference Energy          =     -76.0604241548704181 [Eh]
	 Singles Energy            =      -0.0000000000000000 [Eh]
	 Same-Spin Energy          =      -0.0650916008224498 [Eh]
	 Opposite-Spin Energy      =      -0.2029660291819398 [Eh]
	 Correlation Energy        =      -0.2680576300043895 [Eh]
	 Total Energy              =     -76.3284817848748105 [Eh]
	-----------------------------------------------------------
	 ================> DF-SCS-MP2 Energies <================== 
	-----------------------------------------------------------
	 SCS Same-Spin Scale       =       0.3333333333333333 [-]
	 SCS Opposite-Spin Scale   =       1.2000000000000000 [-]
	 SCS Same-Spin Energy      =      -0.0216972002741499 [Eh]
	 SCS Opposite-Spin Energy  =      -0.2435592350183277 [Eh]
	 SCS Correlation Energy    =      -0.2652564352924777 [Eh]
	 SCS Total Energy          =     -76.3256805901628894 [Eh]
	-----------------------------------------------------------


*** tstop() called on node37.bme.utexas.edu at Tue Feb 22 17:45:04 2022
Module time:
	user time   =       1.83 seconds =       0.03 minutes
	system time =       0.13 seconds =       0.00 minutes
	total time  =          1 seconds =       0.02 minutes
Total time:
	user time   =       7.71 seconds =       0.13 minutes
	system time =       0.57 seconds =       0.01 minutes
	total time  =          7 seconds =       0.12 minutes

  //>>>>>>>>>>>>>>>>>>>>>>>>>>>>>>>>>>>>//
  // CBS Computation: MP2 / AUG-CC-PVQZ //
  //<<<<<<<<<<<<<<<<<<<<<<<<<<<<<<<<<<<<//

    SCF Algorithm Type (re)set to DF.

*** tstart() called on node37.bme.utexas.edu
*** at Tue Feb 22 17:45:04 2022

   => Loading Basis Set <=

    Name: AUG-CC-PVQZ
    Role: ORBITAL
    Keyword: BASIS
    atoms 1   entry O          line   419 file /home/bdw2292/miniconda3/envs/amoebamdpoltype/share/psi4/basis/aug-cc-pvqz.gbs 
    atoms 2-3 entry H          line    36 file /home/bdw2292/miniconda3/envs/amoebamdpoltype/share/psi4/basis/aug-cc-pvqz.gbs 


         ---------------------------------------------------------
                                   SCF
               by Justin Turney, Rob Parrish, Andy Simmonett
                          and Daniel G. A. Smith
                              RHF Reference
                        4 Threads,  14305 MiB Core
         ---------------------------------------------------------

  ==> Geometry <==

    Molecular point group: c1
    Full point group: C1

    Geometry (in Angstrom), charge = 0, multiplicity = 1:

       Center              X                  Y                   Z               Mass       
    ------------   -----------------  -----------------  -----------------  -----------------
         O           -3.329433519684    -0.227751225752     0.189307381852    15.994914619570
         H           -3.301595219684    -1.145047325752     0.459791781852     1.007825032230
         H           -2.431305619684     0.076720474248     0.052480981852     1.007825032230

  Running in c1 symmetry.

  Rotational constants: A =     17.73100  B =      0.08590  C =      0.08549 [cm^-1]
  Rotational constants: A = 531562.08630  B =   2575.25241  C =   2562.84032 [MHz]
  Nuclear repulsion =    9.183549952155024

  Charge       = 0
  Multiplicity = 1
  Electrons    = 10
  Nalpha       = 5
  Nbeta        = 5

  ==> Algorithm <==

  SCF Algorithm Type is DF.
  DIIS enabled.
  MOM disabled.
  Fractional occupation disabled.
  Guess Type is SAD.
  Energy threshold   = 1.00e-08
  Density threshold  = 1.00e-08
  Integral threshold = 0.00e+00

  ==> Primary Basis <==

  Basis Set: AUG-CC-PVQZ
    Blend: AUG-CC-PVQZ
    Number of shells: 48
    Number of basis function: 172
    Number of Cartesian functions: 215
    Spherical Harmonics?: true
    Max angular momentum: 4

   => Loading Basis Set <=

    Name: (AUG-CC-PVQZ AUX)
    Role: JKFIT
    Keyword: DF_BASIS_SCF
    atoms 1   entry O          line   318 file /home/bdw2292/miniconda3/envs/amoebamdpoltype/share/psi4/basis/aug-cc-pvqz-jkfit.gbs 
    atoms 2-3 entry H          line    70 file /home/bdw2292/miniconda3/envs/amoebamdpoltype/share/psi4/basis/aug-cc-pvqz-jkfit.gbs 

  ==> Pre-Iterations <==

   -------------------------------------------------------
    Irrep   Nso     Nmo     Nalpha   Nbeta   Ndocc  Nsocc
   -------------------------------------------------------
     A        172     172       0       0       0       0
   -------------------------------------------------------
    Total     172     172       5       5       5       0
   -------------------------------------------------------

  ==> Integral Setup <==

  DFHelper Memory: AOs need 0.074 GiB; user supplied 10.477 GiB. Using in-core AOs.

  ==> MemDFJK: Density-Fitted J/K Matrices <==

    J tasked:                   Yes
    K tasked:                   Yes
    wK tasked:                   No
    OpenMP threads:               4
    Memory [MiB]:             10728
    Algorithm:                 Core
    Schwarz Cutoff:           1E-12
    Mask sparsity (%):       0.0000
    Fitting Condition:        1E-10

   => Auxiliary Basis Set <=

  Basis Set: (AUG-CC-PVQZ AUX)
    Blend: AUG-CC-PVQZ-JKFIT
    Number of shells: 70
    Number of basis function: 294
    Number of Cartesian functions: 400
    Spherical Harmonics?: true
    Max angular momentum: 5

  Minimum eigenvalue in the overlap matrix is 8.5325321770E-05.
  Using Symmetric Orthogonalization.

  SCF Guess: Superposition of Atomic Densities via on-the-fly atomic UHF.

  ==> Iterations <==

                           Total Energy        Delta E     RMS |[F,P]|

   @DF-RHF iter SAD:   -75.47903267411060   -7.54790e+01   0.00000e+00 
   @DF-RHF iter   1:   -75.98166476670156   -5.02632e-01   2.73053e-03 DIIS
   @DF-RHF iter   2:   -76.03418136878972   -5.25166e-02   1.85438e-03 DIIS
   @DF-RHF iter   3:   -76.06539290773694   -3.12115e-02   1.26279e-04 DIIS
   @DF-RHF iter   4:   -76.06578468098854   -3.91773e-04   3.08537e-05 DIIS
   @DF-RHF iter   5:   -76.06580953012585   -2.48491e-05   6.91935e-06 DIIS
   @DF-RHF iter   6:   -76.06581156906886   -2.03894e-06   1.58220e-06 DIIS
   @DF-RHF iter   7:   -76.06581168831548   -1.19247e-07   3.08992e-07 DIIS
   @DF-RHF iter   8:   -76.06581169235803   -4.04255e-09   4.94222e-08 DIIS
   @DF-RHF iter   9:   -76.06581169244286   -8.48388e-11   1.19659e-08 DIIS
   @DF-RHF iter  10:   -76.06581169244650   -3.63798e-12   1.65960e-09 DIIS
  Energy and wave function converged.


  ==> Post-Iterations <==

    Orbital Energies [Eh]
    ---------------------

    Doubly Occupied:                                                      

       1A    -20.562974     2A     -1.349933     3A     -0.725289  
       4A     -0.577140     5A     -0.509277  

    Virtual:                                                              

       6A      0.027156     7A      0.042869     8A      0.114716  
       9A      0.132588    10A      0.150322    11A      0.157840  
      12A      0.186007    13A      0.197116    14A      0.208243  
      15A      0.241434    16A      0.258991    17A      0.290391  
      18A      0.358082    19A      0.390608    20A      0.471878  
      21A      0.506653    22A      0.543018    23A      0.545650  
      24A      0.554057    25A      0.613293    26A      0.634290  
      27A      0.649683    28A      0.662608    29A      0.665802  
      30A      0.690432    31A      0.705169    32A      0.714773  
      33A      0.769556    34A      0.787503    35A      0.803524  
      36A      0.810130    37A      0.846858    38A      0.855375  
      39A      0.967474    40A      1.134185    41A      1.141387  
      42A      1.216933    43A      1.328940    44A      1.417411  
      45A      1.480439    46A      1.506009    47A      1.521933  
      48A      1.525072    49A      1.555921    50A      1.595663  
      51A      1.618001    52A      1.636526    53A      1.659463  
      54A      1.672798    55A      1.685888    56A      1.702490  
      57A      1.719354    58A      1.763774    59A      1.782064  
      60A      1.794437    61A      1.828134    62A      1.862853  
      63A      1.881459    64A      1.900130    65A      1.952998  
      66A      2.013944    67A      2.021087    68A      2.029428  
      69A      2.099056    70A      2.219319    71A      2.225915  
      72A      2.306778    73A      2.494183    74A      2.642438  
      75A      2.643745    76A      2.891023    77A      2.962111  
      78A      3.010600    79A      3.023260    80A      3.061559  
      81A      3.088494    82A      3.251457    83A      3.282586  
      84A      3.311955    85A      3.531183    86A      3.591113  
      87A      3.658626    88A      3.680892    89A      3.740289  
      90A      3.742486    91A      3.920810    92A      4.065910  
      93A      4.159056    94A      4.170598    95A      4.174728  
      96A      4.181179    97A      4.251472    98A      4.344637  
      99A      4.418433   100A      4.565629   101A      4.661211  
     102A      4.761417   103A      4.803073   104A      4.807871  
     105A      4.841729   106A      4.875344   107A      4.998469  
     108A      5.277393   109A      5.315652   110A      5.512253  
     111A      5.548554   112A      5.877787   113A      5.882978  
     114A      6.080755   115A      6.230203   116A      6.834420  
     117A      6.860148   118A      6.860854   119A      6.957030  
     120A      7.713481   121A      7.779866   122A      7.829186  
     123A      7.845902   124A      7.881288   125A      7.919122  
     126A      7.947997   127A      8.005819   128A      8.196193  
     129A      8.345078   130A      8.537135   131A      8.589491  
     132A      8.709224   133A      8.760579   134A      8.799450  
     135A      8.877383   136A      8.981730   137A      9.064459  
     138A      9.139707   139A      9.523498   140A      9.841560  
     141A      9.963009   142A      9.967881   143A     10.013812  
     144A     10.443956   145A     10.477804   146A     10.655035  
     147A     10.992369   148A     11.036661   149A     11.078668  
     150A     11.259779   151A     11.370746   152A     11.439580  
     153A     11.696514   154A     11.796579   155A     11.834827  
     156A     12.013495   157A     12.174706   158A     12.225702  
     159A     12.528221   160A     12.736672   161A     12.877068  
     162A     12.895310   163A     13.211537   164A     13.997384  
     165A     14.039962   166A     14.487503   167A     14.847918  
     168A     14.876109   169A     15.303592   170A     16.930471  
     171A     17.266018   172A     45.491543  

    Final Occupation by Irrep:
              A 
    DOCC [     5 ]

  @DF-RHF Final Energy:   -76.06581169244650

   => Energetics <=

    Nuclear Repulsion Energy =              9.1835499521550243
    One-Electron Energy =                -123.0494978194601288
    Two-Electron Energy =                  37.8001361748586007
    Total Energy =                        -76.0658116924465162

Computation Completed


Properties will be evaluated at  -6.193802,  -0.495190,   0.371873 [a0]

Properties computed using the SCF density matrix

  Nuclear Dipole Moment: [e a0]
     X:     0.7707      Y:    -0.5100      Z:     0.1112

  Electronic Dipole Moment: [e a0]
     X:    -0.1476      Y:     0.0974      Z:    -0.0212

  Dipole Moment: [e a0]
     X:     0.6231      Y:    -0.4126      Z:     0.0900     Total:     0.7527

  Dipole Moment: [D]
     X:     1.5836      Y:    -1.0487      Z:     0.2288     Total:     1.9131


*** tstop() called on node37.bme.utexas.edu at Tue Feb 22 17:45:07 2022
Module time:
	user time   =       8.16 seconds =       0.14 minutes
	system time =       0.61 seconds =       0.01 minutes
	total time  =          3 seconds =       0.05 minutes
Total time:
	user time   =      15.92 seconds =       0.27 minutes
	system time =       1.18 seconds =       0.02 minutes
	total time  =         10 seconds =       0.17 minutes

*** tstart() called on node37.bme.utexas.edu
*** at Tue Feb 22 17:45:07 2022


  //>>>>>>>>>>>>>>>>>>>>>>>>>>>>>>>>>>>//
  //               DFMP2               //
  //<<<<<<<<<<<<<<<<<<<<<<<<<<<<<<<<<<<//

   => Loading Basis Set <=

    Name: (AUG-CC-PVQZ AUX)
    Role: RIFIT
    Keyword: DF_BASIS_MP2
    atoms 1   entry O          line   332 file /home/bdw2292/miniconda3/envs/amoebamdpoltype/share/psi4/basis/aug-cc-pvqz-ri.gbs 
    atoms 2-3 entry H          line    30 file /home/bdw2292/miniconda3/envs/amoebamdpoltype/share/psi4/basis/aug-cc-pvqz-ri.gbs 

	 --------------------------------------------------------
	                          DF-MP2                         
	      2nd-Order Density-Fitted Moller-Plesset Theory     
	              RMP2 Wavefunction,   4 Threads             
	                                                         
	        Rob Parrish, Justin Turney, Andy Simmonett,      
	           Ed Hohenstein, and C. David Sherrill          
	 --------------------------------------------------------

   => Auxiliary Basis Set <=

  Basis Set: (AUG-CC-PVQZ AUX)
    Blend: AUG-CC-PVQZ-RI
    Number of shells: 76
    Number of basis function: 328
    Number of Cartesian functions: 447
    Spherical Harmonics?: true
    Max angular momentum: 5

	 --------------------------------------------------------
	                 NBF =   172, NAUX =   328
	 --------------------------------------------------------
	   CLASS    FOCC     OCC    AOCC    AVIR     VIR    FVIR
	   PAIRS       1       5       4     167     167       0
	 --------------------------------------------------------

	-----------------------------------------------------------
	 ==================> DF-MP2 Energies <==================== 
	-----------------------------------------------------------
	 Reference Energy          =     -76.0658116924465020 [Eh]
	 Singles Energy            =      -0.0000000000000000 [Eh]
	 Same-Spin Energy          =      -0.0671611493259421 [Eh]
	 Opposite-Spin Energy      =      -0.2185063234296040 [Eh]
	 Correlation Energy        =      -0.2856674727555461 [Eh]
	 Total Energy              =     -76.3514791652020506 [Eh]
	-----------------------------------------------------------
	 ================> DF-SCS-MP2 Energies <================== 
	-----------------------------------------------------------
	 SCS Same-Spin Scale       =       0.3333333333333333 [-]
	 SCS Opposite-Spin Scale   =       1.2000000000000000 [-]
	 SCS Same-Spin Energy      =      -0.0223870497753140 [Eh]
	 SCS Opposite-Spin Energy  =      -0.2622075881155247 [Eh]
	 SCS Correlation Energy    =      -0.2845946378908388 [Eh]
	 SCS Total Energy          =     -76.3504063303373357 [Eh]
	-----------------------------------------------------------


*** tstop() called on node37.bme.utexas.edu at Tue Feb 22 17:45:08 2022
Module time:
	user time   =       3.42 seconds =       0.06 minutes
	system time =       0.25 seconds =       0.00 minutes
	total time  =          1 seconds =       0.02 minutes
Total time:
	user time   =      19.34 seconds =       0.32 minutes
	system time =       1.43 seconds =       0.02 minutes
	total time  =         11 seconds =       0.18 minutes

  //>>>>>>>>>>>>>>>>>>>>>>>>>>>>>>>>>>>//
  //  CBS Results: mp2/aug-cc-pV[TQ]Z  //
  //<<<<<<<<<<<<<<<<<<<<<<<<<<<<<<<<<<<//


   ==> HF <==

   HI-zeta (4) Energy:               -76.065811692447


   ==> Helgaker 2-point correlated extrapolation for method: MP2 <==

   LO-zeta (3) Energy:               -76.328481784875
   HI-zeta (4) Energy:               -76.351479165202
   Alpha (exponent) Value:             3.000000000000
   Extrapolated Energy:              -76.368261037333

   @Extrapolated MP2/(T,Q):          -76.368261037333



   ==> Helgaker 2-point correlated extrapolation for method: HF <==

   LO-zeta (3) Energy:               -76.060424154870
   HI-zeta (4) Energy:               -76.065811692447
   Alpha (exponent) Value:             3.000000000000
   Extrapolated Energy:              -76.069743138786

   @Extrapolated HF/(T,Q):           -76.069743138786


   ==> Components <==

  ---------------------------------------------------------------------------------------------------------
                          Method / Basis                      Rqd      Energy [Eh]   Variable
  ---------------------------------------------------------------------------------------------------------
                              hf / aug-cc-pvtz                  *     -76.06042415   HF TOTAL ENERGY
                             mp2 / aug-cc-pvtz                  *     -76.32848178   MP2 TOTAL ENERGY
                              hf / aug-cc-pvqz                  *     -76.06581169   HF TOTAL ENERGY
                             mp2 / aug-cc-pvqz                  *     -76.35147917   MP2 TOTAL ENERGY
  ---------------------------------------------------------------------------------------------------------

   ==> Stages <==

  ---------------------------------------------------------------------------------------------------------
      Stage               Method / Basis                       Wt      Energy [Eh]   Scheme
  ---------------------------------------------------------------------------------------------------------
        scf                   hf / aug-cc-pvqz                  1     -76.06581169   xtpl_highest_1
       corl                  mp2 / aug-cc-pv[tq]z               1     -76.36826104   corl_xtpl_helgaker_2
       corl                   hf / aug-cc-pv[tq]z              -1     -76.06974314   corl_xtpl_helgaker_2
  ---------------------------------------------------------------------------------------------------------

   ==> CBS <==

  ---------------------------------------------------------------------------------------------------------
      Stage               Method / Basis                               Energy [Eh]   Scheme
  ---------------------------------------------------------------------------------------------------------
        scf                   hf / aug-cc-pvqz                        -76.06581169   xtpl_highest_1
       corl                  mp2 / aug-cc-pv[tq]z                      -0.29851790   corl_xtpl_helgaker_2
      total                  CBS                                      -76.36432959   
  ---------------------------------------------------------------------------------------------------------
   => Loading Basis Set <=

    Name: DEF2-SVP
    Role: ORBITAL
    Keyword: BASIS
    atoms 1   entry O          line   130 file /home/bdw2292/miniconda3/envs/amoebamdpoltype/share/psi4/basis/def2-svp.gbs 
    atoms 2-3 entry H          line    15 file /home/bdw2292/miniconda3/envs/amoebamdpoltype/share/psi4/basis/def2-svp.gbs 


       N-Body: Complex Energy (fragments = (2,), basis = (2,):   -76.36432959099341)

       N-Body: Computing complex (2/4) with fragments (2,) in the basis of fragments (1, 2).


  //>>>>>>>>>>>>>>>>>>>>>>>>>>>>>>>>>>>//
  //   CBS Setup: mp2/aug-cc-pV[TQ]Z   //
  //<<<<<<<<<<<<<<<<<<<<<<<<<<<<<<<<<<<//

    Naive listing of computations required.
             hf / aug-cc-pvqz              for  HF TOTAL ENERGY
            mp2 / aug-cc-pvtz              for  MP2 TOTAL ENERGY
            mp2 / aug-cc-pvqz              for  MP2 TOTAL ENERGY
             hf / aug-cc-pvtz              for  HF TOTAL ENERGY
             hf / aug-cc-pvqz              for  HF TOTAL ENERGY

    Enlightened listing of computations required.
            mp2 / aug-cc-pvtz              for  MP2 TOTAL ENERGY
            mp2 / aug-cc-pvqz              for  MP2 TOTAL ENERGY

    Full listing of computations to be obtained (required and bonus).
             hf / aug-cc-pvtz              for  HF TOTAL ENERGY
            mp2 / aug-cc-pvtz              for  MP2 TOTAL ENERGY
             hf / aug-cc-pvqz              for  HF TOTAL ENERGY
            mp2 / aug-cc-pvqz              for  MP2 TOTAL ENERGY

  //>>>>>>>>>>>>>>>>>>>>>>>>>>>>>>>>>>>>//
  // CBS Computation: MP2 / AUG-CC-PVTZ //
  //<<<<<<<<<<<<<<<<<<<<<<<<<<<<<<<<<<<<//

    SCF Algorithm Type (re)set to DF.

*** tstart() called on node37.bme.utexas.edu
*** at Tue Feb 22 17:45:09 2022

   => Loading Basis Set <=

    Name: AUG-CC-PVTZ
    Role: ORBITAL
    Keyword: BASIS
    atoms 1-2      entry CL         line   984 file /home/bdw2292/miniconda3/envs/amoebamdpoltype/share/psi4/basis/aug-cc-pvtz.gbs 
    atoms 3        entry C          line   235 file /home/bdw2292/miniconda3/envs/amoebamdpoltype/share/psi4/basis/aug-cc-pvtz.gbs 
    atoms 4-5, 7-8 entry H          line    36 file /home/bdw2292/miniconda3/envs/amoebamdpoltype/share/psi4/basis/aug-cc-pvtz.gbs 
    atoms 6        entry O          line   327 file /home/bdw2292/miniconda3/envs/amoebamdpoltype/share/psi4/basis/aug-cc-pvtz.gbs 


         ---------------------------------------------------------
                                   SCF
               by Justin Turney, Rob Parrish, Andy Simmonett
                          and Daniel G. A. Smith
                              RHF Reference
                        4 Threads,  14305 MiB Core
         ---------------------------------------------------------

  ==> Geometry <==

    Molecular point group: c1
    Full point group: C1

    Geometry (in Angstrom), charge = 0, multiplicity = 1:

       Center              X                  Y                   Z               Mass       
    ------------   -----------------  -----------------  -----------------  -----------------
      Gh(CL)         -0.636542719684     0.676793374248    -0.226113418148    34.968852682000
      Gh(CL)          2.156011980316    -0.229970025752     0.099679981852    34.968852682000
      Gh(C)           0.448794080316    -0.694293425752     0.052015981852    12.000000000000
      Gh(H)           0.194239180316    -1.145256225752     1.011317181852     1.007825032230
      Gh(H)           0.313924580316    -1.408590625752    -0.760476318148     1.007825032230
         O           -3.329433519684    -0.227751225752     0.189307381852    15.994914619570
         H           -3.301595219684    -1.145047325752     0.459791781852     1.007825032230
         H           -2.431305619684     0.076720474248     0.052480981852     1.007825032230

  Running in c1 symmetry.

  Rotational constants: A =      0.52012  B =      0.04472  C =      0.04162 [cm^-1]
  Rotational constants: A =  15592.91005  B =   1340.54026  C =   1247.74044 [MHz]
  Nuclear repulsion =    9.183549952155024

  Charge       = 0
  Multiplicity = 1
  Electrons    = 10
  Nalpha       = 5
  Nbeta        = 5

  ==> Algorithm <==

  SCF Algorithm Type is DF.
  DIIS enabled.
  MOM disabled.
  Fractional occupation disabled.
  Guess Type is SAD.
  Energy threshold   = 1.00e-08
  Density threshold  = 1.00e-08
  Integral threshold = 0.00e+00

  ==> Primary Basis <==

  Basis Set: AUG-CC-PVTZ
    Blend: AUG-CC-PVTZ
    Number of shells: 96
    Number of basis function: 284
    Number of Cartesian functions: 328
    Spherical Harmonics?: true
    Max angular momentum: 3

   => Loading Basis Set <=

    Name: (AUG-CC-PVTZ AUX)
    Role: JKFIT
    Keyword: DF_BASIS_SCF
    atoms 1-2      entry CL         line   816 file /home/bdw2292/miniconda3/envs/amoebamdpoltype/share/psi4/basis/aug-cc-pvtz-jkfit.gbs 
    atoms 3        entry C          line   162 file /home/bdw2292/miniconda3/envs/amoebamdpoltype/share/psi4/basis/aug-cc-pvtz-jkfit.gbs 
    atoms 4-5, 7-8 entry H          line    70 file /home/bdw2292/miniconda3/envs/amoebamdpoltype/share/psi4/basis/aug-cc-pvtz-jkfit.gbs 
    atoms 6        entry O          line   286 file /home/bdw2292/miniconda3/envs/amoebamdpoltype/share/psi4/basis/aug-cc-pvtz-jkfit.gbs 

  ==> Pre-Iterations <==

   -------------------------------------------------------
    Irrep   Nso     Nmo     Nalpha   Nbeta   Ndocc  Nsocc
   -------------------------------------------------------
     A        284     284       0       0       0       0
   -------------------------------------------------------
    Total     284     284       5       5       5       0
   -------------------------------------------------------

  ==> Integral Setup <==

  DFHelper Memory: AOs need 0.418 GiB; user supplied 10.477 GiB. Using in-core AOs.

  ==> MemDFJK: Density-Fitted J/K Matrices <==

    J tasked:                   Yes
    K tasked:                   Yes
    wK tasked:                   No
    OpenMP threads:               4
    Memory [MiB]:             10728
    Algorithm:                 Core
    Schwarz Cutoff:           1E-12
    Mask sparsity (%):       3.6501
    Fitting Condition:        1E-10

   => Auxiliary Basis Set <=

  Basis Set: (AUG-CC-PVTZ AUX)
    Blend: AUG-CC-PVTZ-JKFIT
    Number of shells: 200
    Number of basis function: 684
    Number of Cartesian functions: 842
    Spherical Harmonics?: true
    Max angular momentum: 4

  Minimum eigenvalue in the overlap matrix is 5.6477215265E-05.
  Using Symmetric Orthogonalization.

  SCF Guess: Superposition of Atomic Densities via on-the-fly atomic UHF.

  ==> Iterations <==

                           Total Energy        Delta E     RMS |[F,P]|

   @DF-RHF iter SAD:   -75.47387602095687   -7.54739e+01   0.00000e+00 
   @DF-RHF iter   1:   -75.97663623344664   -5.02760e-01   1.65038e-03 DIIS
   @DF-RHF iter   2:   -76.02906039690886   -5.24242e-02   1.11831e-03 DIIS
   @DF-RHF iter   3:   -76.06007554097620   -3.10151e-02   7.59432e-05 DIIS
   @DF-RHF iter   4:   -76.06046542567645   -3.89885e-04   1.81431e-05 DIIS
   @DF-RHF iter   5:   -76.06048942553377   -2.39999e-05   4.08413e-06 DIIS
   @DF-RHF iter   6:   -76.06049138604033   -1.96051e-06   9.10404e-07 DIIS
   @DF-RHF iter   7:   -76.06049149456257   -1.08522e-07   1.72572e-07 DIIS
   @DF-RHF iter   8:   -76.06049149802338   -3.46081e-09   2.85934e-08 DIIS
   @DF-RHF iter   9:   -76.06049149809860   -7.52181e-11   7.10175e-09 DIIS
  Energy and wave function converged.


  ==> Post-Iterations <==

    Orbital Energies [Eh]
    ---------------------

    Doubly Occupied:                                                      

       1A    -20.565379     2A     -1.350605     3A     -0.725272  
       4A     -0.577041     5A     -0.509125  

    Virtual:                                                              

       6A      0.017812     7A      0.040554     8A      0.042511  
       9A      0.048408    10A      0.065150    11A      0.083220  
      12A      0.093438    13A      0.106351    14A      0.112292  
      15A      0.114489    16A      0.121248    17A      0.131750  
      18A      0.139240    19A      0.158680    20A      0.171580  
      21A      0.182034    22A      0.185092    23A      0.186604  
      24A      0.214666    25A      0.235623    26A      0.252132  
      27A      0.267048    28A      0.275227    29A      0.278798  
      30A      0.291161    31A      0.295199    32A      0.301091  
      33A      0.314009    34A      0.315642    35A      0.345210  
      36A      0.355124    37A      0.372050    38A      0.378547  
      39A      0.385422    40A      0.397177    41A      0.409301  
      42A      0.424650    43A      0.436592    44A      0.448897  
      45A      0.460940    46A      0.463274    47A      0.479272  
      48A      0.493102    49A      0.500161    50A      0.516548  
      51A      0.556894    52A      0.559969    53A      0.565908  
      54A      0.583073    55A      0.597221    56A      0.605442  
      57A      0.622430    58A      0.628634    59A      0.639394  
      60A      0.648342    61A      0.657430    62A      0.677210  
      63A      0.710863    64A      0.731488    65A      0.733703  
      66A      0.740276    67A      0.753505    68A      0.756645  
      69A      0.775654    70A      0.781998    71A      0.823874  
      72A      0.854550    73A      0.895101    74A      0.915747  
      75A      0.928315    76A      0.938038    77A      0.952730  
      78A      0.966442    79A      0.972001    80A      0.989467  
      81A      1.018810    82A      1.043563    83A      1.056860  
      84A      1.064155    85A      1.076431    86A      1.086848  
      87A      1.101659    88A      1.113274    89A      1.125760  
      90A      1.136140    91A      1.167032    92A      1.172897  
      93A      1.179409    94A      1.210864    95A      1.214720  
      96A      1.233626    97A      1.258033    98A      1.279865  
      99A      1.289243   100A      1.298939   101A      1.313347  
     102A      1.320967   103A      1.338328   104A      1.365457  
     105A      1.374513   106A      1.382697   107A      1.383269  
     108A      1.391003   109A      1.412579   110A      1.436776  
     111A      1.445327   112A      1.447784   113A      1.470998  
     114A      1.481753   115A      1.495274   116A      1.537220  
     117A      1.549456   118A      1.558448   119A      1.560961  
     120A      1.569548   121A      1.574757   122A      1.581310  
     123A      1.618977   124A      1.621237   125A      1.627895  
     126A      1.662872   127A      1.679433   128A      1.686309  
     129A      1.716186   130A      1.724406   131A      1.765870  
     132A      1.807930   133A      1.839332   134A      1.878023  
     135A      1.917160   136A      1.941823   137A      1.955658  
     138A      1.987292   139A      2.026365   140A      2.057784  
     141A      2.062793   142A      2.075016   143A      2.086568  
     144A      2.104623   145A      2.110158   146A      2.162413  
     147A      2.180643   148A      2.223684   149A      2.230401  
     150A      2.248930   151A      2.293361   152A      2.303795  
     153A      2.363113   154A      2.413211   155A      2.442063  
     156A      2.489810   157A      2.492137   158A      2.515012  
     159A      2.524059   160A      2.541316   161A      2.552804  
     162A      2.597863   163A      2.659181   164A      2.685440  
     165A      2.698387   166A      2.761726   167A      2.772719  
     168A      2.820948   169A      2.855568   170A      2.944017  
     171A      2.953728   172A      3.019776   173A      3.164256  
     174A      3.729251   175A      3.814654   176A      3.869718  
     177A      3.895465   178A      3.906658   179A      3.951688  
     180A      3.964134   181A      3.973381   182A      3.975456  
     183A      3.985095   184A      4.011270   185A      4.026053  
     186A      4.048615   187A      4.083988   188A      4.104664  
     189A      4.122631   190A      4.134590   191A      4.154796  
     192A      4.165482   193A      4.183110   194A      4.194379  
     195A      4.195017   196A      4.255674   197A      4.282377  
     198A      4.295686   199A      4.303368   200A      4.317851  
     201A      4.359163   202A      4.371538   203A      4.387031  
     204A      4.410345   205A      4.462788   206A      4.472372  
     207A      4.498219   208A      4.512298   209A      4.538402  
     210A      4.569219   211A      4.605729   212A      4.630676  
     213A      4.635808   214A      4.688877   215A      4.704810  
     216A      4.735716   217A      4.754249   218A      4.760092  
     219A      4.768208   220A      4.804241   221A      4.808606  
     222A      4.824818   223A      4.838393   224A      4.892557  
     225A      4.899730   226A      4.936544   227A      5.009163  
     228A      5.042154   229A      5.110165   230A      5.141093  
     231A      5.171832   232A      5.188811   233A      5.218903  
     234A      5.229828   235A      5.313519   236A      5.342531  
     237A      5.359820   238A      5.372556   239A      5.418745  
     240A      5.441724   241A      5.484059   242A      5.562216  
     243A      5.627809   244A      5.757226   245A      5.887252  
     246A      5.913106   247A      5.950527   248A      6.070523  
     249A      6.090517   250A      6.205087   251A      6.264729  
     252A      6.322441   253A      6.434311   254A      6.575953  
     255A      6.779331   256A      6.929507   257A      7.015779  
     258A      7.172102   259A      7.287283   260A      7.335469  
     261A      7.363416   262A      7.466078   263A      7.490205  
     264A      7.696839   265A      7.754703   266A      7.908221  
     267A      7.956327   268A      8.010360   269A      8.112024  
     270A      8.145718   271A      8.867903   272A     10.000356  
     273A     16.268487   274A     16.655348   275A     17.026308  
     276A     28.080916   277A     28.102190   278A     28.117213  
     279A     28.585055   280A     28.959257   281A     29.188980  
     282A     49.276347   283A    161.005641   284A    161.057310  

    Final Occupation by Irrep:
              A 
    DOCC [     5 ]

  @DF-RHF Final Energy:   -76.06049149809860

   => Energetics <=

    Nuclear Repulsion Energy =              9.1835499521550243
    One-Electron Energy =                -123.0332352478784514
    Two-Electron Energy =                  37.7891937976248400
    Total Energy =                        -76.0604914980985995

Computation Completed


Properties will be evaluated at  -0.000000,  -0.000000,  -0.000000 [a0]

Properties computed using the SCF density matrix

  Nuclear Dipole Moment: [e a0]
     X:   -61.1674      Y:    -5.4619      Z:     3.8300

  Electronic Dipole Moment: [e a0]
     X:    61.7913      Y:     5.0491      Z:    -3.7399

  Dipole Moment: [e a0]
     X:     0.6239      Y:    -0.4128      Z:     0.0901     Total:     0.7535

  Dipole Moment: [D]
     X:     1.5858      Y:    -1.0493      Z:     0.2289     Total:     1.9153


*** tstop() called on node37.bme.utexas.edu at Tue Feb 22 17:45:20 2022
Module time:
	user time   =      29.20 seconds =       0.49 minutes
	system time =       1.71 seconds =       0.03 minutes
	total time  =         11 seconds =       0.18 minutes
Total time:
	user time   =      50.35 seconds =       0.84 minutes
	system time =       3.20 seconds =       0.05 minutes
	total time  =         23 seconds =       0.38 minutes

*** tstart() called on node37.bme.utexas.edu
*** at Tue Feb 22 17:45:20 2022


  //>>>>>>>>>>>>>>>>>>>>>>>>>>>>>>>>>>>//
  //               DFMP2               //
  //<<<<<<<<<<<<<<<<<<<<<<<<<<<<<<<<<<<//

   => Loading Basis Set <=

    Name: (AUG-CC-PVTZ AUX)
    Role: RIFIT
    Keyword: DF_BASIS_MP2
    atoms 1-2      entry CL         line   742 file /home/bdw2292/miniconda3/envs/amoebamdpoltype/share/psi4/basis/aug-cc-pvtz-ri.gbs 
    atoms 3        entry C          line   148 file /home/bdw2292/miniconda3/envs/amoebamdpoltype/share/psi4/basis/aug-cc-pvtz-ri.gbs 
    atoms 4-5, 7-8 entry H          line    30 file /home/bdw2292/miniconda3/envs/amoebamdpoltype/share/psi4/basis/aug-cc-pvtz-ri.gbs 
    atoms 6        entry O          line   264 file /home/bdw2292/miniconda3/envs/amoebamdpoltype/share/psi4/basis/aug-cc-pvtz-ri.gbs 

	 --------------------------------------------------------
	                          DF-MP2                         
	      2nd-Order Density-Fitted Moller-Plesset Theory     
	              RMP2 Wavefunction,   4 Threads             
	                                                         
	        Rob Parrish, Justin Turney, Andy Simmonett,      
	           Ed Hohenstein, and C. David Sherrill          
	 --------------------------------------------------------

   => Auxiliary Basis Set <=

  Basis Set: (AUG-CC-PVTZ AUX)
    Blend: AUG-CC-PVTZ-RI
    Number of shells: 186
    Number of basis function: 690
    Number of Cartesian functions: 874
    Spherical Harmonics?: true
    Max angular momentum: 4

	 --------------------------------------------------------
	                 NBF =   284, NAUX =   690
	 --------------------------------------------------------
	   CLASS    FOCC     OCC    AOCC    AVIR     VIR    FVIR
	   PAIRS       1       5       4     279     279       0
	 --------------------------------------------------------

	-----------------------------------------------------------
	 ==================> DF-MP2 Energies <==================== 
	-----------------------------------------------------------
	 Reference Energy          =     -76.0604914980985995 [Eh]
	 Singles Energy            =      -0.0000000000000000 [Eh]
	 Same-Spin Energy          =      -0.0651187576734399 [Eh]
	 Opposite-Spin Energy      =      -0.2032690975788893 [Eh]
	 Correlation Energy        =      -0.2683878552523292 [Eh]
	 Total Energy              =     -76.3288793533509278 [Eh]
	-----------------------------------------------------------
	 ================> DF-SCS-MP2 Energies <================== 
	-----------------------------------------------------------
	 SCS Same-Spin Scale       =       0.3333333333333333 [-]
	 SCS Opposite-Spin Scale   =       1.2000000000000000 [-]
	 SCS Same-Spin Energy      =      -0.0217062525578133 [Eh]
	 SCS Opposite-Spin Energy  =      -0.2439229170946672 [Eh]
	 SCS Correlation Energy    =      -0.2656291696524805 [Eh]
	 SCS Total Energy          =     -76.3261206677510842 [Eh]
	-----------------------------------------------------------


*** tstop() called on node37.bme.utexas.edu at Tue Feb 22 17:45:25 2022
Module time:
	user time   =      11.09 seconds =       0.18 minutes
	system time =       0.62 seconds =       0.01 minutes
	total time  =          5 seconds =       0.08 minutes
Total time:
	user time   =      61.44 seconds =       1.02 minutes
	system time =       3.82 seconds =       0.06 minutes
	total time  =         28 seconds =       0.47 minutes

  //>>>>>>>>>>>>>>>>>>>>>>>>>>>>>>>>>>>>//
  // CBS Computation: MP2 / AUG-CC-PVQZ //
  //<<<<<<<<<<<<<<<<<<<<<<<<<<<<<<<<<<<<//

    SCF Algorithm Type (re)set to DF.

*** tstart() called on node37.bme.utexas.edu
*** at Tue Feb 22 17:45:25 2022

   => Loading Basis Set <=

    Name: AUG-CC-PVQZ
    Role: ORBITAL
    Keyword: BASIS
    atoms 1-2      entry CL         line  1218 file /home/bdw2292/miniconda3/envs/amoebamdpoltype/share/psi4/basis/aug-cc-pvqz.gbs 
    atoms 3        entry C          line   299 file /home/bdw2292/miniconda3/envs/amoebamdpoltype/share/psi4/basis/aug-cc-pvqz.gbs 
    atoms 4-5, 7-8 entry H          line    36 file /home/bdw2292/miniconda3/envs/amoebamdpoltype/share/psi4/basis/aug-cc-pvqz.gbs 
    atoms 6        entry O          line   419 file /home/bdw2292/miniconda3/envs/amoebamdpoltype/share/psi4/basis/aug-cc-pvqz.gbs 


         ---------------------------------------------------------
                                   SCF
               by Justin Turney, Rob Parrish, Andy Simmonett
                          and Daniel G. A. Smith
                              RHF Reference
                        4 Threads,  14305 MiB Core
         ---------------------------------------------------------

  ==> Geometry <==

    Molecular point group: c1
    Full point group: C1

    Geometry (in Angstrom), charge = 0, multiplicity = 1:

       Center              X                  Y                   Z               Mass       
    ------------   -----------------  -----------------  -----------------  -----------------
      Gh(CL)         -0.636542719684     0.676793374248    -0.226113418148    34.968852682000
      Gh(CL)          2.156011980316    -0.229970025752     0.099679981852    34.968852682000
      Gh(C)           0.448794080316    -0.694293425752     0.052015981852    12.000000000000
      Gh(H)           0.194239180316    -1.145256225752     1.011317181852     1.007825032230
      Gh(H)           0.313924580316    -1.408590625752    -0.760476318148     1.007825032230
         O           -3.329433519684    -0.227751225752     0.189307381852    15.994914619570
         H           -3.301595219684    -1.145047325752     0.459791781852     1.007825032230
         H           -2.431305619684     0.076720474248     0.052480981852     1.007825032230

  Running in c1 symmetry.

  Rotational constants: A =      0.52012  B =      0.04472  C =      0.04162 [cm^-1]
  Rotational constants: A =  15592.91005  B =   1340.54026  C =   1247.74044 [MHz]
  Nuclear repulsion =    9.183549952155024

  Charge       = 0
  Multiplicity = 1
  Electrons    = 10
  Nalpha       = 5
  Nbeta        = 5

  ==> Algorithm <==

  SCF Algorithm Type is DF.
  DIIS enabled.
  MOM disabled.
  Fractional occupation disabled.
  Guess Type is SAD.
  Energy threshold   = 1.00e-08
  Density threshold  = 1.00e-08
  Integral threshold = 0.00e+00

  ==> Primary Basis <==

  Basis Set: AUG-CC-PVQZ
    Blend: AUG-CC-PVQZ
    Number of shells: 140
    Number of basis function: 512
    Number of Cartesian functions: 648
    Spherical Harmonics?: true
    Max angular momentum: 4

   => Loading Basis Set <=

    Name: (AUG-CC-PVQZ AUX)
    Role: JKFIT
    Keyword: DF_BASIS_SCF
    atoms 1-2      entry CL         line   904 file /home/bdw2292/miniconda3/envs/amoebamdpoltype/share/psi4/basis/aug-cc-pvqz-jkfit.gbs 
    atoms 3        entry C          line   178 file /home/bdw2292/miniconda3/envs/amoebamdpoltype/share/psi4/basis/aug-cc-pvqz-jkfit.gbs 
    atoms 4-5, 7-8 entry H          line    70 file /home/bdw2292/miniconda3/envs/amoebamdpoltype/share/psi4/basis/aug-cc-pvqz-jkfit.gbs 
    atoms 6        entry O          line   318 file /home/bdw2292/miniconda3/envs/amoebamdpoltype/share/psi4/basis/aug-cc-pvqz-jkfit.gbs 

  ==> Pre-Iterations <==

   -------------------------------------------------------
    Irrep   Nso     Nmo     Nalpha   Nbeta   Ndocc  Nsocc
   -------------------------------------------------------
     A        512     512       0       0       0       0
   -------------------------------------------------------
    Total     512     512       5       5       5       0
   -------------------------------------------------------

  ==> Integral Setup <==

  DFHelper Memory: AOs need 1.829 GiB; user supplied 10.477 GiB. Using in-core AOs.

  ==> MemDFJK: Density-Fitted J/K Matrices <==

    J tasked:                   Yes
    K tasked:                   Yes
    wK tasked:                   No
    OpenMP threads:               4
    Memory [MiB]:             10728
    Algorithm:                 Core
    Schwarz Cutoff:           1E-12
    Mask sparsity (%):       6.2645
    Fitting Condition:        1E-10

   => Auxiliary Basis Set <=

  Basis Set: (AUG-CC-PVQZ AUX)
    Blend: AUG-CC-PVQZ-JKFIT
    Number of shells: 232
    Number of basis function: 956
    Number of Cartesian functions: 1294
    Spherical Harmonics?: true
    Max angular momentum: 5

  Minimum eigenvalue in the overlap matrix is 1.1821498514E-05.
  Using Symmetric Orthogonalization.

  SCF Guess: Superposition of Atomic Densities via on-the-fly atomic UHF.

  ==> Iterations <==

                           Total Energy        Delta E     RMS |[F,P]|

   @DF-RHF iter SAD:   -75.47903266225232   -7.54790e+01   0.00000e+00 
   @DF-RHF iter   1:   -75.98168429539624   -5.02652e-01   9.17317e-04 DIIS
   @DF-RHF iter   2:   -76.03420426078560   -5.25200e-02   6.22997e-04 DIIS
   @DF-RHF iter   3:   -76.06541533519567   -3.12111e-02   4.24260e-05 DIIS
   @DF-RHF iter   4:   -76.06580715716044   -3.91822e-04   1.03652e-05 DIIS
   @DF-RHF iter   5:   -76.06583200698738   -2.48498e-05   2.32522e-06 DIIS
   @DF-RHF iter   6:   -76.06583404721908   -2.04023e-06   5.31681e-07 DIIS
   @DF-RHF iter   7:   -76.06583416659505   -1.19376e-07   1.03945e-07 DIIS
   @DF-RHF iter   8:   -76.06583417065465   -4.05960e-09   1.66412e-08 DIIS
   @DF-RHF iter   9:   -76.06583417073907   -8.44125e-11   4.02657e-09 DIIS
  Energy and wave function converged.


  ==> Post-Iterations <==

    Orbital Energies [Eh]
    ---------------------

    Doubly Occupied:                                                      

       1A    -20.562948     2A     -1.349909     3A     -0.725268  
       4A     -0.577122     5A     -0.509265  

    Virtual:                                                              

       6A      0.015943     7A      0.036368     8A      0.038125  
       9A      0.043187    10A      0.057643    11A      0.073457  
      12A      0.082583    13A      0.091100    14A      0.093973  
      15A      0.094833    16A      0.104762    17A      0.113658  
      18A      0.121434    19A      0.136590    20A      0.147058  
      21A      0.152523    22A      0.159272    23A      0.160252  
      24A      0.183931    25A      0.201416    26A      0.216690  
      27A      0.221033    28A      0.226771    29A      0.229263  
      30A      0.242891    31A      0.246396    32A      0.253296  
      33A      0.256269    34A      0.264334    35A      0.274724  
      36A      0.285852    37A      0.297512    38A      0.303104  
      39A      0.306402    40A      0.312982    41A      0.328443  
      42A      0.340760    43A      0.350825    44A      0.357764  
      45A      0.362186    46A      0.370006    47A      0.378437  
      48A      0.382912    49A      0.387236    50A      0.405524  
      51A      0.416500    52A      0.440709    53A      0.447628  
      54A      0.460453    55A      0.463652    56A      0.467931  
      57A      0.481844    58A      0.497696    59A      0.502818  
      60A      0.515550    61A      0.518485    62A      0.532484  
      63A      0.541275    64A      0.551205    65A      0.562657  
      66A      0.577633    67A      0.583096    68A      0.595313  
      69A      0.597791    70A      0.607719    71A      0.641133  
      72A      0.644906    73A      0.663434    74A      0.668304  
      75A      0.688325    76A      0.698430    77A      0.706815  
      78A      0.717177    79A      0.722079    80A      0.730643  
      81A      0.742314    82A      0.755893    83A      0.767881  
      84A      0.795043    85A      0.798388    86A      0.810243  
      87A      0.819601    88A      0.830949    89A      0.845050  
      90A      0.857285    91A      0.870154    92A      0.881152  
      93A      0.883139    94A      0.897123    95A      0.912896  
      96A      0.918458    97A      0.927547    98A      0.949844  
      99A      0.953840   100A      0.965525   101A      0.970388  
     102A      0.980238   103A      0.993211   104A      0.996532  
     105A      1.009730   106A      1.019120   107A      1.025000  
     108A      1.034486   109A      1.039039   110A      1.048420  
     111A      1.050962   112A      1.055007   113A      1.061971  
     114A      1.082014   115A      1.094545   116A      1.099527  
     117A      1.103235   118A      1.115157   119A      1.132850  
     120A      1.135965   121A      1.161027   122A      1.169989  
     123A      1.180430   124A      1.189643   125A      1.198624  
     126A      1.219397   127A      1.259142   128A      1.263870  
     129A      1.278585   130A      1.305152   131A      1.311831  
     132A      1.337435   133A      1.382369   134A      1.405092  
     135A      1.414950   136A      1.441060   137A      1.449094  
     138A      1.456848   139A      1.479883   140A      1.496037  
     141A      1.499308   142A      1.521757   143A      1.527019  
     144A      1.566979   145A      1.580395   146A      1.587606  
     147A      1.596388   148A      1.604626   149A      1.610175  
     150A      1.620652   151A      1.624830   152A      1.640589  
     153A      1.655883   154A      1.659515   155A      1.696071  
     156A      1.711665   157A      1.724781   158A      1.737607  
     159A      1.744288   160A      1.759788   161A      1.785438  
     162A      1.790682   163A      1.807634   164A      1.835653  
     165A      1.839430   166A      1.853950   167A      1.857008  
     168A      1.875983   169A      1.891539   170A      1.894715  
     171A      1.910418   172A      1.926228   173A      1.938103  
     174A      1.951017   175A      1.954002   176A      1.967086  
     177A      1.974220   178A      1.990745   179A      2.007956  
     180A      2.033148   181A      2.037061   182A      2.045539  
     183A      2.071034   184A      2.081865   185A      2.095848  
     186A      2.102812   187A      2.118235   188A      2.134460  
     189A      2.154480   190A      2.159109   191A      2.176090  
     192A      2.179850   193A      2.192052   194A      2.201653  
     195A      2.215607   196A      2.235822   197A      2.245641  
     198A      2.261907   199A      2.273197   200A      2.283759  
     201A      2.309196   202A      2.326362   203A      2.337144  
     204A      2.363621   205A      2.383681   206A      2.391816  
     207A      2.408715   208A      2.415611   209A      2.432087  
     210A      2.456889   211A      2.472889   212A      2.478842  
     213A      2.497289   214A      2.507723   215A      2.531437  
     216A      2.537893   217A      2.545723   218A      2.550368  
     219A      2.563237   220A      2.571678   221A      2.585302  
     222A      2.591203   223A      2.637677   224A      2.660534  
     225A      2.667560   226A      2.688764   227A      2.723529  
     228A      2.731014   229A      2.741409   230A      2.764581  
     231A      2.768713   232A      2.803281   233A      2.812538  
     234A      2.827818   235A      2.847013   236A      2.869321  
     237A      2.883626   238A      2.899863   239A      2.914624  
     240A      2.953235   241A      2.974022   242A      2.985363  
     243A      3.000231   244A      3.019235   245A      3.032602  
     246A      3.046309   247A      3.060866   248A      3.062728  
     249A      3.076584   250A      3.093727   251A      3.135724  
     252A      3.170755   253A      3.174353   254A      3.202306  
     255A      3.223348   256A      3.263844   257A      3.278620  
     258A      3.297938   259A      3.319318   260A      3.329840  
     261A      3.340300   262A      3.350197   263A      3.389428  
     264A      3.395227   265A      3.398020   266A      3.420844  
     267A      3.431432   268A      3.460396   269A      3.466241  
     270A      3.493815   271A      3.507743   272A      3.563287  
     273A      3.593417   274A      3.631999   275A      3.655062  
     276A      3.663027   277A      3.696531   278A      3.722794  
     279A      3.733999   280A      3.742434   281A      3.752896  
     282A      3.777591   283A      3.793016   284A      3.831593  
     285A      3.841358   286A      3.887782   287A      3.909250  
     288A      3.929060   289A      3.942417   290A      3.997006  
     291A      4.055182   292A      4.097132   293A      4.116215  
     294A      4.134270   295A      4.137635   296A      4.172880  
     297A      4.183640   298A      4.190328   299A      4.230489  
     300A      4.257442   301A      4.264753   302A      4.338669  
     303A      4.349164   304A      4.375434   305A      4.385858  
     306A      4.415518   307A      4.459606   308A      4.489469  
     309A      4.496939   310A      4.545762   311A      4.693355  
     312A      4.762788   313A      4.812368   314A      4.826681  
     315A      4.850622   316A      4.878555   317A      4.932527  
     318A      4.940904   319A      4.979879   320A      4.986864  
     321A      5.019686   322A      5.045279   323A      5.116786  
     324A      5.212653   325A      5.239009   326A      5.301716  
     327A      5.330287   328A      5.407412   329A      5.442197  
     330A      5.448674   331A      5.471905   332A      5.490275  
     333A      5.506669   334A      5.546733   335A      5.589283  
     336A      5.632089   337A      5.641700   338A      5.673969  
     339A      5.695929   340A      5.744952   341A      5.787155  
     342A      5.814263   343A      5.837736   344A      5.848424  
     345A      5.859957   346A      5.895804   347A      5.932959  
     348A      5.952311   349A      6.020733   350A      6.039774  
     351A      6.053008   352A      6.158137   353A      6.261213  
     354A      6.289893   355A      6.299754   356A      6.310579  
     357A      6.359178   358A      6.408307   359A      6.437061  
     360A      6.452829   361A      6.456951   362A      6.473116  
     363A      6.513295   364A      6.539567   365A      6.573643  
     366A      6.581945   367A      6.719349   368A      6.792559  
     369A      6.873455   370A      6.895168   371A      6.907565  
     372A      6.915737   373A      7.000697   374A      7.011231  
     375A      7.034507   376A      7.061573   377A      7.088365  
     378A      7.128362   379A      7.132979   380A      7.245357  
     381A      7.274623   382A      7.303111   383A      7.334687  
     384A      7.408237   385A      7.551774   386A      7.599977  
     387A      7.612220   388A      7.663079   389A      7.676188  
     390A      7.709425   391A      7.789550   392A      7.819825  
     393A      7.833133   394A      7.863872   395A      7.870452  
     396A      7.874887   397A      7.890336   398A      7.901207  
     399A      7.917676   400A      7.929761   401A      7.950122  
     402A      7.970275   403A      8.019349   404A      8.036541  
     405A      8.047962   406A      8.073535   407A      8.137240  
     408A      8.189077   409A      8.195527   410A      8.214090  
     411A      8.221558   412A      8.275701   413A      8.318969  
     414A      8.329333   415A      8.386302   416A      8.392730  
     417A      8.498622   418A      8.564933   419A      8.658532  
     420A      8.667372   421A      8.673174   422A      8.676334  
     423A      8.697813   424A      8.811518   425A      8.821160  
     426A      8.871428   427A      8.883970   428A      8.937311  
     429A      8.985928   430A      9.055692   431A      9.058377  
     432A      9.158684   433A      9.206477   434A      9.230670  
     435A      9.310792   436A      9.370286   437A      9.386137  
     438A      9.513859   439A      9.537955   440A      9.559966  
     441A      9.577759   442A      9.596534   443A      9.682859  
     444A      9.703853   445A      9.768783   446A      9.776101  
     447A      9.809178   448A      9.929041   449A     10.028426  
     450A     10.073651   451A     10.123428   452A     10.148079  
     453A     10.187460   454A     10.356496   455A     10.370334  
     456A     10.532120   457A     10.656520   458A     10.690333  
     459A     10.712408   460A     10.799608   461A     10.807326  
     462A     10.823057   463A     10.904227   464A     10.971166  
     465A     11.060124   466A     11.098046   467A     11.166319  
     468A     11.357563   469A     11.403551   470A     11.408012  
     471A     11.451210   472A     11.477828   473A     11.569913  
     474A     11.761833   475A     11.787084   476A     11.884442  
     477A     11.954155   478A     12.075279   479A     12.113300  
     480A     12.284005   481A     12.379082   482A     12.670315  
     483A     12.884010   484A     12.915093   485A     12.956872  
     486A     13.013851   487A     13.033350   488A     13.311213  
     489A     14.025795   490A     14.045624   491A     14.295771  
     492A     14.300198   493A     14.545710   494A     14.894188  
     495A     14.986545   496A     15.357642   497A     16.732268  
     498A     17.094472   499A     17.326904   500A     17.377203  
     501A     31.097957   502A     31.112461   503A     31.132387  
     504A     31.206441   505A     31.312621   506A     31.374708  
     507A     43.220815   508A     44.651513   509A     45.871126  
     510A     70.550556   511A    160.410722   512A    160.557854  

    Final Occupation by Irrep:
              A 
    DOCC [     5 ]

  @DF-RHF Final Energy:   -76.06583417073907

   => Energetics <=

    Nuclear Repulsion Energy =              9.1835499521550243
    One-Electron Energy =                -123.0497415208206888
    Two-Electron Energy =                  37.8003573979265965
    Total Energy =                        -76.0658341707390662

Computation Completed


Properties will be evaluated at  -0.000000,  -0.000000,  -0.000000 [a0]

Properties computed using the SCF density matrix

  Nuclear Dipole Moment: [e a0]
     X:   -61.1674      Y:    -5.4619      Z:     3.8300

  Electronic Dipole Moment: [e a0]
     X:    61.7904      Y:     5.0494      Z:    -3.7400

  Dipole Moment: [e a0]
     X:     0.6230      Y:    -0.4125      Z:     0.0900     Total:     0.7526

  Dipole Moment: [D]
     X:     1.5836      Y:    -1.0485      Z:     0.2287     Total:     1.9130


*** tstop() called on node37.bme.utexas.edu at Tue Feb 22 17:45:57 2022
Module time:
	user time   =      92.52 seconds =       1.54 minutes
	system time =       4.48 seconds =       0.07 minutes
	total time  =         32 seconds =       0.53 minutes
Total time:
	user time   =     154.01 seconds =       2.57 minutes
	system time =       8.30 seconds =       0.14 minutes
	total time  =         60 seconds =       1.00 minutes

*** tstart() called on node37.bme.utexas.edu
*** at Tue Feb 22 17:45:57 2022


  //>>>>>>>>>>>>>>>>>>>>>>>>>>>>>>>>>>>//
  //               DFMP2               //
  //<<<<<<<<<<<<<<<<<<<<<<<<<<<<<<<<<<<//

   => Loading Basis Set <=

    Name: (AUG-CC-PVQZ AUX)
    Role: RIFIT
    Keyword: DF_BASIS_MP2
    atoms 1-2      entry CL         line   914 file /home/bdw2292/miniconda3/envs/amoebamdpoltype/share/psi4/basis/aug-cc-pvqz-ri.gbs 
    atoms 3        entry C          line   184 file /home/bdw2292/miniconda3/envs/amoebamdpoltype/share/psi4/basis/aug-cc-pvqz-ri.gbs 
    atoms 4-5, 7-8 entry H          line    30 file /home/bdw2292/miniconda3/envs/amoebamdpoltype/share/psi4/basis/aug-cc-pvqz-ri.gbs 
    atoms 6        entry O          line   332 file /home/bdw2292/miniconda3/envs/amoebamdpoltype/share/psi4/basis/aug-cc-pvqz-ri.gbs 

	 --------------------------------------------------------
	                          DF-MP2                         
	      2nd-Order Density-Fitted Moller-Plesset Theory     
	              RMP2 Wavefunction,   4 Threads             
	                                                         
	        Rob Parrish, Justin Turney, Andy Simmonett,      
	           Ed Hohenstein, and C. David Sherrill          
	 --------------------------------------------------------

   => Auxiliary Basis Set <=

  Basis Set: (AUG-CC-PVQZ AUX)
    Blend: AUG-CC-PVQZ-RI
    Number of shells: 240
    Number of basis function: 1044
    Number of Cartesian functions: 1430
    Spherical Harmonics?: true
    Max angular momentum: 5

	 --------------------------------------------------------
	                 NBF =   512, NAUX =  1044
	 --------------------------------------------------------
	   CLASS    FOCC     OCC    AOCC    AVIR     VIR    FVIR
	   PAIRS       1       5       4     507     507       0
	 --------------------------------------------------------

	-----------------------------------------------------------
	 ==================> DF-MP2 Energies <==================== 
	-----------------------------------------------------------
	 Reference Energy          =     -76.0658341707390662 [Eh]
	 Singles Energy            =      -0.0000000000000000 [Eh]
	 Same-Spin Energy          =      -0.0671714976137402 [Eh]
	 Opposite-Spin Energy      =      -0.2186603192713338 [Eh]
	 Correlation Energy        =      -0.2858318168850740 [Eh]
	 Total Energy              =     -76.3516659876241448 [Eh]
	-----------------------------------------------------------
	 ================> DF-SCS-MP2 Energies <================== 
	-----------------------------------------------------------
	 SCS Same-Spin Scale       =       0.3333333333333333 [-]
	 SCS Opposite-Spin Scale   =       1.2000000000000000 [-]
	 SCS Same-Spin Energy      =      -0.0223904992045801 [Eh]
	 SCS Opposite-Spin Energy  =      -0.2623923831256005 [Eh]
	 SCS Correlation Energy    =      -0.2847828823301806 [Eh]
	 SCS Total Energy          =     -76.3506170530692430 [Eh]
	-----------------------------------------------------------


*** tstop() called on node37.bme.utexas.edu at Tue Feb 22 17:46:15 2022
Module time:
	user time   =      40.34 seconds =       0.67 minutes
	system time =       2.65 seconds =       0.04 minutes
	total time  =         18 seconds =       0.30 minutes
Total time:
	user time   =     194.35 seconds =       3.24 minutes
	system time =      10.95 seconds =       0.18 minutes
	total time  =         78 seconds =       1.30 minutes

  //>>>>>>>>>>>>>>>>>>>>>>>>>>>>>>>>>>>//
  //  CBS Results: mp2/aug-cc-pV[TQ]Z  //
  //<<<<<<<<<<<<<<<<<<<<<<<<<<<<<<<<<<<//


   ==> HF <==

   HI-zeta (4) Energy:               -76.065834170739


   ==> Helgaker 2-point correlated extrapolation for method: MP2 <==

   LO-zeta (3) Energy:               -76.328879353351
   HI-zeta (4) Energy:               -76.351665987624
   Alpha (exponent) Value:             3.000000000000
   Extrapolated Energy:              -76.368294072094

   @Extrapolated MP2/(T,Q):          -76.368294072094



   ==> Helgaker 2-point correlated extrapolation for method: HF <==

   LO-zeta (3) Energy:               -76.060491498099
   HI-zeta (4) Energy:               -76.065834170739
   Alpha (exponent) Value:             3.000000000000
   Extrapolated Energy:              -76.069732877801

   @Extrapolated HF/(T,Q):           -76.069732877801


   ==> Components <==

  ---------------------------------------------------------------------------------------------------------
                          Method / Basis                      Rqd      Energy [Eh]   Variable
  ---------------------------------------------------------------------------------------------------------
                              hf / aug-cc-pvtz                  *     -76.06049150   HF TOTAL ENERGY
                             mp2 / aug-cc-pvtz                  *     -76.32887935   MP2 TOTAL ENERGY
                              hf / aug-cc-pvqz                  *     -76.06583417   HF TOTAL ENERGY
                             mp2 / aug-cc-pvqz                  *     -76.35166599   MP2 TOTAL ENERGY
  ---------------------------------------------------------------------------------------------------------

   ==> Stages <==

  ---------------------------------------------------------------------------------------------------------
      Stage               Method / Basis                       Wt      Energy [Eh]   Scheme
  ---------------------------------------------------------------------------------------------------------
        scf                   hf / aug-cc-pvqz                  1     -76.06583417   xtpl_highest_1
       corl                  mp2 / aug-cc-pv[tq]z               1     -76.36829407   corl_xtpl_helgaker_2
       corl                   hf / aug-cc-pv[tq]z              -1     -76.06973288   corl_xtpl_helgaker_2
  ---------------------------------------------------------------------------------------------------------

   ==> CBS <==

  ---------------------------------------------------------------------------------------------------------
      Stage               Method / Basis                               Energy [Eh]   Scheme
  ---------------------------------------------------------------------------------------------------------
        scf                   hf / aug-cc-pvqz                        -76.06583417   xtpl_highest_1
       corl                  mp2 / aug-cc-pv[tq]z                      -0.29856119   corl_xtpl_helgaker_2
      total                  CBS                                      -76.36439537   
  ---------------------------------------------------------------------------------------------------------
   => Loading Basis Set <=

    Name: DEF2-SVP
    Role: ORBITAL
    Keyword: BASIS
    atoms 1-2      entry CL         line   356 file /home/bdw2292/miniconda3/envs/amoebamdpoltype/share/psi4/basis/def2-svp.gbs 
    atoms 3        entry C          line    90 file /home/bdw2292/miniconda3/envs/amoebamdpoltype/share/psi4/basis/def2-svp.gbs 
    atoms 4-5, 7-8 entry H          line    15 file /home/bdw2292/miniconda3/envs/amoebamdpoltype/share/psi4/basis/def2-svp.gbs 
    atoms 6        entry O          line   130 file /home/bdw2292/miniconda3/envs/amoebamdpoltype/share/psi4/basis/def2-svp.gbs 


       N-Body: Complex Energy (fragments = (2,), basis = (1, 2):   -76.36439536503183)

       N-Body: Computing complex (3/4) with fragments (1,) in the basis of fragments (1, 2).


  //>>>>>>>>>>>>>>>>>>>>>>>>>>>>>>>>>>>//
  //   CBS Setup: mp2/aug-cc-pV[TQ]Z   //
  //<<<<<<<<<<<<<<<<<<<<<<<<<<<<<<<<<<<//

    Naive listing of computations required.
             hf / aug-cc-pvqz              for  HF TOTAL ENERGY
            mp2 / aug-cc-pvtz              for  MP2 TOTAL ENERGY
            mp2 / aug-cc-pvqz              for  MP2 TOTAL ENERGY
             hf / aug-cc-pvtz              for  HF TOTAL ENERGY
             hf / aug-cc-pvqz              for  HF TOTAL ENERGY

    Enlightened listing of computations required.
            mp2 / aug-cc-pvtz              for  MP2 TOTAL ENERGY
            mp2 / aug-cc-pvqz              for  MP2 TOTAL ENERGY

    Full listing of computations to be obtained (required and bonus).
             hf / aug-cc-pvtz              for  HF TOTAL ENERGY
            mp2 / aug-cc-pvtz              for  MP2 TOTAL ENERGY
             hf / aug-cc-pvqz              for  HF TOTAL ENERGY
            mp2 / aug-cc-pvqz              for  MP2 TOTAL ENERGY

  //>>>>>>>>>>>>>>>>>>>>>>>>>>>>>>>>>>>>//
  // CBS Computation: MP2 / AUG-CC-PVTZ //
  //<<<<<<<<<<<<<<<<<<<<<<<<<<<<<<<<<<<<//

    SCF Algorithm Type (re)set to DF.

*** tstart() called on node37.bme.utexas.edu
*** at Tue Feb 22 17:46:17 2022

   => Loading Basis Set <=

    Name: AUG-CC-PVTZ
    Role: ORBITAL
    Keyword: BASIS
    atoms 1-2      entry CL         line   984 file /home/bdw2292/miniconda3/envs/amoebamdpoltype/share/psi4/basis/aug-cc-pvtz.gbs 
    atoms 3        entry C          line   235 file /home/bdw2292/miniconda3/envs/amoebamdpoltype/share/psi4/basis/aug-cc-pvtz.gbs 
    atoms 4-5, 7-8 entry H          line    36 file /home/bdw2292/miniconda3/envs/amoebamdpoltype/share/psi4/basis/aug-cc-pvtz.gbs 
[...]
      66A      0.349676    67A      0.358272    68A      0.366139  
      69A      0.367521    70A      0.372991    71A      0.381392  
      72A      0.387231    73A      0.408191    74A      0.420073  
      75A      0.429136    76A      0.445501    77A      0.458003  
      78A      0.485196    79A      0.490990    80A      0.504851  
      81A      0.526888    82A      0.529418    83A      0.540146  
      84A      0.545972    85A      0.552377    86A      0.564475  
      87A      0.580061    88A      0.581898    89A      0.587794  
      90A      0.596888    91A      0.608520    92A      0.613770  
      93A      0.629339    94A      0.644111    95A      0.646287  
      96A      0.653447    97A      0.656053    98A      0.661142  
      99A      0.675783   100A      0.681639   101A      0.695516  
     102A      0.703457   103A      0.714534   104A      0.721913  
     105A      0.729097   106A      0.738613   107A      0.748235  
     108A      0.761058   109A      0.769580   110A      0.775468  
     111A      0.780796   112A      0.792248   113A      0.806587  
     114A      0.813424   115A      0.816119   116A      0.835636  
     117A      0.839204   118A      0.847227   119A      0.860590  
     120A      0.872662   121A      0.891796   122A      0.908004  
     123A      0.911940   124A      0.931350   125A      0.941295  
     126A      0.954005   127A      0.961761   128A      0.972111  
     129A      0.981702   130A      0.987016   131A      1.011653  
     132A      1.021958   133A      1.031262   134A      1.060584  
     135A      1.072333   136A      1.096116   137A      1.101285  
     138A      1.114846   139A      1.128024   140A      1.147688  
     141A      1.158531   142A      1.162349   143A      1.172778  
     144A      1.180197   145A      1.199255   146A      1.205106  
     147A      1.213322   148A      1.221294   149A      1.226527  
     150A      1.234340   151A      1.248270   152A      1.255615  
     153A      1.274444   154A      1.285434   155A      1.289133  
     156A      1.310342   157A      1.331106   158A      1.345170  
     159A      1.363896   160A      1.377521   161A      1.387643  
     162A      1.420967   163A      1.430134   164A      1.481187  
     165A      1.485831   166A      1.501489   167A      1.532375  
     168A      1.542316   169A      1.560633   170A      1.585745  
     171A      1.597132   172A      1.628458   173A      1.636084  
     174A      1.644063   175A      1.652746   176A      1.683242  
     177A      1.693086   178A      1.706174   179A      1.726216  
     180A      1.730535   181A      1.746053   182A      1.756759  
     183A      1.765834   184A      1.770534   185A      1.783532  
     186A      1.795975   187A      1.808080   188A      1.822613  
     189A      1.837540   190A      1.850280   191A      1.857683  
     192A      1.860753   193A      1.871535   194A      1.878551  
     195A      1.885480   196A      1.894373   197A      1.908978  
     198A      1.929014   199A      1.939450   200A      1.944655  
     201A      1.952236   202A      1.972942   203A      1.980052  
     204A      1.988655   205A      2.005284   206A      2.014557  
     207A      2.028442   208A      2.034546   209A      2.043996  
     210A      2.047860   211A      2.054854   212A      2.065592  
     213A      2.085549   214A      2.095230   215A      2.103764  
     216A      2.109598   217A      2.113762   218A      2.117320  
     219A      2.131336   220A      2.149171   221A      2.160862  
     222A      2.167030   223A      2.175418   224A      2.182693  
     225A      2.191884   226A      2.226627   227A      2.236700  
     228A      2.248462   229A      2.261049   230A      2.263698  
     231A      2.266305   232A      2.275978   233A      2.287592  
     234A      2.304425   235A      2.312336   236A      2.327204  
     237A      2.357982   238A      2.365909   239A      2.380559  
     240A      2.391128   241A      2.399057   242A      2.411480  
     243A      2.429865   244A      2.445303   245A      2.450242  
     246A      2.462066   247A      2.474725   248A      2.487052  
     249A      2.505155   250A      2.521750   251A      2.543090  
     252A      2.561936   253A      2.608047   254A      2.613210  
     255A      2.636828   256A      2.641619   257A      2.653458  
     258A      2.666577   259A      2.713923   260A      2.741056  
     261A      2.748610   262A      2.799135   263A      2.814479  
     264A      2.834126   265A      2.874559   266A      2.899095  
     267A      2.904126   268A      2.914845   269A      2.927573  
     270A      2.952937   271A      2.960637   272A      2.994756  
     273A      3.024529   274A      3.042245   275A      3.055222  
     276A      3.084521   277A      3.118393   278A      3.128506  
     279A      3.137132   280A      3.180512   281A      3.191979  
     282A      3.197656   283A      3.258966   284A      3.259649  
     285A      3.287734   286A      3.313134   287A      3.327960  
     288A      3.360580   289A      3.382606   290A      3.421084  
     291A      3.431537   292A      3.460084   293A      3.475292  
     294A      3.514816   295A      3.558321   296A      3.587980  
     297A      3.624246   298A      3.660604   299A      3.699004  
     300A      3.709561   301A      3.722779   302A      3.739851  
     303A      3.755695   304A      3.773523   305A      3.777748  
     306A      3.833017   307A      3.864445   308A      3.896425  
     309A      3.935993   310A      3.951908   311A      3.988676  
     312A      4.036283   313A      4.053585   314A      4.067660  
     315A      4.122764   316A      4.139926   317A      4.161297  
     318A      4.192977   319A      4.207852   320A      4.232196  
     321A      4.246464   322A      4.263720   323A      4.326220  
     324A      4.329756   325A      4.371084   326A      4.384121  
     327A      4.453625   328A      4.467334   329A      4.498586  
     330A      4.517551   331A      4.529513   332A      4.546877  
     333A      4.566517   334A      4.611149   335A      4.656779  
     336A      4.688355   337A      4.703124   338A      4.709629  
     339A      4.716173   340A      4.726913   341A      4.745385  
     342A      4.754431   343A      4.768579   344A      4.785650  
     345A      4.799766   346A      4.811760   347A      4.819636  
     348A      4.842886   349A      4.858477   350A      4.862385  
     351A      4.874834   352A      4.883559   353A      4.907981  
     354A      4.922236   355A      4.938190   356A      4.960965  
     357A      4.969292   358A      4.975658   359A      4.993131  
     360A      5.015212   361A      5.019607   362A      5.051316  
     363A      5.066894   364A      5.081668   365A      5.121011  
     366A      5.128115   367A      5.164991   368A      5.192857  
     369A      5.204362   370A      5.219160   371A      5.234103  
     372A      5.305228   373A      5.337015   374A      5.388426  
     375A      5.395972   376A      5.411648   377A      5.424757  
     378A      5.461753   379A      5.516704   380A      5.543465  
     381A      5.649629   382A      5.665555   383A      5.693664  
     384A      5.724397   385A      5.779122   386A      5.909853  
     387A      5.971119   388A      6.152683   389A      6.268484  
     390A      6.312433   391A      6.351768   392A      6.356482  
     393A      6.406222   394A      6.440322   395A      6.509235  
     396A      6.543266   397A      6.595779   398A      6.623514  
     399A      6.681749   400A      6.735047   401A      6.778789  
     402A      6.827649   403A      6.879220   404A      6.882755  
     405A      6.901344   406A      6.916143   407A      6.933906  
     408A      6.959626   409A      6.981081   410A      7.001468  
     411A      7.015389   412A      7.055442   413A      7.086884  
     414A      7.116995   415A      7.186437   416A      7.237657  
     417A      7.288436   418A      7.453046   419A      7.458765  
     420A      7.515866   421A      7.574023   422A      7.585868  
     423A      7.603690   424A      7.692068   425A      7.764422  
     426A      7.790337   427A      7.808968   428A      7.835912  
     429A      7.842043   430A      7.891016   431A      7.913591  
     432A      7.984584   433A      8.028008   434A      8.039535  
     435A      8.090474   436A      8.114172   437A      8.196991  
     438A      8.229697   439A      8.269372   440A      8.358636  
     441A      8.490394   442A      8.509733   443A      8.558149  
     444A      8.641885   445A      8.684364   446A      8.734219  
     447A      8.779351   448A      8.804617   449A      8.838674  
     450A      8.852115   451A      8.879832   452A      8.952061  
     453A      8.994949   454A      9.063597   455A      9.120482  
     456A      9.165338   457A      9.214818   458A      9.227369  
     459A      9.433166   460A      9.450657   461A      9.485920  
     462A      9.499931   463A      9.521541   464A      9.560214  
     465A      9.677941   466A      9.804357   467A      9.933715  
     468A      9.946726   469A      9.958213   470A     10.043766  
     471A     10.157090   472A     10.167506   473A     10.301581  
     474A     10.382016   475A     10.547435   476A     10.570372  
     477A     10.669572   478A     10.760968   479A     10.781463  
     480A     10.914782   481A     11.045140   482A     11.077168  
     483A     11.151486   484A     11.345437   485A     11.445801  
     486A     11.485874   487A     11.578482   488A     11.779514  
     489A     11.898185   490A     11.970646   491A     12.130000  
     492A     12.303182   493A     12.396156   494A     12.688826  
     495A     12.900923   496A     12.933415   497A     12.977906  
     498A     13.017916   499A     13.087598   500A     13.332609  
     501A     14.059625   502A     14.314466   503A     14.564046  
     504A     14.912901   505A     15.003898   506A     15.376410  
     507A     17.111259   508A     17.393689   509A     26.338191  
     510A     27.437291   511A     28.193759   512A     45.875048  

    Final Occupation by Irrep:
              A 
    DOCC [    26 ]

  @DF-RHF Final Energy: -1034.14051850183296

   => Energetics <=

    Nuclear Repulsion Energy =            203.9500355637302107
    One-Electron Energy =               -1833.4784687877756824
    Two-Electron Energy =                 595.3879147222125994
    Total Energy =                      -1034.1405185018329576

Computation Completed


Properties will be evaluated at  -0.000000,  -0.000000,  -0.000000 [a0]

Properties computed using the SCF density matrix

  Nuclear Dipole Moment: [e a0]
     X:    -6.3050      Y:    -3.8058      Z:     0.8320

  Electronic Dipole Moment: [e a0]
     X:     7.0329      Y:     2.7956      Z:    -0.6956

  Dipole Moment: [e a0]
     X:     0.7279      Y:    -1.0103      Z:     0.1364     Total:     1.2526

  Dipole Moment: [D]
     X:     1.8501      Y:    -2.5678      Z:     0.3468     Total:     3.1838


*** tstop() called on node37.bme.utexas.edu at Tue Feb 22 17:49:13 2022
Module time:
	user time   =     117.05 seconds =       1.95 minutes
	system time =       5.86 seconds =       0.10 minutes
	total time  =         46 seconds =       0.77 minutes
Total time:
	user time   =     638.05 seconds =      10.63 minutes
	system time =      35.66 seconds =       0.59 minutes
	total time  =        256 seconds =       4.27 minutes

*** tstart() called on node37.bme.utexas.edu
*** at Tue Feb 22 17:49:13 2022


  //>>>>>>>>>>>>>>>>>>>>>>>>>>>>>>>>>>>//
  //               DFMP2               //
  //<<<<<<<<<<<<<<<<<<<<<<<<<<<<<<<<<<<//

   => Loading Basis Set <=

    Name: (AUG-CC-PVQZ AUX)
    Role: RIFIT
    Keyword: DF_BASIS_MP2
    atoms 1-2      entry CL         line   914 file /home/bdw2292/miniconda3/envs/amoebamdpoltype/share/psi4/basis/aug-cc-pvqz-ri.gbs 
    atoms 3        entry C          line   184 file /home/bdw2292/miniconda3/envs/amoebamdpoltype/share/psi4/basis/aug-cc-pvqz-ri.gbs 
    atoms 4-5, 7-8 entry H          line    30 file /home/bdw2292/miniconda3/envs/amoebamdpoltype/share/psi4/basis/aug-cc-pvqz-ri.gbs 
    atoms 6        entry O          line   332 file /home/bdw2292/miniconda3/envs/amoebamdpoltype/share/psi4/basis/aug-cc-pvqz-ri.gbs 

	 --------------------------------------------------------
	                          DF-MP2                         
	      2nd-Order Density-Fitted Moller-Plesset Theory     
	              RMP2 Wavefunction,   4 Threads             
	                                                         
	        Rob Parrish, Justin Turney, Andy Simmonett,      
	           Ed Hohenstein, and C. David Sherrill          
	 --------------------------------------------------------

   => Auxiliary Basis Set <=

  Basis Set: (AUG-CC-PVQZ AUX)
    Blend: AUG-CC-PVQZ-RI
    Number of shells: 240
    Number of basis function: 1044
    Number of Cartesian functions: 1430
    Spherical Harmonics?: true
    Max angular momentum: 5

	 --------------------------------------------------------
	                 NBF =   512, NAUX =  1044
	 --------------------------------------------------------
	   CLASS    FOCC     OCC    AOCC    AVIR     VIR    FVIR
	   PAIRS      12      26      14     486     486       0
	 --------------------------------------------------------

	-----------------------------------------------------------
	 ==================> DF-MP2 Energies <==================== 
	-----------------------------------------------------------
	 Reference Energy          =   -1034.1405185018329576 [Eh]
	 Singles Energy            =      -0.0000000000000000 [Eh]
	 Same-Spin Energy          =      -0.2124272585270872 [Eh]
	 Opposite-Spin Energy      =      -0.6899594705287674 [Eh]
	 Correlation Energy        =      -0.9023867290558545 [Eh]
	 Total Energy              =   -1035.0429052308888913 [Eh]
	-----------------------------------------------------------
	 ================> DF-SCS-MP2 Energies <================== 
	-----------------------------------------------------------
	 SCS Same-Spin Scale       =       0.3333333333333333 [-]
	 SCS Opposite-Spin Scale   =       1.2000000000000000 [-]
	 SCS Same-Spin Energy      =      -0.0708090861756957 [Eh]
	 SCS Opposite-Spin Energy  =      -0.8279513646345208 [Eh]
	 SCS Correlation Energy    =      -0.8987604508102165 [Eh]
	 SCS Total Energy          =   -1035.0392789526431443 [Eh]
	-----------------------------------------------------------


*** tstop() called on node37.bme.utexas.edu at Tue Feb 22 17:49:33 2022
Module time:
	user time   =      44.78 seconds =       0.75 minutes
	system time =       3.10 seconds =       0.05 minutes
	total time  =         20 seconds =       0.33 minutes
Total time:
	user time   =     682.83 seconds =      11.38 minutes
	system time =      38.77 seconds =       0.65 minutes
	total time  =        276 seconds =       4.60 minutes

  //>>>>>>>>>>>>>>>>>>>>>>>>>>>>>>>>>>>//
  //  CBS Results: mp2/aug-cc-pV[TQ]Z  //
  //<<<<<<<<<<<<<<<<<<<<<<<<<<<<<<<<<<<//


   ==> HF <==

   HI-zeta (4) Energy:               -1034.140518501833


   ==> Helgaker 2-point correlated extrapolation for method: MP2 <==

   LO-zeta (3) Energy:               -1034.967399091168
   HI-zeta (4) Energy:               -1035.042905230889
   Alpha (exponent) Value:             3.000000000000
   Extrapolated Energy:              -1035.098004305820

   @Extrapolated MP2/(T,Q):          -1035.098004305820



   ==> Helgaker 2-point correlated extrapolation for method: HF <==

   LO-zeta (3) Energy:               -1034.125503926514
   HI-zeta (4) Energy:               -1034.140518501833
   Alpha (exponent) Value:             3.000000000000
   Extrapolated Energy:              -1034.151475083823

   @Extrapolated HF/(T,Q):           -1034.151475083823


   ==> Components <==

  ---------------------------------------------------------------------------------------------------------
                          Method / Basis                      Rqd      Energy [Eh]   Variable
  ---------------------------------------------------------------------------------------------------------
                              hf / aug-cc-pvtz                  *   -1034.12550393   HF TOTAL ENERGY
                             mp2 / aug-cc-pvtz                  *   -1034.96739909   MP2 TOTAL ENERGY
                              hf / aug-cc-pvqz                  *   -1034.14051850   HF TOTAL ENERGY
                             mp2 / aug-cc-pvqz                  *   -1035.04290523   MP2 TOTAL ENERGY
  ---------------------------------------------------------------------------------------------------------

   ==> Stages <==

  ---------------------------------------------------------------------------------------------------------
      Stage               Method / Basis                       Wt      Energy [Eh]   Scheme
  ---------------------------------------------------------------------------------------------------------
        scf                   hf / aug-cc-pvqz                  1   -1034.14051850   xtpl_highest_1
       corl                  mp2 / aug-cc-pv[tq]z               1   -1035.09800431   corl_xtpl_helgaker_2
       corl                   hf / aug-cc-pv[tq]z              -1   -1034.15147508   corl_xtpl_helgaker_2
  ---------------------------------------------------------------------------------------------------------

   ==> CBS <==

  ---------------------------------------------------------------------------------------------------------
      Stage               Method / Basis                               Energy [Eh]   Scheme
  ---------------------------------------------------------------------------------------------------------
        scf                   hf / aug-cc-pvqz                      -1034.14051850   xtpl_highest_1
       corl                  mp2 / aug-cc-pv[tq]z                      -0.94652922   corl_xtpl_helgaker_2
      total                  CBS                                    -1035.08704772   
  ---------------------------------------------------------------------------------------------------------
   => Loading Basis Set <=

    Name: DEF2-SVP
    Role: ORBITAL
    Keyword: BASIS
    atoms 1-2      entry CL         line   356 file /home/bdw2292/miniconda3/envs/amoebamdpoltype/share/psi4/basis/def2-svp.gbs 
    atoms 3        entry C          line    90 file /home/bdw2292/miniconda3/envs/amoebamdpoltype/share/psi4/basis/def2-svp.gbs 
    atoms 4-5, 7-8 entry H          line    15 file /home/bdw2292/miniconda3/envs/amoebamdpoltype/share/psi4/basis/def2-svp.gbs 
    atoms 6        entry O          line   130 file /home/bdw2292/miniconda3/envs/amoebamdpoltype/share/psi4/basis/def2-svp.gbs 


       N-Body: Complex Energy (fragments = (1, 2), basis = (1, 2): -1035.08704772383089)

   ==> N-Body: Counterpoise Corrected (CP) energies <==

   n-Body     Total Energy [Eh]       I.E. [kcal/mol]      Delta [kcal/mol]
        1    -1035.093138617630        0.000000000000        0.000000000000
        2    -1035.086564727946        4.125178055979        4.125178055979

   => Loading Basis Set <=

    Name: DEF2-SVP
    Role: ORBITAL
    Keyword: BASIS
    atoms 1-2      entry CL         line   356 file /home/bdw2292/miniconda3/envs/amoebamdpoltype/share/psi4/basis/def2-svp.gbs 
    atoms 3        entry C          line    90 file /home/bdw2292/miniconda3/envs/amoebamdpoltype/share/psi4/basis/def2-svp.gbs 
    atoms 4-5, 7-8 entry H          line    15 file /home/bdw2292/miniconda3/envs/amoebamdpoltype/share/psi4/basis/def2-svp.gbs 
    atoms 6        entry O          line   130 file /home/bdw2292/miniconda3/envs/amoebamdpoltype/share/psi4/basis/def2-svp.gbs 

CP Energy =   0.006574
    Psi4 stopped on: Tuesday, 22 February 2022 05:49PM
    Psi4 wall time for execution: 0:04:37.56

*** Psi4 exiting successfully. Buy a developer a beer!
