
    -----------------------------------------------------------------------
          Psi4: An Open-Source Ab Initio Electronic Structure Package
                               Psi4 1.5 release

                         Git: Rev {HEAD} e9f4d6d 


    D. G. A. Smith, L. A. Burns, A. C. Simmonett, R. M. Parrish,
    M. C. Schieber, R. Galvelis, P. Kraus, H. Kruse, R. Di Remigio,
    A. Alenaizan, A. M. James, S. Lehtola, J. P. Misiewicz, M. Scheurer,
    R. A. Shaw, J. B. Schriber, Y. Xie, Z. L. Glick, D. A. Sirianni,
    J. S. O'Brien, J. M. Waldrop, A. Kumar, E. G. Hohenstein,
    B. P. Pritchard, B. R. Brooks, H. F. Schaefer III, A. Yu. Sokolov,
    K. Patkowski, A. E. DePrince III, U. Bozkaya, R. A. King,
    F. A. Evangelista, J. M. Turney, T. D. Crawford, C. D. Sherrill,
    J. Chem. Phys. 152(18) 184108 (2020). https://doi.org/10.1063/5.0006002

                            Additional Code Authors
    E. T. Seidl, C. L. Janssen, E. F. Valeev, M. L. Leininger,
    J. F. Gonthier, R. M. Richard, H. R. McAlexander, M. Saitow, X. Wang,
    P. Verma, M. H. Lechner, and A. Jiang

             Previous Authors, Complete List of Code Contributors,
                       and Citations for Specific Modules
    https://github.com/psi4/psi4/blob/master/codemeta.json
    https://github.com/psi4/psi4/graphs/contributors
    http://psicode.org/psi4manual/master/introduction.html#citing-psifour

    -----------------------------------------------------------------------


    Psi4 started on: Wednesday, 08 June 2022 12:58PM

    Process ID: 1112399
    Host:       node74.bme.utexas.edu
    PSIDATADIR: /home/bdw2292/miniconda3/envs/newamoebamdpoltype/share/psi4
    Memory:     500.0 MiB
    Threads:    1
    
  ==> Input File <==

--------------------------------------------------------------------------
molecule { 
0 1
 C    1.929927   -0.644557   -0.335160
 N    0.931646    0.293075   -0.562148
 C   -0.386231    0.204899    0.002037
 C   -0.741796   -0.741868    0.978429
 C    1.201769    1.468123   -1.398229
 C   -1.373270    1.107184   -0.432073
 C   -2.031010   -0.758810    1.502241
 C   -2.999652    0.144184    1.075205
 C   -2.658638    1.075287    0.101085
 H   -0.018406   -1.462267    1.309624
 H   -1.164847    1.840161   -1.194150
 C    3.310465   -0.379986   -0.899954
 O    1.746649   -1.685179    0.319528
 H    0.643365    1.419683   -2.334848
 H    0.924506    2.379446   -0.868407
 H    2.253405    1.533580   -1.639228
 H   -2.273075   -1.497111    2.254840
 H   -3.392526    1.785184   -0.256306
 H    3.313852   -0.322338   -1.989296
 H    3.747783    0.537796   -0.502959
 H   -3.998145    0.120027    1.488925
 H    3.930877   -1.217344   -0.596327
}
memory 8.166666666666666GB
set_num_threads(2)
psi4_io.set_default_path("/scratch/bdw2292/Psi4-3_24_Index_0-farH_in17")
set freeze_core True
E, wfn = energy('wb97x-d/6-311+G*',return_wfn=True)
oeprop(wfn,"WIBERG_LOWDIN_INDICES")
clean()
--------------------------------------------------------------------------

  Memory set to   7.606 GiB by Python driver.
  Threads set to 2 by Python driver.

Scratch directory: /scratch/bdw2292/Psi4-3_24_Index_0-farH_in17/

Scratch directory: /scratch/bdw2292/Psi4-3_24_Index_0-farH_in17/

*** tstart() called on node74.bme.utexas.edu
*** at Wed Jun  8 12:58:25 2022

   => Loading Basis Set <=

    Name: 6-311+G*
    Role: ORBITAL
    Keyword: BASIS
    atoms 1, 3-9, 12   entry C          line   130 file /home/bdw2292/miniconda3/envs/newamoebamdpoltype/share/psi4/basis/6-311pgs.gbs 
    atoms 2            entry N          line   151 file /home/bdw2292/miniconda3/envs/newamoebamdpoltype/share/psi4/basis/6-311pgs.gbs 
    atoms 10-11, 14-22 entry H          line    47 file /home/bdw2292/miniconda3/envs/newamoebamdpoltype/share/psi4/basis/6-311pgs.gbs 
    atoms 13           entry O          line   172 file /home/bdw2292/miniconda3/envs/newamoebamdpoltype/share/psi4/basis/6-311pgs.gbs 

   => WB97X-D: Empirical Dispersion <=

    Chai and Head-Gordon Dispersion Correction
    Chai, J.-D.; Head-Gordon, M. (2010), J. Chem. Phys., 132: 6615-6620

        s6 =       1.000000


         ---------------------------------------------------------
                                   SCF
               by Justin Turney, Rob Parrish, Andy Simmonett
                          and Daniel G. A. Smith
                              RKS Reference
                        2 Threads,   7788 MiB Core
         ---------------------------------------------------------

  ==> Geometry <==

    Molecular point group: c1
    Full point group: C1

    Geometry (in Angstrom), charge = 0, multiplicity = 1:

       Center              X                  Y                   Z               Mass       
    ------------   -----------------  -----------------  -----------------  -----------------
         C            1.929926954649    -0.644556899037    -0.335159968211    12.000000000000
         N            0.931645954649     0.293075100963    -0.562147968211    14.003074004430
         C           -0.386231045351     0.204899100963     0.002037031789    12.000000000000
         C           -0.741796045351    -0.741867899037     0.978429031789    12.000000000000
         C            1.201768954649     1.468123100963    -1.398228968211    12.000000000000
         C           -1.373270045351     1.107184100963    -0.432072968211    12.000000000000
         C           -2.031010045351    -0.758809899037     1.502241031789    12.000000000000
         C           -2.999652045351     0.144184100963     1.075205031789    12.000000000000
         C           -2.658638045351     1.075287100963     0.101085031789    12.000000000000
         H           -0.018406045351    -1.462266899037     1.309624031789     1.007825032230
         H           -1.164847045351     1.840161100963    -1.194149968211     1.007825032230
         C            3.310464954649    -0.379985899037    -0.899953968211    12.000000000000
         O            1.746648954649    -1.685178899037     0.319528031789    15.994914619570
         H            0.643364954649     1.419683100963    -2.334847968211     1.007825032230
         H            0.924505954649     2.379446100963    -0.868406968211     1.007825032230
         H            2.253404954649     1.533580100963    -1.639227968211     1.007825032230
         H           -2.273075045351    -1.497110899037     2.254840031789     1.007825032230
         H           -3.392526045351     1.785184100963    -0.256305968211     1.007825032230
         H            3.313851954649    -0.322337899037    -1.989295968211     1.007825032230
         H            3.747782954649     0.537796100963    -0.502958968211     1.007825032230
         H           -3.998145045351     0.120027100963     1.488925031789     1.007825032230
         H            3.930876954649    -1.217343899037    -0.596326968211     1.007825032230

  Running in c1 symmetry.

  Rotational constants: A =      0.08244  B =      0.02500  C =      0.01940 [cm^-1]
  Rotational constants: A =   2471.35153  B =    749.49352  C =    581.50500 [MHz]
  Nuclear repulsion =  587.407030318810598

  Charge       = 0
  Multiplicity = 1
  Electrons    = 80
  Nalpha       = 40
  Nbeta        = 40

  ==> Algorithm <==

  SCF Algorithm Type is DF.
  DIIS enabled.
  MOM disabled.
  Fractional occupation disabled.
  Guess Type is SAD.
  Energy threshold   = 1.00e-06
  Density threshold  = 1.00e-06
  Integral threshold = 1.00e-12

  ==> Primary Basis <==

  Basis Set: 6-311+G*
    Blend: 6-311+G*
    Number of shells: 143
    Number of basis functions: 275
    Number of Cartesian functions: 286
    Spherical Harmonics?: true
    Max angular momentum: 2

  ==> DFT Potential <==

   => LibXC <=

    Version 5.1.5
    S. Lehtola, C. Steigemann, M. J. Oliveira, and M. A. Marques, SoftwareX 7, 1 (2018) (10.1016/j.softx.2017.11.002)

   => Composite Functional: WB97X-D <= 

    wB97X-D Hyb-GGA Exchange-Correlation Functional

    J.-D. Chai and M. Head-Gordon, Phys. Chem. Chem. Phys. 10, 6615 (2008) (10.1039/B810189B)

    Deriv               =              1
    GGA                 =           TRUE
    Meta                =          FALSE

    Exchange Hybrid     =           TRUE
    MP2 Hybrid          =          FALSE

   => Exchange-Correlation Functionals <=

    1.0000   wB97X-D range-separated functional

   => Exact (HF) Exchange <=

    0.7780            HF,LR [omega = 0.2000]
    0.2220               HF 

   => LibXC Density Thresholds  <==

    XC_HYB_GGA_XC_WB97X_D:  1.00E-14 

   => Molecular Quadrature <=

    Radial Scheme          =       TREUTLER
    Pruning Scheme         =           NONE
    Nuclear Scheme         =       TREUTLER

    BS radius alpha        =              1
    Pruning alpha          =              1
    Radial Points          =             75
    Spherical Points       =            302
    Total Points           =         462053
    Total Blocks           =           3397
    Max Points             =            256
    Max Functions          =            251
    Weights Tolerance      =       1.00E-15

   => Loading Basis Set <=

    Name: (6-311+G* AUX)
    Role: JKFIT
    Keyword: DF_BASIS_SCF
    atoms 1, 3-9, 12   entry C          line   200 file /home/bdw2292/miniconda3/envs/newamoebamdpoltype/share/psi4/basis/heavy-aug-cc-pvtz-jkfit.gbs 
    atoms 2            entry N          line   262 file /home/bdw2292/miniconda3/envs/newamoebamdpoltype/share/psi4/basis/heavy-aug-cc-pvtz-jkfit.gbs 
    atoms 10-11, 14-22 entry H          line   116 file /home/bdw2292/miniconda3/envs/newamoebamdpoltype/share/psi4/basis/heavy-aug-cc-pvtz-jkfit.gbs 
    atoms 13           entry O          line   324 file /home/bdw2292/miniconda3/envs/newamoebamdpoltype/share/psi4/basis/heavy-aug-cc-pvtz-jkfit.gbs 

  ==> Integral Setup <==

  DFHelper Memory: AOs need 2.311 GiB; user supplied 3.255 GiB. Using in-core AOs.

  ==> MemDFJK: Density-Fitted J/K Matrices <==

    J tasked:                   Yes
    K tasked:                   Yes
    wK tasked:                  Yes
    Omega:                2.000E-01
    OpenMP threads:               2
    Memory [MiB]:              3333
    Algorithm:                 Core
    Schwarz Cutoff:           1E-12
    Mask sparsity (%):       8.5342
    Fitting Condition:        1E-10

   => Auxiliary Basis Set <=

  Basis Set: (6-311+G* AUX)
    Blend: HEAVY-AUG-CC-PVTZ-JKFIT
    Number of shells: 440
    Number of basis functions: 1474
    Number of Cartesian functions: 1826
    Spherical Harmonics?: true
    Max angular momentum: 4

  Cached 100.0% of DFT collocation blocks in 2.449 [GiB].

  Minimum eigenvalue in the overlap matrix is 1.5723518473E-06.
  Reciprocal condition number of the overlap matrix is 1.1272796399E-07.
    Using symmetric orthogonalization.

  ==> Pre-Iterations <==

  SCF Guess: Superposition of Atomic Densities via on-the-fly atomic UHF (no occupation information).

   -------------------------
    Irrep   Nso     Nmo    
   -------------------------
     A        275     275 
   -------------------------
    Total     275     275
   -------------------------

  ==> Iterations <==

                           Total Energy        Delta E     RMS |[F,P]|

   @DF-RKS iter SAD:  -478.84059725868337   -4.78841e+02   0.00000e+00 
   @DF-RKS iter   1:  -478.98709833203020   -1.46501e-01   3.76365e-03 DIIS
   @DF-RKS iter   2:  -479.17842546285277   -1.91327e-01   3.27118e-03 DIIS
   @DF-RKS iter   3:  -479.49261150565735   -3.14186e-01   7.95913e-04 DIIS
   @DF-RKS iter   4:  -479.50915093278388   -1.65394e-02   2.02960e-04 DIIS
   @DF-RKS iter   5:  -479.51041954009344   -1.26861e-03   5.07529e-05 DIIS
   @DF-RKS iter   6:  -479.51050378581266   -8.42457e-05   1.90460e-05 DIIS
   @DF-RKS iter   7:  -479.51051595750386   -1.21717e-05   4.09461e-06 DIIS
   @DF-RKS iter   8:  -479.51051681300834   -8.55504e-07   2.01714e-06 DIIS
   @DF-RKS iter   9:  -479.51051702895887   -2.15951e-07   4.37537e-07 DIIS
  Energy and wave function converged.


  ==> Post-Iterations <==

   Electrons on quadrature grid:
      Ntotal   =   79.9999133461 ; deviation = -8.665e-05 

    Orbital Energies [Eh]
    ---------------------

    Doubly Occupied:                                                      

       1A    -19.216982     2A    -14.488758     3A    -10.403023  
       4A    -10.340456     5A    -10.331320     6A    -10.294924  
       7A    -10.291624     8A    -10.290369     9A    -10.286103  
      10A    -10.283857    11A    -10.278865    12A     -1.141154  
      13A     -1.055289    14A     -0.956149    15A     -0.870112  
      16A     -0.852047    17A     -0.836202    18A     -0.813768  
      19A     -0.726838    20A     -0.700799    21A     -0.655282  
      22A     -0.611348    23A     -0.588197    24A     -0.576409  
      25A     -0.574760    26A     -0.544450    27A     -0.531583  
      28A     -0.525690    29A     -0.506908    30A     -0.499836  
      31A     -0.495488    32A     -0.481483    33A     -0.473460  
      34A     -0.448766    35A     -0.444789    36A     -0.429104  
      37A     -0.380279    38A     -0.339379    39A     -0.329975  
      40A     -0.299305  

    Virtual:                                                              

      41A      0.044437    42A      0.053757    43A      0.057465  
      44A      0.066723    45A      0.076140    46A      0.087526  
      47A      0.088905    48A      0.090365    49A      0.096886  
      50A      0.101333    51A      0.115014    52A      0.119992  
      53A      0.122265    54A      0.130511    55A      0.131556  
      56A      0.146046    57A      0.148746    58A      0.150636  
      59A      0.157285    60A      0.159908    61A      0.178876  
      62A      0.185533    63A      0.191709    64A      0.199520  
      65A      0.202879    66A      0.210185    67A      0.213347  
      68A      0.216170    69A      0.217795    70A      0.226324  
      71A      0.234331    72A      0.241198    73A      0.243572  
      74A      0.250815    75A      0.256586    76A      0.262074  
      77A      0.268250    78A      0.270569    79A      0.273653  
      80A      0.277211    81A      0.277856    82A      0.281319  
      83A      0.288909    84A      0.293786    85A      0.299844  
      86A      0.306530    87A      0.311290    88A      0.318832  
      89A      0.325669    90A      0.326844    91A      0.333322  
      92A      0.338316    93A      0.341826    94A      0.355032  
      95A      0.364679    96A      0.378299    97A      0.380485  
      98A      0.391013    99A      0.394054   100A      0.405905  
     101A      0.418682   102A      0.419540   103A      0.424376  
     104A      0.442873   105A      0.468249   106A      0.482092  
     107A      0.490571   108A      0.526954   109A      0.544814  
     110A      0.551012   111A      0.563997   112A      0.575540  
     113A      0.588961   114A      0.601055   115A      0.615867  
     116A      0.619068   117A      0.625843   118A      0.632687  
     119A      0.637266   120A      0.648081   121A      0.662061  
     122A      0.675834   123A      0.685210   124A      0.689666  
     125A      0.704356   126A      0.724488   127A      0.728975  
     128A      0.738675   129A      0.740517   130A      0.742316  
     131A      0.754214   132A      0.772566   133A      0.777934  
     134A      0.783233   135A      0.798436   136A      0.812062  
     137A      0.814090   138A      0.825119   139A      0.836433  
     140A      0.845376   141A      0.878276   142A      0.888530  
     143A      0.900646   144A      0.925629   145A      0.934516  
     146A      0.958174   147A      0.961495   148A      0.972737  
     149A      0.977015   150A      0.987796   151A      1.003312  
     152A      1.009771   153A      1.063091   154A      1.098892  
     155A      1.105799   156A      1.116288   157A      1.131865  
     158A      1.173134   159A      1.181228   160A      1.209985  
     161A      1.224463   162A      1.232900   163A      1.276733  
     164A      1.288889   165A      1.304922   166A      1.316417  
     167A      1.326066   168A      1.340660   169A      1.384918  
     170A      1.393298   171A      1.422977   172A      1.464605  
     173A      1.519611   174A      1.580959   175A      1.600946  
     176A      1.607953   177A      1.626286   178A      1.635139  
     179A      1.654978   180A      1.662366   181A      1.682924  
     182A      1.688695   183A      1.715492   184A      1.750270  
     185A      1.803998   186A      1.814588   187A      1.831918  
     188A      1.844407   189A      1.855140   190A      1.868665  
     191A      1.874087   192A      1.885017   193A      1.906920  
     194A      1.951341   195A      1.986150   196A      2.021672  
     197A      2.024103   198A      2.035246   199A      2.062542  
     200A      2.098529   201A      2.117347   202A      2.142393  
     203A      2.253137   204A      2.307749   205A      2.325604  
     206A      2.357069   207A      2.381749   208A      2.398202  
     209A      2.421720   210A      2.470950   211A      2.490478  
     212A      2.520612   213A      2.537866   214A      2.571285  
     215A      2.587487   216A      2.625653   217A      2.639222  
     218A      2.651367   219A      2.667385   220A      2.698777  
     221A      2.768119   222A      2.797234   223A      2.840632  
     224A      2.864713   225A      2.891972   226A      2.917790  
     227A      2.922284   228A      2.961536   229A      2.992730  
     230A      3.010707   231A      3.026987   232A      3.047314  
     233A      3.079448   234A      3.170377   235A      3.177792  
     236A      3.217816   237A      3.251622   238A      3.295997  
     239A      3.325989   240A      3.383735   241A      3.407008  
     242A      3.416985   243A      3.428335   244A      3.433812  
     245A      3.448313   246A      3.491571   247A      3.533733  
     248A      3.587917   249A      3.635641   250A      3.702684  
     251A      3.754162   252A      3.759196   253A      3.882804  
     254A      3.942482   255A      4.006613   256A      4.134390  
     257A      4.145012   258A      4.170480   259A      4.872282  
     260A      4.897807   261A      5.085801   262A      5.184764  
     263A      5.364557   264A      5.883873   265A     23.485059  
     266A     23.691929   267A     23.747395   268A     23.945538  
     269A     23.975354   270A     24.007754   271A     24.147976  
     272A     24.187328   273A     24.285481   274A     35.681462  
     275A     50.141932  

    Final Occupation by Irrep:
              A 
    DOCC [    40 ]

  @DF-RKS Final Energy:  -479.51051702895887

   => Energetics <=

    Nuclear Repulsion Energy =            587.4070303188105981
    One-Electron Energy =               -1813.4778397566219610
    Two-Electron Energy =                 793.6654739664304543
    DFT Exchange-Correlation Energy =     -47.0928512844043965
    Empirical Dispersion Energy =          -0.0123302731735452
    VV10 Nonlocal Energy =                  0.0000000000000000
    Total Energy =                       -479.5105170289589296

Computation Completed


Properties will be evaluated at   0.000000,   0.000000,   0.000000 [a0]

Properties computed using the SCF density matrix

  Nuclear Dipole Moment: [e a0]
     X:     3.7244      Y:     4.7879      Z:    -4.0543

  Electronic Dipole Moment: [e a0]
     X:    -3.4583      Y:    -3.4842      Z:     3.2365

  Dipole Moment: [e a0]
     X:     0.2661      Y:     1.3037      Z:    -0.8179     Total:     1.5618

  Dipole Moment: [D]
     X:     0.6764      Y:     3.3137      Z:    -2.0788     Total:     3.9698


*** tstop() called on node74.bme.utexas.edu at Wed Jun  8 12:59:36 2022
Module time:
	user time   =     129.52 seconds =       2.16 minutes
	system time =       9.05 seconds =       0.15 minutes
	total time  =         71 seconds =       1.18 minutes
Total time:
	user time   =     129.52 seconds =       2.16 minutes
	system time =       9.05 seconds =       0.15 minutes
	total time  =         71 seconds =       1.18 minutes


Properties will be evaluated at   0.000000,   0.000000,   0.000000 [a0]
OEProp: No title given, name of density matrix used for the following properties is 'SCF density'


  Wiberg Bond Indices using Orthogonal Lowdin Orbitals:

  Irrep: 1 Size: 22 x 22

                 1                   2                   3                   4                   5

    1     0.00000000000000     1.33045984221719     0.09606183966879     0.04399712966148     0.10577415221213
    2     1.33045984221719     0.00000000000000     1.13383721288466     0.11149812342997     1.15226626667702
    3     0.09606183966879     1.13383721288466     0.00000000000000     1.38913738174034     0.10310333639510
    4     0.04399712966148     0.11149812342997     1.38913738174034     0.00000000000000     0.01769171127917
    5     0.10577415221213     1.15226626667702     0.10310333639510     0.01769171127917     0.00000000000000
    6     0.02755282061626     0.12006905901410     1.39485176211261     0.12652183190914     0.07111760071826
    7     0.00449746782670     0.01547211208453     0.13540192708195     1.52716550991138     0.00320861334450
    8     0.00801466260897     0.01379523211138     0.13134077742274     0.13744414752832     0.00293398550028
    9     0.00360511690377     0.01533367377080     0.13191795759474     0.14411039785629     0.00783077071144
   10     0.01067124153741     0.01178870699286     0.05272408288574     0.78528294548504     0.00085604610605
   11     0.00097606009091     0.01454528170768     0.05294020479855     0.00944639291658     0.02449181204592
   12     1.09776304675547     0.11220148175422     0.01826503131197     0.00545478555615     0.06692445538934
   13     2.17255041054117     0.22505651200742     0.04256763831191     0.09733112534483     0.02592672496634
   14     0.01239217479615     0.04754346700424     0.01089110051047     0.00089426599590     0.88085859587759
   15     0.01080461991285     0.04556645486665     0.01431916282692     0.00105188976309     0.87836849426020
   16     0.01798308782580     0.04305426690932     0.00952813993522     0.00109619111182     0.87429193746498
   17     0.00023945166777     0.00082531762618     0.01094984329300     0.06020705079676     0.00046172115066
   18     0.00038779219456     0.00086913524701     0.01071883205548     0.00256618595400     0.00032126105925
   19     0.04619864121223     0.01131796627901     0.00064724214534     0.00046700753909     0.01287208608829
   20     0.04632877648209     0.01193588095089     0.00071598779248     0.00054829476421     0.01274434532771
   21     0.00007928738949     0.00026259282044     0.00267506469930     0.01091968887899     0.00015783676397
   22     0.05081328029573     0.00575317758659     0.00103951979593     0.00045018447748     0.00462412436426

                 6                   7                   8                   9                  10

    1     0.02755282061626     0.00449746782670     0.00801466260897     0.00360511690377     0.01067124153741
    2     0.12006905901410     0.01547211208453     0.01379523211138     0.01533367377080     0.01178870699286
    3     1.39485176211261     0.13540192708195     0.13134077742274     0.13191795759474     0.05272408288574
    4     0.12652183190914     1.52716550991138     0.13744414752832     0.14411039785629     0.78528294548504
    5     0.07111760071826     0.00320861334450     0.00293398550028     0.00783077071144     0.00085604610605
    6     0.00000000000000     0.14315493119317     0.13823810058030     1.52085043369132     0.00931495905489
    7     0.14315493119317     0.00000000000000     1.51478404043853     0.13999898220734     0.05615471838266
    8     0.13823810058030     1.51478404043853     0.00000000000000     1.52358389173148     0.00996680870713
    9     1.52085043369132     0.13999898220734     1.52358389173148     0.00000000000000     0.00230661124927
   10     0.00931495905489     0.05615471838266     0.00996680870713     0.00230661124927     0.00000000000000
   11     0.80905556465140     0.00239755176303     0.01029347540122     0.05628386918915     0.00046938975707
   12     0.00346100733904     0.00065266697960     0.00052227911561     0.00073647167558     0.00098329074913
   13     0.00819413390315     0.00802674286034     0.00636439551730     0.00152526615327     0.03667938006487
   14     0.01371167165187     0.00029811580444     0.00073543217235     0.00097756393870     0.00005090418073
   15     0.01669040106459     0.00046177923673     0.00075509681292     0.00132722554888     0.00005247176368
   16     0.00334512410300     0.00033861701868     0.00020512184609     0.00035960752769     0.00008004814283
   17     0.00256744261392     0.83324042475277     0.05884088310500     0.01157289093728     0.00569146966483
   18     0.06082873270212     0.01153708663924     0.05859098839316     0.83351763657889     0.00018348363922
   19     0.00045623670264     0.00008115661852     0.00021672995425     0.00008183321214     0.00005520847971
   20     0.00045545404804     0.00008396641970     0.00018692489533     0.00008190427900     0.00003341169988
   21     0.01116305375037     0.05948962498511     0.83546630451700     0.05983409624622     0.00023007642945
   22     0.00037952022048     0.00006655294943     0.00002917993231     0.00007924797336     0.00019845489812

                11                  12                  13                  14                  15

    1     0.00097606009091     1.09776304675547     2.17255041054117     0.01239217479615     0.01080461991285
    2     0.01454528170768     0.11220148175422     0.22505651200742     0.04754346700424     0.04556645486665
    3     0.05294020479855     0.01826503131197     0.04256763831191     0.01089110051047     0.01431916282692
    4     0.00944639291658     0.00545478555615     0.09733112534483     0.00089426599590     0.00105188976309
    5     0.02449181204592     0.06692445538934     0.02592672496634     0.88085859587759     0.87836849426020
    6     0.80905556465140     0.00346100733904     0.00819413390315     0.01371167165187     0.01669040106459
    7     0.00239755176303     0.00065266697960     0.00802674286034     0.00029811580444     0.00046177923673
    8     0.01029347540122     0.00052227911561     0.00636439551730     0.00073543217235     0.00075509681292
    9     0.05628386918915     0.00073647167558     0.00152526615327     0.00097756393870     0.00132722554888
   10     0.00046938975707     0.00098329074913     0.03667938006487     0.00005090418073     0.00005247176368
   11     0.00000000000000     0.00038916976068     0.00026187647713     0.00304111886064     0.00299602771757
   12     0.00038916976068     0.00000000000000     0.16219975697235     0.00281285735194     0.00228868231717
   13     0.00026187647713     0.16219975697235     0.00000000000000     0.00397492444386     0.00326176998911
   14     0.00304111886064     0.00281285735194     0.00397492444386     0.00000000000000     0.00658076755588
   15     0.00299602771757     0.00228868231717     0.00326176998911     0.00658076755588     0.00000000000000
   16     0.00060307074004     0.02620736656617     0.00095060578048     0.00941023067359     0.01018326590245
   17     0.00021225870833     0.00004071180867     0.00041935403561     0.00002165164559     0.00004098007553
   18     0.00585515888836     0.00007722664866     0.00005616250671     0.00004297831863     0.00002763468116
   19     0.00009970108870     0.88495252702556     0.01448100864337     0.00003498229603     0.00014681179424
   20     0.00010763397595     0.88409155668473     0.01462717622219     0.00012491037301     0.00007074196273
   21     0.00020028979380     0.00004455291249     0.00017345422313     0.00003525654898     0.00003159704477
   22     0.00007345587275     0.88634520032806     0.02205181928315     0.00002210490057     0.00006270035725

                16                  17                  18                  19                  20

    1     0.01798308782580     0.00023945166777     0.00038779219456     0.04619864121223     0.04632877648209
    2     0.04305426690932     0.00082531762618     0.00086913524701     0.01131796627901     0.01193588095089
    3     0.00952813993522     0.01094984329300     0.01071883205548     0.00064724214534     0.00071598779248
    4     0.00109619111182     0.06020705079676     0.00256618595400     0.00046700753909     0.00054829476421
    5     0.87429193746498     0.00046172115066     0.00032126105925     0.01287208608829     0.01274434532771
    6     0.00334512410300     0.00256744261392     0.06082873270212     0.00045623670264     0.00045545404804
    7     0.00033861701868     0.83324042475277     0.01153708663924     0.00008115661852     0.00008396641970
    8     0.00020512184609     0.05884088310500     0.05859098839316     0.00021672995425     0.00018692489533
    9     0.00035960752769     0.01157289093728     0.83351763657889     0.00008183321214     0.00008190427900
   10     0.00008004814283     0.00569146966483     0.00018348363922     0.00005520847971     0.00003341169988
   11     0.00060307074004     0.00021225870833     0.00585515888836     0.00009970108870     0.00010763397595
   12     0.02620736656617     0.00004071180867     0.00007722664866     0.88495252702556     0.88409155668473
   13     0.00095060578048     0.00041935403561     0.00005616250671     0.01448100864337     0.01462717622219
   14     0.00941023067359     0.00002165164559     0.00004297831863     0.00003498229603     0.00012491037301
   15     0.01018326590245     0.00004098007553     0.00002763468116     0.00014681179424     0.00007074196273
   16     0.00000000000000     0.00001569849074     0.00002487929810     0.00319364591748     0.00337272656702
   17     0.00001569849074     0.00000000000000     0.00029995439081     0.00000236155504     0.00000283950656
   18     0.00002487929810     0.00029995439081     0.00000000000000     0.00000295891910     0.00000270307312
   19     0.00319364591748     0.00000236155504     0.00000295891910     0.00000000000000     0.00742263442845
   20     0.00337272656702     0.00000283950656     0.00000270307312     0.00742263442845     0.00000000000000
   21     0.00000736127560     0.00507931740937     0.00509768391620     0.00000234970386     0.00000082203928
   22     0.00081611082828     0.00000525664683     0.00001419583052     0.01033023828468     0.01027935930952

                21                  22

    1     0.00007928738949     0.05081328029573
    2     0.00026259282044     0.00575317758659
    3     0.00267506469930     0.00103951979593
    4     0.01091968887899     0.00045018447748
    5     0.00015783676397     0.00462412436426
    6     0.01116305375037     0.00037952022048
    7     0.05948962498511     0.00006655294943
    8     0.83546630451700     0.00002917993231
    9     0.05983409624622     0.00007924797336
   10     0.00023007642945     0.00019845489812
   11     0.00020028979380     0.00007345587275
   12     0.00004455291249     0.88634520032806
   13     0.00017345422313     0.02205181928315
   14     0.00003525654898     0.00002210490057
   15     0.00003159704477     0.00006270035725
   16     0.00000736127560     0.00081611082828
   17     0.00507931740937     0.00000525664683
   18     0.00509768391620     0.00001419583052
   19     0.00000234970386     0.01033023828468
   20     0.00000082203928     0.01027935930952
   21     0.00000000000000     0.00000087490567
   22     0.00000087490567     0.00000000000000



  Atomic Valences: 

 #  #
 Irrep: 1
      1:    5.087150902416886
      2:    4.423451763942140
      3:    4.743634045263240
      4:    4.473282241900046
      5:    4.246825877702494
      6:    4.481979841640668
      7:    4.456512588498349
      8:    4.452308458291667
      9:    4.455915448976618
     10:    0.983773709870576
     11:    0.994739364205472
     12:    4.156414125002604
     13:    2.846680238247697
     14:    0.994455074901177
     15:    0.995088575454350
     16:    1.005067103925377
     17:    0.990736879881241
     18:    0.991022670934312
     19:    0.993063327887728
     20:    0.993218050801908
     21:    0.990951186253474
     22:    0.993434559040967


    Psi4 stopped on: Wednesday, 08 June 2022 12:59PM
    Psi4 wall time for execution: 0:01:11.67

*** Psi4 exiting successfully. Buy a developer a beer!
