
    -----------------------------------------------------------------------
          Psi4: An Open-Source Ab Initio Electronic Structure Package
                               Psi4 1.5 release

                         Git: Rev {HEAD} e9f4d6d 


    D. G. A. Smith, L. A. Burns, A. C. Simmonett, R. M. Parrish,
    M. C. Schieber, R. Galvelis, P. Kraus, H. Kruse, R. Di Remigio,
    A. Alenaizan, A. M. James, S. Lehtola, J. P. Misiewicz, M. Scheurer,
    R. A. Shaw, J. B. Schriber, Y. Xie, Z. L. Glick, D. A. Sirianni,
    J. S. O'Brien, J. M. Waldrop, A. Kumar, E. G. Hohenstein,
    B. P. Pritchard, B. R. Brooks, H. F. Schaefer III, A. Yu. Sokolov,
    K. Patkowski, A. E. DePrince III, U. Bozkaya, R. A. King,
    F. A. Evangelista, J. M. Turney, T. D. Crawford, C. D. Sherrill,
    J. Chem. Phys. 152(18) 184108 (2020). https://doi.org/10.1063/5.0006002

                            Additional Code Authors
    E. T. Seidl, C. L. Janssen, E. F. Valeev, M. L. Leininger,
    J. F. Gonthier, R. M. Richard, H. R. McAlexander, M. Saitow, X. Wang,
    P. Verma, M. H. Lechner, and A. Jiang

             Previous Authors, Complete List of Code Contributors,
                       and Citations for Specific Modules
    https://github.com/psi4/psi4/blob/master/codemeta.json
    https://github.com/psi4/psi4/graphs/contributors
    http://psicode.org/psi4manual/master/introduction.html#citing-psifour

    -----------------------------------------------------------------------


    Psi4 started on: Wednesday, 08 June 2022 12:56PM

    Process ID: 1112016
    Host:       node74.bme.utexas.edu
    PSIDATADIR: /home/bdw2292/miniconda3/envs/newamoebamdpoltype/share/psi4
    Memory:     500.0 MiB
    Threads:    1
    
  ==> Input File <==

--------------------------------------------------------------------------
molecule { 
0 1
 C    1.914775   -0.564787   -0.304886
 N    0.800622    0.076264   -0.814299
 C   -0.407711    0.154858   -0.046624
 C   -0.985148   -0.994572    0.496328
 C    0.859955    0.833660   -2.067823
 C   -1.037001    1.390262    0.121060
 C   -2.177587   -0.900682    1.206838
 C   -2.811592    0.330445    1.368692
 C   -2.238119    1.475196    0.821062
 H   -0.488673   -1.944560    0.380864
 H   -0.586180    2.285268   -0.286414
 C    3.177755   -0.502443   -1.130014
 O    1.893180   -1.169784    0.780192
 H   -0.153449    0.990399   -2.427131
 H    1.340712    1.807807   -1.944165
 H    1.400183    0.275930   -2.829452
 H   -2.613917   -1.794836    1.630837
 H   -2.717836    2.436914    0.944406
 H    3.075753   -1.070974   -2.056188
 H    3.453085    0.519039   -1.391872
 H   -3.740867    0.396728    1.917826
 H    3.971831   -0.945418   -0.539083
}
memory 8.166666666666666GB
set_num_threads(2)
psi4_io.set_default_path("/scratch/bdw2292/Psi4-3_24_Index_0-farH_in17")
set freeze_core True
E, wfn = energy('wb97x-d/6-311+G*',return_wfn=True)
oeprop(wfn,"WIBERG_LOWDIN_INDICES")
clean()
--------------------------------------------------------------------------

  Memory set to   7.606 GiB by Python driver.
  Threads set to 2 by Python driver.

Scratch directory: /scratch/bdw2292/Psi4-3_24_Index_0-farH_in17/

Scratch directory: /scratch/bdw2292/Psi4-3_24_Index_0-farH_in17/

*** tstart() called on node74.bme.utexas.edu
*** at Wed Jun  8 12:56:02 2022

   => Loading Basis Set <=

    Name: 6-311+G*
    Role: ORBITAL
    Keyword: BASIS
    atoms 1, 3-9, 12   entry C          line   130 file /home/bdw2292/miniconda3/envs/newamoebamdpoltype/share/psi4/basis/6-311pgs.gbs 
    atoms 2            entry N          line   151 file /home/bdw2292/miniconda3/envs/newamoebamdpoltype/share/psi4/basis/6-311pgs.gbs 
    atoms 10-11, 14-22 entry H          line    47 file /home/bdw2292/miniconda3/envs/newamoebamdpoltype/share/psi4/basis/6-311pgs.gbs 
    atoms 13           entry O          line   172 file /home/bdw2292/miniconda3/envs/newamoebamdpoltype/share/psi4/basis/6-311pgs.gbs 

   => WB97X-D: Empirical Dispersion <=

    Chai and Head-Gordon Dispersion Correction
    Chai, J.-D.; Head-Gordon, M. (2010), J. Chem. Phys., 132: 6615-6620

        s6 =       1.000000


         ---------------------------------------------------------
                                   SCF
               by Justin Turney, Rob Parrish, Andy Simmonett
                          and Daniel G. A. Smith
                              RKS Reference
                        2 Threads,   7788 MiB Core
         ---------------------------------------------------------

  ==> Geometry <==

    Molecular point group: c1
    Full point group: C1

    Geometry (in Angstrom), charge = 0, multiplicity = 1:

       Center              X                  Y                   Z               Mass       
    ------------   -----------------  -----------------  -----------------  -----------------
         C            1.914775012117    -0.564787062729    -0.304885940601    12.000000000000
         N            0.800622012117     0.076263937271    -0.814298940601    14.003074004430
         C           -0.407710987883     0.154857937271    -0.046623940601    12.000000000000
         C           -0.985147987883    -0.994572062729     0.496328059399    12.000000000000
         C            0.859955012117     0.833659937271    -2.067822940601    12.000000000000
         C           -1.037000987883     1.390261937271     0.121060059399    12.000000000000
         C           -2.177586987883    -0.900682062729     1.206838059399    12.000000000000
         C           -2.811591987883     0.330444937271     1.368692059399    12.000000000000
         C           -2.238118987883     1.475195937271     0.821062059399    12.000000000000
         H           -0.488672987883    -1.944560062729     0.380864059399     1.007825032230
         H           -0.586179987883     2.285267937271    -0.286413940601     1.007825032230
         C            3.177755012117    -0.502443062729    -1.130013940601    12.000000000000
         O            1.893180012117    -1.169784062729     0.780192059399    15.994914619570
         H           -0.153448987883     0.990398937271    -2.427130940601     1.007825032230
         H            1.340712012117     1.807806937271    -1.944164940601     1.007825032230
         H            1.400183012117     0.275929937271    -2.829451940601     1.007825032230
         H           -2.613916987883    -1.794836062729     1.630837059399     1.007825032230
         H           -2.717835987883     2.436913937271     0.944406059399     1.007825032230
         H            3.075753012117    -1.070974062729    -2.056187940601     1.007825032230
         H            3.453085012117     0.519038937271    -1.391871940601     1.007825032230
         H           -3.740866987883     0.396727937271     1.917826059399     1.007825032230
         H            3.971831012117    -0.945418062729    -0.539082940601     1.007825032230

  Running in c1 symmetry.

  Rotational constants: A =      0.08097  B =      0.02474  C =      0.02061 [cm^-1]
  Rotational constants: A =   2427.43900  B =    741.72065  C =    617.94858 [MHz]
  Nuclear repulsion =  588.644366945261709

  Charge       = 0
  Multiplicity = 1
  Electrons    = 80
  Nalpha       = 40
  Nbeta        = 40

  ==> Algorithm <==

  SCF Algorithm Type is DF.
  DIIS enabled.
  MOM disabled.
  Fractional occupation disabled.
  Guess Type is SAD.
  Energy threshold   = 1.00e-06
  Density threshold  = 1.00e-06
  Integral threshold = 1.00e-12

  ==> Primary Basis <==

  Basis Set: 6-311+G*
    Blend: 6-311+G*
    Number of shells: 143
    Number of basis functions: 275
    Number of Cartesian functions: 286
    Spherical Harmonics?: true
    Max angular momentum: 2

  ==> DFT Potential <==

   => LibXC <=

    Version 5.1.5
    S. Lehtola, C. Steigemann, M. J. Oliveira, and M. A. Marques, SoftwareX 7, 1 (2018) (10.1016/j.softx.2017.11.002)

   => Composite Functional: WB97X-D <= 

    wB97X-D Hyb-GGA Exchange-Correlation Functional

    J.-D. Chai and M. Head-Gordon, Phys. Chem. Chem. Phys. 10, 6615 (2008) (10.1039/B810189B)

    Deriv               =              1
    GGA                 =           TRUE
    Meta                =          FALSE

    Exchange Hybrid     =           TRUE
    MP2 Hybrid          =          FALSE

   => Exchange-Correlation Functionals <=

    1.0000   wB97X-D range-separated functional

   => Exact (HF) Exchange <=

    0.7780            HF,LR [omega = 0.2000]
    0.2220               HF 

   => LibXC Density Thresholds  <==

    XC_HYB_GGA_XC_WB97X_D:  1.00E-14 

   => Molecular Quadrature <=

    Radial Scheme          =       TREUTLER
    Pruning Scheme         =           NONE
    Nuclear Scheme         =       TREUTLER

    BS radius alpha        =              1
    Pruning alpha          =              1
    Radial Points          =             75
    Spherical Points       =            302
    Total Points           =         462690
    Total Blocks           =           3407
    Max Points             =            256
    Max Functions          =            251
    Weights Tolerance      =       1.00E-15

   => Loading Basis Set <=

    Name: (6-311+G* AUX)
    Role: JKFIT
    Keyword: DF_BASIS_SCF
    atoms 1, 3-9, 12   entry C          line   200 file /home/bdw2292/miniconda3/envs/newamoebamdpoltype/share/psi4/basis/heavy-aug-cc-pvtz-jkfit.gbs 
    atoms 2            entry N          line   262 file /home/bdw2292/miniconda3/envs/newamoebamdpoltype/share/psi4/basis/heavy-aug-cc-pvtz-jkfit.gbs 
    atoms 10-11, 14-22 entry H          line   116 file /home/bdw2292/miniconda3/envs/newamoebamdpoltype/share/psi4/basis/heavy-aug-cc-pvtz-jkfit.gbs 
    atoms 13           entry O          line   324 file /home/bdw2292/miniconda3/envs/newamoebamdpoltype/share/psi4/basis/heavy-aug-cc-pvtz-jkfit.gbs 

  ==> Integral Setup <==

  DFHelper Memory: AOs need 2.321 GiB; user supplied 3.244 GiB. Using in-core AOs.

  ==> MemDFJK: Density-Fitted J/K Matrices <==

    J tasked:                   Yes
    K tasked:                   Yes
    wK tasked:                  Yes
    Omega:                2.000E-01
    OpenMP threads:               2
    Memory [MiB]:              3321
    Algorithm:                 Core
    Schwarz Cutoff:           1E-12
    Mask sparsity (%):       8.1640
    Fitting Condition:        1E-10

   => Auxiliary Basis Set <=

  Basis Set: (6-311+G* AUX)
    Blend: HEAVY-AUG-CC-PVTZ-JKFIT
    Number of shells: 440
    Number of basis functions: 1474
    Number of Cartesian functions: 1826
    Spherical Harmonics?: true
    Max angular momentum: 4

  Cached 100.0% of DFT collocation blocks in 2.460 [GiB].

  Minimum eigenvalue in the overlap matrix is 2.0692853062E-06.
  Reciprocal condition number of the overlap matrix is 1.4755642408E-07.
    Using symmetric orthogonalization.

  ==> Pre-Iterations <==

  SCF Guess: Superposition of Atomic Densities via on-the-fly atomic UHF (no occupation information).

   -------------------------
    Irrep   Nso     Nmo    
   -------------------------
     A        275     275 
   -------------------------
    Total     275     275
   -------------------------

  ==> Iterations <==

                           Total Energy        Delta E     RMS |[F,P]|

   @DF-RKS iter SAD:  -478.78036221277415   -4.78780e+02   0.00000e+00 
   @DF-RKS iter   1:  -478.98654197238739   -2.06180e-01   3.78300e-03 DIIS
   @DF-RKS iter   2:  -479.17555702002363   -1.89015e-01   3.31163e-03 DIIS
   @DF-RKS iter   3:  -479.49596399992657   -3.20407e-01   8.13039e-04 DIIS
   @DF-RKS iter   4:  -479.51315305493836   -1.71891e-02   1.96049e-04 DIIS
   @DF-RKS iter   5:  -479.51432414273518   -1.17109e-03   5.45771e-05 DIIS
   @DF-RKS iter   6:  -479.51441618255211   -9.20398e-05   2.08020e-05 DIIS
   @DF-RKS iter   7:  -479.51443036495158   -1.41824e-05   3.97030e-06 DIIS
   @DF-RKS iter   8:  -479.51443114826878   -7.83317e-07   1.94955e-06 DIIS
   @DF-RKS iter   9:  -479.51443134582678   -1.97558e-07   4.67437e-07 DIIS
  Energy and wave function converged.


  ==> Post-Iterations <==

   Electrons on quadrature grid:
      Ntotal   =   79.9999893013 ; deviation = -1.070e-05 

    Orbital Energies [Eh]
    ---------------------

    Doubly Occupied:                                                      

       1A    -19.209658     2A    -14.476401     3A    -10.394765  
       4A    -10.333825     5A    -10.330018     6A    -10.293923  
       7A    -10.292905     8A    -10.291071     9A    -10.290197  
      10A    -10.288871    11A    -10.287723    12A     -1.134146  
      13A     -1.049177    14A     -0.958626    15A     -0.868475  
      16A     -0.854030    17A     -0.836855    18A     -0.809261  
      19A     -0.722567    20A     -0.706844    21A     -0.654513  
      22A     -0.608870    23A     -0.583844    24A     -0.574720  
      25A     -0.573666    26A     -0.539506    27A     -0.536238  
      28A     -0.516680    29A     -0.512257    30A     -0.497842  
      31A     -0.495024    32A     -0.485772    33A     -0.464947  
      34A     -0.449303    35A     -0.442799    36A     -0.434118  
      37A     -0.362867    38A     -0.342590    39A     -0.329020  
      40A     -0.305597  

    Virtual:                                                              

      41A      0.045715    42A      0.052970    43A      0.055904  
      44A      0.067896    45A      0.075993    46A      0.081526  
      47A      0.086780    48A      0.090700    49A      0.095509  
      50A      0.103757    51A      0.110235    52A      0.118644  
      53A      0.120499    54A      0.122588    55A      0.135630  
      56A      0.141497    57A      0.147923    58A      0.150065  
      59A      0.159726    60A      0.163590    61A      0.178297  
      62A      0.181929    63A      0.187544    64A      0.193113  
      65A      0.197322    66A      0.202624    67A      0.211295  
      68A      0.216585    69A      0.221350    70A      0.226150  
      71A      0.227785    72A      0.237144    73A      0.242993  
      74A      0.250229    75A      0.256664    76A      0.263609  
      77A      0.264519    78A      0.266484    79A      0.273129  
      80A      0.275282    81A      0.279512    82A      0.286373  
      83A      0.289993    84A      0.296135    85A      0.300549  
      86A      0.303594    87A      0.306533    88A      0.313258  
      89A      0.317696    90A      0.322809    91A      0.327233  
      92A      0.331046    93A      0.346649    94A      0.361796  
      95A      0.371847    96A      0.384843    97A      0.387856  
      98A      0.394084    99A      0.404992   100A      0.411682  
     101A      0.418337   102A      0.422978   103A      0.425716  
     104A      0.449332   105A      0.456500   106A      0.481553  
     107A      0.485302   108A      0.514194   109A      0.517488  
     110A      0.525530   111A      0.552911   112A      0.561478  
     113A      0.594784   114A      0.601594   115A      0.611741  
     116A      0.616026   117A      0.621951   118A      0.629934  
     119A      0.634725   120A      0.652930   121A      0.665777  
     122A      0.670666   123A      0.686667   124A      0.701373  
     125A      0.709759   126A      0.724887   127A      0.732254  
     128A      0.735083   129A      0.747196   130A      0.751986  
     131A      0.759179   132A      0.769753   133A      0.786614  
     134A      0.787502   135A      0.793459   136A      0.804656  
     137A      0.804841   138A      0.817457   139A      0.826643  
     140A      0.839058   141A      0.854561   142A      0.880270  
     143A      0.901666   144A      0.921591   145A      0.927210  
     146A      0.934305   147A      0.940812   148A      0.950630  
     149A      0.965038   150A      0.971543   151A      0.992002  
     152A      1.013832   153A      1.027112   154A      1.067160  
     155A      1.086414   156A      1.114122   157A      1.128632  
     158A      1.159088   159A      1.209191   160A      1.216035  
     161A      1.240025   162A      1.256475   163A      1.268809  
     164A      1.283883   165A      1.299222   166A      1.321492  
     167A      1.327583   168A      1.355779   169A      1.370287  
     170A      1.386994   171A      1.425031   172A      1.500261  
     173A      1.520249   174A      1.571622   175A      1.586782  
     176A      1.604029   177A      1.618260   178A      1.636424  
     179A      1.652590   180A      1.662001   181A      1.687381  
     182A      1.708260   183A      1.728486   184A      1.733430  
     185A      1.775758   186A      1.802005   187A      1.822316  
     188A      1.838139   189A      1.860934   190A      1.875869  
     191A      1.880307   192A      1.908289   193A      1.915145  
     194A      1.935179   195A      1.987453   196A      2.018038  
     197A      2.030219   198A      2.041681   199A      2.084057  
     200A      2.091494   201A      2.113190   202A      2.153383  
     203A      2.219530   204A      2.272427   205A      2.314323  
     206A      2.371684   207A      2.387288   208A      2.408339  
     209A      2.421212   210A      2.487386   211A      2.490548  
     212A      2.504277   213A      2.527150   214A      2.577250  
     215A      2.612193   216A      2.634889   217A      2.641903  
     218A      2.657807   219A      2.693007   220A      2.708389  
     221A      2.769802   222A      2.782899   223A      2.844370  
     224A      2.857632   225A      2.883998   226A      2.930969  
     227A      2.937979   228A      2.968198   229A      3.007718  
     230A      3.013797   231A      3.040343   232A      3.052559  
     233A      3.083185   234A      3.166078   235A      3.189369  
     236A      3.230640   237A      3.255140   238A      3.290296  
     239A      3.325052   240A      3.369258   241A      3.407182  
     242A      3.408738   243A      3.421437   244A      3.447994  
     245A      3.458824   246A      3.469856   247A      3.485276  
     248A      3.582244   249A      3.625971   250A      3.688690  
     251A      3.739901   252A      3.760397   253A      3.868947  
     254A      3.930481   255A      4.078057   256A      4.127766  
     257A      4.146748   258A      4.160800   259A      4.879240  
     260A      4.896745   261A      5.066581   262A      5.209491  
     263A      5.348639   264A      5.878068   265A     23.484226  
     266A     23.671563   267A     23.753969   268A     23.954141  
     269A     23.978144   270A     24.006453   271A     24.165241  
     272A     24.180784   273A     24.283167   274A     35.681091  
     275A     50.150488  

    Final Occupation by Irrep:
              A 
    DOCC [    40 ]

  @DF-RKS Final Energy:  -479.51443134582678

   => Energetics <=

    Nuclear Repulsion Energy =            588.6443669452617087
    One-Electron Energy =               -1816.0720314094191963
    Two-Electron Energy =                 795.0162749710692651
    DFT Exchange-Correlation Energy =     -47.0901878383848498
    Empirical Dispersion Energy =          -0.0128540143536551
    VV10 Nonlocal Energy =                  0.0000000000000000
    Total Energy =                       -479.5144313458267220

Computation Completed


Properties will be evaluated at   0.000000,   0.000000,   0.000000 [a0]

Properties computed using the SCF density matrix

  Nuclear Dipole Moment: [e a0]
     X:     2.7635      Y:     2.7656      Z:    -6.1815

  Electronic Dipole Moment: [e a0]
     X:    -2.9370      Y:    -1.9805      Z:     4.8391

  Dipole Moment: [e a0]
     X:    -0.1735      Y:     0.7851      Z:    -1.3425     Total:     1.5648

  Dipole Moment: [D]
     X:    -0.4409      Y:     1.9955      Z:    -3.4122     Total:     3.9773


*** tstop() called on node74.bme.utexas.edu at Wed Jun  8 12:57:13 2022
Module time:
	user time   =     128.89 seconds =       2.15 minutes
	system time =       8.14 seconds =       0.14 minutes
	total time  =         71 seconds =       1.18 minutes
Total time:
	user time   =     128.89 seconds =       2.15 minutes
	system time =       8.14 seconds =       0.14 minutes
	total time  =         71 seconds =       1.18 minutes


Properties will be evaluated at   0.000000,   0.000000,   0.000000 [a0]
OEProp: No title given, name of density matrix used for the following properties is 'SCF density'


  Wiberg Bond Indices using Orthogonal Lowdin Orbitals:

  Irrep: 1 Size: 22 x 22

                 1                   2                   3                   4                   5

    1     0.00000000000000     1.33618442743583     0.10237549318716     0.04263648381979     0.10668257265890
    2     1.33618442743583     0.00000000000000     1.10938632291882     0.11667967199211     1.15764768794554
    3     0.10237549318716     1.10938632291882     0.00000000000000     1.40288547154129     0.10470210973004
    4     0.04263648381979     0.11667967199211     1.40288547154129     0.00000000000000     0.02182499548615
    5     0.10668257265890     1.15764768794554     0.10470210973004     0.02182499548615     0.00000000000000
    6     0.02789477838633     0.11997585726742     1.41771696376123     0.12789613621663     0.05395959553291
    7     0.00471156990927     0.01603611329325     0.13689306839478     1.52371819787780     0.00330536124720
    8     0.00622961138791     0.01147652981838     0.13689370915047     0.13765712726816     0.00389166288926
    9     0.00367098320686     0.01581409557377     0.13524898037400     0.14390550226358     0.00643339016746
   10     0.00873328434925     0.01484596042139     0.05442539333133     0.80535086666246     0.00143639670181
   11     0.00205828125021     0.01630895724453     0.05560653172993     0.00938429551436     0.01400267575852
   12     1.10192994595670     0.11458605442594     0.01950841374053     0.00572206398833     0.06509255015122
   13     2.18611478967952     0.23835638805663     0.05531330710225     0.05893572887617     0.02706417587042
   14     0.00910537927422     0.04484599228871     0.01940479445128     0.00246783832047     0.87766576779372
   15     0.01504979297539     0.04972208733059     0.00744958553402     0.00084079351648     0.88437390636806
   16     0.01533474780786     0.04607469743232     0.00843075949381     0.00095539806882     0.88229641018468
   17     0.00021092199861     0.00085502466486     0.01087008409183     0.06030523180023     0.00037774191229
   18     0.00038444851287     0.00088140784526     0.01072058998561     0.00245365160358     0.00023140773514
   19     0.04833339217674     0.01234480791995     0.00076399312669     0.00039083665212     0.01018413133405
   20     0.04677474505588     0.01348528461430     0.00099274035105     0.00042202639341     0.01423278692733
   21     0.00005986023022     0.00023385662955     0.00290879982351     0.01113499669913     0.00009113922464
   22     0.05076453361754     0.00614620619717     0.00120449077512     0.00037006275957     0.00319614567109

                 6                   7                   8                   9                  10

    1     0.02789477838633     0.00471156990927     0.00622961138791     0.00367098320686     0.00873328434925
    2     0.11997585726742     0.01603611329325     0.01147652981838     0.01581409557377     0.01484596042139
    3     1.41771696376123     0.13689306839478     0.13689370915047     0.13524898037400     0.05442539333133
    4     0.12789613621663     1.52371819787780     0.13765712726816     0.14390550226358     0.80535086666246
    5     0.05395959553291     0.00330536124720     0.00389166288926     0.00643339016746     0.00143639670181
    6     0.00000000000000     0.14313814727778     0.13808190128167     1.51607690099359     0.00914143214385
    7     0.14313814727778     0.00000000000000     1.51340448763142     0.13770722480032     0.05543503455959
    8     0.13808190128167     1.51340448763142     0.00000000000000     1.52455914008769     0.01048796885678
    9     1.51607690099359     0.13770722480032     1.52455914008769     0.00000000000000     0.00232933148464
   10     0.00914143214385     0.05543503455959     0.01048796885678     0.00232933148464     0.00000000000000
   11     0.81122628124141     0.00237981653505     0.01061543379940     0.05535784820848     0.00037972406986
   12     0.00347073317581     0.00082272387204     0.00063856682205     0.00067784561955     0.00080941598264
   13     0.01120215689688     0.00842999530527     0.00386278674565     0.00284195565583     0.01292475025974
   14     0.01321097651303     0.00053579520430     0.00051603836761     0.00134235930740     0.00002968297792
   15     0.00575561333551     0.00021844757996     0.00026939870747     0.00033887616257     0.00008051451441
   16     0.00223854555121     0.00020306019331     0.00050977385204     0.00035920822371     0.00000706538582
   17     0.00247670700212     0.83374639824587     0.05883036383595     0.01137831377866     0.00528195693418
   18     0.06048247383905     0.01140492225950     0.05879654469654     0.83411937088724     0.00022031013289
   19     0.00040327294035     0.00005242179806     0.00009065083907     0.00009184838098     0.00002929320814
   20     0.00037480749673     0.00007351794685     0.00014636944571     0.00004891826222     0.00009198646559
   21     0.01130208009168     0.05898716584412     0.83589164141505     0.05929265536672     0.00023065016131
   22     0.00032010660454     0.00007822655236     0.00004955173552     0.00006559306252     0.00008389940391

                11                  12                  13                  14                  15

    1     0.00205828125021     1.10192994595670     2.18611478967952     0.00910537927422     0.01504979297539
    2     0.01630895724453     0.11458605442594     0.23835638805663     0.04484599228871     0.04972208733059
    3     0.05560653172993     0.01950841374053     0.05531330710225     0.01940479445128     0.00744958553402
    4     0.00938429551436     0.00572206398833     0.05893572887617     0.00246783832047     0.00084079351648
    5     0.01400267575852     0.06509255015122     0.02706417587042     0.87766576779372     0.88437390636806
    6     0.81122628124141     0.00347073317581     0.01120215689688     0.01321097651303     0.00575561333551
    7     0.00237981653505     0.00082272387204     0.00842999530527     0.00053579520430     0.00021844757996
    8     0.01061543379940     0.00063856682205     0.00386278674565     0.00051603836761     0.00026939870747
    9     0.05535784820848     0.00067784561955     0.00284195565583     0.00134235930740     0.00033887616257
   10     0.00037972406986     0.00080941598264     0.01292475025974     0.00002968297792     0.00008051451441
   11     0.00000000000000     0.00025758641126     0.00016991224572     0.00134431002889     0.00087752310115
   12     0.00025758641126     0.00000000000000     0.15879972269983     0.00229912126628     0.00721402811757
   13     0.00016991224572     0.15879972269983     0.00000000000000     0.00187845559895     0.00415450170215
   14     0.00134431002889     0.00229912126628     0.00187845559895     0.00000000000000     0.00798435907576
   15     0.00087752310115     0.00721402811757     0.00415450170215     0.00798435907576     0.00000000000000
   16     0.00028527712323     0.01674881558214     0.00185863785131     0.01023520919916     0.00772782532028
   17     0.00022980131928     0.00002958385575     0.00021259984881     0.00004793256442     0.00000841967526
   18     0.00531744467356     0.00007031088127     0.00008766221550     0.00001520779373     0.00003990774477
   19     0.00008138241083     0.88227800904036     0.01538137717816     0.00022168852471     0.00059590848978
   20     0.00000209775604     0.88255649189190     0.01312458931039     0.00044997437646     0.00090247665357
   21     0.00022063697995     0.00002664046877     0.00006469694515     0.00001645117342     0.00003308406442
   22     0.00005269577104     0.88906985298741     0.02020922549228     0.00021447610450     0.00017046661501

                16                  17                  18                  19                  20

    1     0.01533474780786     0.00021092199861     0.00038444851287     0.04833339217674     0.04677474505588
    2     0.04607469743232     0.00085502466486     0.00088140784526     0.01234480791995     0.01348528461430
    3     0.00843075949381     0.01087008409183     0.01072058998561     0.00076399312669     0.00099274035105
    4     0.00095539806882     0.06030523180023     0.00245365160358     0.00039083665212     0.00042202639341
    5     0.88229641018468     0.00037774191229     0.00023140773514     0.01018413133405     0.01423278692733
    6     0.00223854555121     0.00247670700212     0.06048247383905     0.00040327294035     0.00037480749673
    7     0.00020306019331     0.83374639824587     0.01140492225950     0.00005242179806     0.00007351794685
    8     0.00050977385204     0.05883036383595     0.05879654469654     0.00009065083907     0.00014636944571
    9     0.00035920822371     0.01137831377866     0.83411937088724     0.00009184838098     0.00004891826222
   10     0.00000706538582     0.00528195693418     0.00022031013289     0.00002929320814     0.00009198646559
   11     0.00028527712323     0.00022980131928     0.00531744467356     0.00008138241083     0.00000209775604
   12     0.01674881558214     0.00002958385575     0.00007031088127     0.88227800904036     0.88255649189190
   13     0.00185863785131     0.00021259984881     0.00008766221550     0.01538137717816     0.01312458931039
   14     0.01023520919916     0.00004793256442     0.00001520779373     0.00022168852471     0.00044997437646
   15     0.00772782532028     0.00000841967526     0.00003990774477     0.00059590848978     0.00090247665357
   16     0.00000000000000     0.00000500932690     0.00001489824135     0.00223962205752     0.00222791276559
   17     0.00000500932690     0.00000000000000     0.00027512454030     0.00000506397476     0.00000254997319
   18     0.00001489824135     0.00027512454030     0.00000000000000     0.00000400605211     0.00000434589887
   19     0.00223962205752     0.00000506397476     0.00000400605211     0.00000000000000     0.00753114986748
   20     0.00222791276559     0.00000254997319     0.00000434589887     0.00753114986748     0.00000000000000
   21     0.00000388088783     0.00517357173979     0.00518347739231     0.00000099410306     0.00000416754599
   22     0.00065128123725     0.00000497828436     0.00001603363598     0.01010404322934     0.01022195360053

                21                  22

    1     0.00005986023022     0.05076453361754
    2     0.00023385662955     0.00614620619717
    3     0.00290879982351     0.00120449077512
    4     0.01113499669913     0.00037006275957
    5     0.00009113922464     0.00319614567109
    6     0.01130208009168     0.00032010660454
    7     0.05898716584412     0.00007822655236
    8     0.83589164141505     0.00004955173552
    9     0.05929265536672     0.00006559306252
   10     0.00023065016131     0.00008389940391
   11     0.00022063697995     0.00005269577104
   12     0.00002664046877     0.88906985298741
   13     0.00006469694515     0.02020922549228
   14     0.00001645117342     0.00021447610450
   15     0.00003308406442     0.00017046661501
   16     0.00000388088783     0.00065128123725
   17     0.00517357173979     0.00000497828436
   18     0.00518347739231     0.00001603363598
   19     0.00000099410306     0.01010404322934
   20     0.00000416754599     0.01022195360053
   21     0.00000000000000     0.00000068737281
   22     0.00000068737281     0.00000000000000



  Atomic Valences: 

 #  #
 Irrep: 1
      1:    5.115240042877057
      2:    4.441887431316316
      3:    4.793701602594727
      4:    4.475937377320622
      5:    4.238692611290436
      6:    4.476345467549726
      7:    4.451281696328124
      8:    4.452899258633795
      9:    4.451660341867798
     10:    0.982354918007492
     11:    0.986158513172707
     12:    4.152608476937357
     13:    2.820987415536614
     14:    0.993831810204930
     15:    0.993807516584173
     16:    0.998408035786137
     17:    0.990327379367423
     18:    0.990723546567439
     19:    0.991127893304253
     20:    0.993670892599090
     21:    0.990861134159415
     22:    0.992994510709855


    Psi4 stopped on: Wednesday, 08 June 2022 12:57PM
    Psi4 wall time for execution: 0:01:10.84

*** Psi4 exiting successfully. Buy a developer a beer!
