
    -----------------------------------------------------------------------
          Psi4: An Open-Source Ab Initio Electronic Structure Package
                               Psi4 1.5 release

                         Git: Rev {HEAD} e9f4d6d 


    D. G. A. Smith, L. A. Burns, A. C. Simmonett, R. M. Parrish,
    M. C. Schieber, R. Galvelis, P. Kraus, H. Kruse, R. Di Remigio,
    A. Alenaizan, A. M. James, S. Lehtola, J. P. Misiewicz, M. Scheurer,
    R. A. Shaw, J. B. Schriber, Y. Xie, Z. L. Glick, D. A. Sirianni,
    J. S. O'Brien, J. M. Waldrop, A. Kumar, E. G. Hohenstein,
    B. P. Pritchard, B. R. Brooks, H. F. Schaefer III, A. Yu. Sokolov,
    K. Patkowski, A. E. DePrince III, U. Bozkaya, R. A. King,
    F. A. Evangelista, J. M. Turney, T. D. Crawford, C. D. Sherrill,
    J. Chem. Phys. 152(18) 184108 (2020). https://doi.org/10.1063/5.0006002

                            Additional Code Authors
    E. T. Seidl, C. L. Janssen, E. F. Valeev, M. L. Leininger,
    J. F. Gonthier, R. M. Richard, H. R. McAlexander, M. Saitow, X. Wang,
    P. Verma, M. H. Lechner, and A. Jiang

             Previous Authors, Complete List of Code Contributors,
                       and Citations for Specific Modules
    https://github.com/psi4/psi4/blob/master/codemeta.json
    https://github.com/psi4/psi4/graphs/contributors
    http://psicode.org/psi4manual/master/introduction.html#citing-psifour

    -----------------------------------------------------------------------


    Psi4 started on: Wednesday, 08 June 2022 01:04PM

    Process ID: 1113414
    Host:       node74.bme.utexas.edu
    PSIDATADIR: /home/bdw2292/miniconda3/envs/newamoebamdpoltype/share/psi4
    Memory:     500.0 MiB
    Threads:    1
    
  ==> Input File <==

--------------------------------------------------------------------------
molecule { 
0 1
 C    1.999703   -0.149907   -0.029591
 N    0.857936    0.030319   -0.780361
 C   -0.420151    0.024528   -0.120847
 C   -1.044289   -1.183053    0.181897
 C    0.875854    0.400284   -2.196533
 C   -1.047492    1.231401    0.179699
 C   -2.297243   -1.182021    0.788462
 C   -2.930751    0.024061    1.084677
 C   -2.304509    1.230787    0.779645
 H   -0.536887   -2.109765   -0.044939
 H   -0.544422    2.162148   -0.045540
 C    3.319758   -0.023527   -0.751020
 O    1.946044   -0.406495    1.184566
 H   -0.077005    0.117216   -2.639641
 H    1.018810    1.475869   -2.341644
 H    1.663759   -0.131152   -2.727741
 H   -2.776723   -2.120223    1.031848
 H   -2.787959    2.168831    1.015768
 H    3.453756   -0.823678   -1.481818
 H    3.408474    0.929166   -1.275272
 H   -3.904308    0.023102    1.555374
 H    4.107722   -0.097337   -0.008169
}
memory 8.166666666666666GB
set_num_threads(2)
psi4_io.set_default_path("/scratch/bdw2292/Psi4-3_24_Index_0-farH_in17")
set freeze_core True
E, wfn = energy('wb97x-d/6-311+G*',return_wfn=True)
oeprop(wfn,"WIBERG_LOWDIN_INDICES")
clean()
--------------------------------------------------------------------------

  Memory set to   7.606 GiB by Python driver.
  Threads set to 2 by Python driver.

Scratch directory: /scratch/bdw2292/Psi4-3_24_Index_0-farH_in17/

Scratch directory: /scratch/bdw2292/Psi4-3_24_Index_0-farH_in17/

*** tstart() called on node74.bme.utexas.edu
*** at Wed Jun  8 13:04:32 2022

   => Loading Basis Set <=

    Name: 6-311+G*
    Role: ORBITAL
    Keyword: BASIS
    atoms 1, 3-9, 12   entry C          line   130 file /home/bdw2292/miniconda3/envs/newamoebamdpoltype/share/psi4/basis/6-311pgs.gbs 
    atoms 2            entry N          line   151 file /home/bdw2292/miniconda3/envs/newamoebamdpoltype/share/psi4/basis/6-311pgs.gbs 
    atoms 10-11, 14-22 entry H          line    47 file /home/bdw2292/miniconda3/envs/newamoebamdpoltype/share/psi4/basis/6-311pgs.gbs 
    atoms 13           entry O          line   172 file /home/bdw2292/miniconda3/envs/newamoebamdpoltype/share/psi4/basis/6-311pgs.gbs 

   => WB97X-D: Empirical Dispersion <=

    Chai and Head-Gordon Dispersion Correction
    Chai, J.-D.; Head-Gordon, M. (2010), J. Chem. Phys., 132: 6615-6620

        s6 =       1.000000


         ---------------------------------------------------------
                                   SCF
               by Justin Turney, Rob Parrish, Andy Simmonett
                          and Daniel G. A. Smith
                              RKS Reference
                        2 Threads,   7788 MiB Core
         ---------------------------------------------------------

  ==> Geometry <==

    Molecular point group: c1
    Full point group: C1

    Geometry (in Angstrom), charge = 0, multiplicity = 1:

       Center              X                  Y                   Z               Mass       
    ------------   -----------------  -----------------  -----------------  -----------------
         C            1.999703011098    -0.149906958875    -0.029590980495    12.000000000000
         N            0.857936011098     0.030319041125    -0.780360980495    14.003074004430
         C           -0.420150988902     0.024528041125    -0.120846980495    12.000000000000
         C           -1.044288988902    -1.183052958875     0.181897019505    12.000000000000
         C            0.875854011098     0.400284041125    -2.196532980495    12.000000000000
         C           -1.047491988902     1.231401041125     0.179699019505    12.000000000000
         C           -2.297242988902    -1.182020958875     0.788462019505    12.000000000000
         C           -2.930750988902     0.024061041125     1.084677019505    12.000000000000
         C           -2.304508988902     1.230787041125     0.779645019505    12.000000000000
         H           -0.536886988902    -2.109764958875    -0.044938980495     1.007825032230
         H           -0.544421988902     2.162148041125    -0.045539980495     1.007825032230
         C            3.319758011098    -0.023526958875    -0.751019980495    12.000000000000
         O            1.946044011098    -0.406494958875     1.184566019505    15.994914619570
         H           -0.077004988902     0.117216041125    -2.639640980495     1.007825032230
         H            1.018810011098     1.475869041125    -2.341643980495     1.007825032230
         H            1.663759011098    -0.131151958875    -2.727740980495     1.007825032230
         H           -2.776722988902    -2.120222958875     1.031848019505     1.007825032230
         H           -2.787958988902     2.168831041125     1.015768019505     1.007825032230
         H            3.453756011098    -0.823677958875    -1.481817980495     1.007825032230
         H            3.408474011098     0.929166041125    -1.275271980495     1.007825032230
         H           -3.904307988902     0.023102041125     1.555374019505     1.007825032230
         H            4.107722011098    -0.097336958875    -0.008168980495     1.007825032230

  Running in c1 symmetry.

  Rotational constants: A =      0.08015  B =      0.02357  C =      0.02200 [cm^-1]
  Rotational constants: A =   2402.96495  B =    706.65552  C =    659.40008 [MHz]
  Nuclear repulsion =  588.226672732764087

  Charge       = 0
  Multiplicity = 1
  Electrons    = 80
  Nalpha       = 40
  Nbeta        = 40

  ==> Algorithm <==

  SCF Algorithm Type is DF.
  DIIS enabled.
  MOM disabled.
  Fractional occupation disabled.
  Guess Type is SAD.
  Energy threshold   = 1.00e-06
  Density threshold  = 1.00e-06
  Integral threshold = 1.00e-12

  ==> Primary Basis <==

  Basis Set: 6-311+G*
    Blend: 6-311+G*
    Number of shells: 143
    Number of basis functions: 275
    Number of Cartesian functions: 286
    Spherical Harmonics?: true
    Max angular momentum: 2

  ==> DFT Potential <==

   => LibXC <=

    Version 5.1.5
    S. Lehtola, C. Steigemann, M. J. Oliveira, and M. A. Marques, SoftwareX 7, 1 (2018) (10.1016/j.softx.2017.11.002)

   => Composite Functional: WB97X-D <= 

    wB97X-D Hyb-GGA Exchange-Correlation Functional

    J.-D. Chai and M. Head-Gordon, Phys. Chem. Chem. Phys. 10, 6615 (2008) (10.1039/B810189B)

    Deriv               =              1
    GGA                 =           TRUE
    Meta                =          FALSE

    Exchange Hybrid     =           TRUE
    MP2 Hybrid          =          FALSE

   => Exchange-Correlation Functionals <=

    1.0000   wB97X-D range-separated functional

   => Exact (HF) Exchange <=

    0.7780            HF,LR [omega = 0.2000]
    0.2220               HF 

   => LibXC Density Thresholds  <==

    XC_HYB_GGA_XC_WB97X_D:  1.00E-14 

   => Molecular Quadrature <=

    Radial Scheme          =       TREUTLER
    Pruning Scheme         =           NONE
    Nuclear Scheme         =       TREUTLER

    BS radius alpha        =              1
    Pruning alpha          =              1
    Radial Points          =             75
    Spherical Points       =            302
    Total Points           =         463138
    Total Blocks           =           3394
    Max Points             =            256
    Max Functions          =            252
    Weights Tolerance      =       1.00E-15

   => Loading Basis Set <=

    Name: (6-311+G* AUX)
    Role: JKFIT
    Keyword: DF_BASIS_SCF
    atoms 1, 3-9, 12   entry C          line   200 file /home/bdw2292/miniconda3/envs/newamoebamdpoltype/share/psi4/basis/heavy-aug-cc-pvtz-jkfit.gbs 
    atoms 2            entry N          line   262 file /home/bdw2292/miniconda3/envs/newamoebamdpoltype/share/psi4/basis/heavy-aug-cc-pvtz-jkfit.gbs 
    atoms 10-11, 14-22 entry H          line   116 file /home/bdw2292/miniconda3/envs/newamoebamdpoltype/share/psi4/basis/heavy-aug-cc-pvtz-jkfit.gbs 
    atoms 13           entry O          line   324 file /home/bdw2292/miniconda3/envs/newamoebamdpoltype/share/psi4/basis/heavy-aug-cc-pvtz-jkfit.gbs 

  ==> Integral Setup <==

  DFHelper Memory: AOs need 2.323 GiB; user supplied 3.243 GiB. Using in-core AOs.

  ==> MemDFJK: Density-Fitted J/K Matrices <==

    J tasked:                   Yes
    K tasked:                   Yes
    wK tasked:                  Yes
    Omega:                2.000E-01
    OpenMP threads:               2
    Memory [MiB]:              3321
    Algorithm:                 Core
    Schwarz Cutoff:           1E-12
    Mask sparsity (%):       8.0793
    Fitting Condition:        1E-10

   => Auxiliary Basis Set <=

  Basis Set: (6-311+G* AUX)
    Blend: HEAVY-AUG-CC-PVTZ-JKFIT
    Number of shells: 440
    Number of basis functions: 1474
    Number of Cartesian functions: 1826
    Spherical Harmonics?: true
    Max angular momentum: 4

  Cached 100.0% of DFT collocation blocks in 2.461 [GiB].

  Minimum eigenvalue in the overlap matrix is 1.7975026381E-06.
  Reciprocal condition number of the overlap matrix is 1.2808983642E-07.
    Using symmetric orthogonalization.

  ==> Pre-Iterations <==

  SCF Guess: Superposition of Atomic Densities via on-the-fly atomic UHF (no occupation information).

   -------------------------
    Irrep   Nso     Nmo    
   -------------------------
     A        275     275 
   -------------------------
    Total     275     275
   -------------------------

  ==> Iterations <==

                           Total Energy        Delta E     RMS |[F,P]|

   @DF-RKS iter SAD:  -478.73340655034690   -4.78733e+02   0.00000e+00 
   @DF-RKS iter   1:  -478.98341555352710   -2.50009e-01   3.79348e-03 DIIS
   @DF-RKS iter   2:  -479.17032674298270   -1.86911e-01   3.33669e-03 DIIS
   @DF-RKS iter   3:  -479.49510855468696   -3.24782e-01   8.16378e-04 DIIS
   @DF-RKS iter   4:  -479.51239108302480   -1.72825e-02   1.92068e-04 DIIS
   @DF-RKS iter   5:  -479.51350001317314   -1.10893e-03   5.75720e-05 DIIS
   @DF-RKS iter   6:  -479.51360012308254   -1.00110e-04   2.12542e-05 DIIS
   @DF-RKS iter   7:  -479.51361488444513   -1.47614e-05   3.90528e-06 DIIS
   @DF-RKS iter   8:  -479.51361556338571   -6.78941e-07   1.84880e-06 DIIS
   @DF-RKS iter   9:  -479.51361572729252   -1.63907e-07   4.45703e-07 DIIS
  Energy and wave function converged.


  ==> Post-Iterations <==

   Electrons on quadrature grid:
      Ntotal   =   80.0000011793 ; deviation = 1.179e-06 

    Orbital Energies [Eh]
    ---------------------

    Doubly Occupied:                                                      

       1A    -19.204830     2A    -14.469208     3A    -10.389953  
       4A    -10.331202     5A    -10.327962     6A    -10.295072  
       7A    -10.294518     8A    -10.293993     9A    -10.293140  
      10A    -10.292688    11A    -10.288873    12A     -1.129700  
      13A     -1.044387    14A     -0.960503    15A     -0.867007  
      16A     -0.855561    17A     -0.836754    18A     -0.806073  
      19A     -0.719280    20A     -0.712171    21A     -0.654657  
      22A     -0.607850    23A     -0.582594    24A     -0.574445  
      25A     -0.571467    26A     -0.539189    27A     -0.536782  
      28A     -0.516918    29A     -0.513251    30A     -0.497599  
      31A     -0.492976    32A     -0.482607    33A     -0.459910  
      34A     -0.448623    35A     -0.444930    36A     -0.433414  
      37A     -0.343280    38A     -0.336784    39A     -0.331850  
      40A     -0.322751  

    Virtual:                                                              

      41A      0.048044    42A      0.050772    43A      0.054093  
      44A      0.067576    45A      0.075569    46A      0.079877  
      47A      0.084764    48A      0.089259    49A      0.093182  
      50A      0.105459    51A      0.107724    52A      0.118695  
      53A      0.120070    54A      0.125699    55A      0.132197  
      56A      0.138967    57A      0.146535    58A      0.152040  
      59A      0.159278    60A      0.166574    61A      0.176049  
      62A      0.181297    63A      0.186140    64A      0.192485  
      65A      0.198826    66A      0.201356    67A      0.208365  
      68A      0.211054    69A      0.218330    70A      0.223510  
      71A      0.226416    72A      0.239899    73A      0.243838  
      74A      0.247149    75A      0.258938    76A      0.261247  
      77A      0.263654    78A      0.268150    79A      0.272199  
      80A      0.274212    81A      0.278313    82A      0.286870  
      83A      0.288053    84A      0.291951    85A      0.295722  
      86A      0.301518    87A      0.308256    88A      0.312372  
      89A      0.322485    90A      0.326553    91A      0.329888  
      92A      0.342258    93A      0.345639    94A      0.357540  
      95A      0.373996    96A      0.389980    97A      0.394888  
      98A      0.399760    99A      0.404476   100A      0.411229  
     101A      0.417786   102A      0.429154   103A      0.437317  
     104A      0.466531   105A      0.477041   106A      0.484964  
     107A      0.496283   108A      0.508824   109A      0.520779  
     110A      0.536184   111A      0.553974   112A      0.563859  
     113A      0.590654   114A      0.593061   115A      0.607526  
     116A      0.616175   117A      0.622289   118A      0.630161  
     119A      0.633516   120A      0.654332   121A      0.662072  
     122A      0.671015   123A      0.679661   124A      0.696839  
     125A      0.701074   126A      0.711881   127A      0.735948  
     128A      0.746706   129A      0.755586   130A      0.757063  
     131A      0.761852   132A      0.778221   133A      0.781268  
     134A      0.785808   135A      0.794510   136A      0.801136  
     137A      0.804562   138A      0.810207   139A      0.825506  
     140A      0.840656   141A      0.853481   142A      0.882276  
     143A      0.904948   144A      0.919491   145A      0.922736  
     146A      0.936189   147A      0.938587   148A      0.947304  
     149A      0.962116   150A      0.983003   151A      0.998178  
     152A      1.012251   153A      1.025157   154A      1.063777  
     155A      1.094376   156A      1.116225   157A      1.132491  
     158A      1.163538   159A      1.207531   160A      1.215849  
     161A      1.238749   162A      1.266501   163A      1.277345  
     164A      1.287918   165A      1.300225   166A      1.316999  
     167A      1.336113   168A      1.341153   169A      1.357605  
     170A      1.409295   171A      1.426010   172A      1.513894  
     173A      1.531985   174A      1.574835   175A      1.582768  
     176A      1.607386   177A      1.611336   178A      1.632975  
     179A      1.659313   180A      1.667919   181A      1.693888  
     182A      1.703402   183A      1.723638   184A      1.743598  
     185A      1.793297   186A      1.813048   187A      1.822106  
     188A      1.833649   189A      1.858060   190A      1.869318  
     191A      1.876952   192A      1.914324   193A      1.916424  
     194A      1.938501   195A      1.999092   196A      2.015117  
     197A      2.022016   198A      2.051249   199A      2.078150  
     200A      2.085405   201A      2.131360   202A      2.145221  
     203A      2.194451   204A      2.303603   205A      2.324362  
     206A      2.346893   207A      2.360951   208A      2.396874  
     209A      2.451448   210A      2.487705   211A      2.490090  
     212A      2.503712   213A      2.532259   214A      2.579509  
     215A      2.620661   216A      2.632442   217A      2.636487  
     218A      2.677540   219A      2.706807   220A      2.739108  
     221A      2.781646   222A      2.787889   223A      2.819194  
     224A      2.861494   225A      2.871881   226A      2.919142  
     227A      2.949729   228A      2.970531   229A      3.007254  
     230A      3.015151   231A      3.019172   232A      3.055293  
     233A      3.096934   234A      3.166676   235A      3.201050  
     236A      3.234322   237A      3.249388   238A      3.270487  
     239A      3.331795   240A      3.365327   241A      3.403227  
     242A      3.408320   243A      3.418482   244A      3.439286  
     245A      3.461126   246A      3.469434   247A      3.498450  
     248A      3.556643   249A      3.633210   250A      3.692307  
     251A      3.732500   252A      3.762898   253A      3.867944  
     254A      3.953288   255A      4.092960   256A      4.121993  
     257A      4.141160   258A      4.168566   259A      4.885630  
     260A      4.899640   261A      5.049722   262A      5.212719  
     263A      5.358749   264A      5.880984   265A     23.497185  
     266A     23.689001   267A     23.747326   268A     23.962938  
     269A     23.977585   270A     24.007127   271A     24.173705  
     272A     24.176814   273A     24.284109   274A     35.693266  
     275A     50.157515  

    Final Occupation by Irrep:
              A 
    DOCC [    40 ]

  @DF-RKS Final Energy:  -479.51361572729252

   => Energetics <=

    Nuclear Repulsion Energy =            588.2266727327640865
    One-Electron Energy =               -1815.3065948425105489
    Two-Electron Energy =                 794.6658862815287421
    DFT Exchange-Correlation Energy =     -47.0867306569255177
    Empirical Dispersion Energy =          -0.0128492421494680
    VV10 Nonlocal Energy =                  0.0000000000000000
    Total Energy =                       -479.5136157272925743

Computation Completed


Properties will be evaluated at   0.000000,   0.000000,   0.000000 [a0]

Properties computed using the SCF density matrix

  Nuclear Dipole Moment: [e a0]
     X:     2.8429      Y:     1.4925      Z:    -6.5185

  Electronic Dipole Moment: [e a0]
     X:    -3.1530      Y:    -1.1419      Z:     5.0138

  Dipole Moment: [e a0]
     X:    -0.3101      Y:     0.3506      Z:    -1.5047     Total:     1.5758

  Dipole Moment: [D]
     X:    -0.7881      Y:     0.8910      Z:    -3.8246     Total:     4.0053


*** tstop() called on node74.bme.utexas.edu at Wed Jun  8 13:05:44 2022
Module time:
	user time   =     129.21 seconds =       2.15 minutes
	system time =       9.01 seconds =       0.15 minutes
	total time  =         72 seconds =       1.20 minutes
Total time:
	user time   =     129.21 seconds =       2.15 minutes
	system time =       9.01 seconds =       0.15 minutes
	total time  =         72 seconds =       1.20 minutes


Properties will be evaluated at   0.000000,   0.000000,   0.000000 [a0]
OEProp: No title given, name of density matrix used for the following properties is 'SCF density'


  Wiberg Bond Indices using Orthogonal Lowdin Orbitals:

  Irrep: 1 Size: 22 x 22

                 1                   2                   3                   4                   5

    1     0.00000000000000     1.34798571463680     0.10767897378258     0.03462674469006     0.10688983564929
    2     1.34798571463680     0.00000000000000     1.08717705049511     0.11979870243351     1.16117221099048
    3     0.10767897378258     1.08717705049511     0.00000000000000     1.41898976835463     0.10776661524991
    4     0.03462674469006     0.11979870243351     1.41898976835463     0.00000000000000     0.02912002388694
    5     0.10688983564929     1.16117221099048     0.10776661524991     0.02912002388694     0.00000000000000
    6     0.03101997402573     0.11856071856873     1.42360226348564     0.12954456219447     0.04006839934544
    7     0.00420420356563     0.01558133085797     0.13695943220962     1.52075543067023     0.00372499655306
    8     0.00444568215351     0.00851601816552     0.13922442835373     0.13839403726467     0.00480935380128
    9     0.00399673755250     0.01568559621454     0.13652907224173     0.14566327277961     0.00438872685649
   10     0.00590418567333     0.01750994268092     0.05654225733065     0.81154813988245     0.00308345268753
   11     0.00416352788170     0.01767466505097     0.05657083367954     0.00935733442387     0.00706074040703
   12     1.10186835707450     0.11585809034760     0.02030476487294     0.00457757376252     0.06180907541663
   13     2.18741422850039     0.24791753763304     0.06273109413231     0.02901595776858     0.02862316886907
   14     0.00949638937205     0.04679706996730     0.01978802371224     0.00529823008438     0.87949343257055
   15     0.01548721970928     0.05056290743536     0.00819078059602     0.00087695033232     0.88484967441572
   16     0.01501234746311     0.04660113898562     0.00868894387515     0.00104434891497     0.88344828431662
   17     0.00026587991990     0.00088188820394     0.01076902915411     0.06025984777704     0.00026762267398
   18     0.00035889954819     0.00090016213665     0.01070077793675     0.00240427124417     0.00022163566888
   19     0.04823786405958     0.01271202488651     0.00086462492941     0.00029867030728     0.00992732787406
   20     0.04734324928114     0.01378231310632     0.00105836115258     0.00034969350509     0.01302136103846
   21     0.00004550287908     0.00022265562474     0.00301997255684     0.01129816465869     0.00005452562236
   22     0.05058798007915     0.00618027972607     0.00123046002009     0.00033897367749     0.00302811365857

                 6                   7                   8                   9                  10

    1     0.03101997402573     0.00420420356563     0.00444568215351     0.00399673755250     0.00590418567333
    2     0.11856071856873     0.01558133085797     0.00851601816552     0.01568559621454     0.01750994268092
    3     1.42360226348564     0.13695943220962     0.13922442835373     0.13652907224173     0.05654225733065
    4     0.12954456219447     1.52075543067023     0.13839403726467     0.14566327277961     0.81154813988245
    5     0.04006839934544     0.00372499655306     0.00480935380128     0.00438872685649     0.00308345268753
    6     0.00000000000000     0.14533374900582     0.13836794209213     1.51708627401632     0.00936291169978
    7     0.14533374900582     0.00000000000000     1.51803801924843     0.13715723090386     0.05571009380754
    8     0.13836794209213     1.51803801924843     0.00000000000000     1.52239073990298     0.01074224133333
    9     1.51708627401632     0.13715723090386     1.52239073990298     0.00000000000000     0.00235884026094
   10     0.00936291169978     0.05571009380754     0.01074224133333     0.00235884026094     0.00000000000000
   11     0.81174674727915     0.00237311106800     0.01074687333170     0.05553579527715     0.00037063467462
   12     0.00402056409491     0.00074977787343     0.00063426834200     0.00065173057841     0.00062984172618
   13     0.01846351485001     0.00481850614163     0.00256384874049     0.00302785584442     0.00220610803820
   14     0.00653004548804     0.00049499085859     0.00057769067591     0.00062492996749     0.00013698931506
   15     0.00448258956234     0.00026545449760     0.00012772677928     0.00034297853677     0.00007370158074
   16     0.00165008596921     0.00020056853869     0.00046619326692     0.00031168961850     0.00003756172114
   17     0.00242397277847     0.83407814077903     0.05893876675556     0.01131411859436     0.00512983687833
   18     0.06031035699723     0.01132731395434     0.05896228384431     0.83416882270253     0.00024543334039
   19     0.00031290185502     0.00003636961528     0.00002346004197     0.00008156044661     0.00002481156694
   20     0.00033589562061     0.00006535296035     0.00005805190983     0.00003223507311     0.00007261547114
   21     0.01135791549496     0.05887474510378     0.83588266009370     0.05901229184741     0.00023188036512
   22     0.00033548651251     0.00006559060674     0.00008494593832     0.00005566474062     0.00003403051247

                11                  12                  13                  14                  15

    1     0.00416352788170     1.10186835707450     2.18741422850039     0.00949638937205     0.01548721970928
    2     0.01767466505097     0.11585809034760     0.24791753763304     0.04679706996730     0.05056290743536
    3     0.05657083367954     0.02030476487294     0.06273109413231     0.01978802371224     0.00819078059602
    4     0.00935733442387     0.00457757376252     0.02901595776858     0.00529823008438     0.00087695033232
    5     0.00706074040703     0.06180907541663     0.02862316886907     0.87949343257055     0.88484967441572
    6     0.81174674727915     0.00402056409491     0.01846351485001     0.00653004548804     0.00448258956234
    7     0.00237311106800     0.00074977787343     0.00481850614163     0.00049499085859     0.00026545449760
    8     0.01074687333170     0.00063426834200     0.00256384874049     0.00057769067591     0.00012772677928
    9     0.05553579527715     0.00065173057841     0.00302785584442     0.00062492996749     0.00034297853677
   10     0.00037063467462     0.00062984172618     0.00220610803820     0.00013698931506     0.00007370158074
   11     0.00000000000000     0.00048402465540     0.00054396602680     0.00022279293247     0.00035548809859
   12     0.00048402465540     0.00000000000000     0.15766753649565     0.00207164099684     0.00582394692102
   13     0.00054396602680     0.15766753649565     0.00000000000000     0.00219064013739     0.00459778248098
   14     0.00022279293247     0.00207164099684     0.00219064013739     0.00000000000000     0.00781447473948
   15     0.00035548809859     0.00582394692102     0.00459778248098     0.00781447473948     0.00000000000000
   16     0.00002026062356     0.01684286188679     0.00175108701291     0.00995859570862     0.00789287840416
   17     0.00024668544030     0.00004572019646     0.00012790202775     0.00003999005661     0.00000721865329
   18     0.00514035421108     0.00005802586993     0.00011631948131     0.00000894352135     0.00002901445805
   19     0.00006059688157     0.88362027509064     0.01485659730313     0.00021745864966     0.00045621678366
   20     0.00003191348578     0.88294219059234     0.01320225411106     0.00035340651158     0.00047368159614
   21     0.00022834303985     0.00002060249246     0.00002119462273     0.00000857260196     0.00001958049747
   22     0.00003222729883     0.89013972021945     0.01968954516832     0.00016321170081     0.00011241313319

                16                  17                  18                  19                  20

    1     0.01501234746311     0.00026587991990     0.00035889954819     0.04823786405958     0.04734324928114
    2     0.04660113898562     0.00088188820394     0.00090016213665     0.01271202488651     0.01378231310632
    3     0.00868894387515     0.01076902915411     0.01070077793675     0.00086462492941     0.00105836115258
    4     0.00104434891497     0.06025984777704     0.00240427124417     0.00029867030728     0.00034969350509
    5     0.88344828431662     0.00026762267398     0.00022163566888     0.00992732787406     0.01302136103846
    6     0.00165008596921     0.00242397277847     0.06031035699723     0.00031290185502     0.00033589562061
    7     0.00020056853869     0.83407814077903     0.01132731395434     0.00003636961528     0.00006535296035
    8     0.00046619326692     0.05893876675556     0.05896228384431     0.00002346004197     0.00005805190983
    9     0.00031168961850     0.01131411859436     0.83416882270253     0.00008156044661     0.00003223507311
   10     0.00003756172114     0.00512983687833     0.00024543334039     0.00002481156694     0.00007261547114
   11     0.00002026062356     0.00024668544030     0.00514035421108     0.00006059688157     0.00003191348578
   12     0.01684286188679     0.00004572019646     0.00005802586993     0.88362027509064     0.88294219059234
   13     0.00175108701291     0.00012790202775     0.00011631948131     0.01485659730313     0.01320225411106
   14     0.00995859570862     0.00003999005661     0.00000894352135     0.00021745864966     0.00035340651158
   15     0.00789287840416     0.00000721865329     0.00002901445805     0.00045621678366     0.00047368159614
   16     0.00000000000000     0.00000361338032     0.00000879923081     0.00218637787738     0.00212217939254
   17     0.00000361338032     0.00000000000000     0.00026684296915     0.00000780552506     0.00000444226783
   18     0.00000879923081     0.00026684296915     0.00000000000000     0.00000581823693     0.00000696775488
   19     0.00218637787738     0.00000780552506     0.00000581823693     0.00000000000000     0.00755323878019
   20     0.00212217939254     0.00000444226783     0.00000696775488     0.00755323878019     0.00000000000000
   21     0.00000654141311     0.00521708369538     0.00521250869620     0.00000171462211     0.00000353009398
   22     0.00062082913636     0.00000710320028     0.00001173959788     0.01009398703228     0.01015514160275

                21                  22

    1     0.00004550287908     0.05058798007915
    2     0.00022265562474     0.00618027972607
    3     0.00301997255684     0.00123046002009
    4     0.01129816465869     0.00033897367749
    5     0.00005452562236     0.00302811365857
    6     0.01135791549496     0.00033548651251
    7     0.05887474510378     0.00006559060674
    8     0.83588266009370     0.00008494593832
    9     0.05901229184741     0.00005566474062
   10     0.00023188036512     0.00003403051247
   11     0.00022834303985     0.00003222729883
   12     0.00002060249246     0.89013972021945
   13     0.00002119462273     0.01968954516832
   14     0.00000857260196     0.00016321170081
   15     0.00001958049747     0.00011241313319
   16     0.00000654141311     0.00062082913636
   17     0.00521708369538     0.00000710320028
   18     0.00521250869620     0.00001173959788
   19     0.00000171462211     0.01009398703228
   20     0.00000353009398     0.01015514160275
   21     0.00000000000000     0.00000050629191
   22     0.00000050629191     0.00000000000000



  Atomic Valences: 

 #  #
 Irrep: 1
      1:    5.127033497497512
      2:    4.452078018147676
      3:    4.818387528121595
      4:    4.473560698612987
      5:    4.232828577552358
      6:    4.474916870936529
      7:    4.450814408819615
      8:    4.453995232035593
      9:    4.450416163956347
     10:    0.981955510546812
     11:    0.982966915767978
     12:    4.150820589506123
     13:    2.801546645386161
     14:    0.992287519568357
     15:    0.992842679211460
     16:    0.998875186736476
     17:    0.990303510927149
     18:    0.990465291401029
     19:    0.991579702365256
     20:    0.992968075307684
     21:    0.990740492313836
     22:    0.992967949854104


    Psi4 stopped on: Wednesday, 08 June 2022 01:05PM
    Psi4 wall time for execution: 0:01:11.98

*** Psi4 exiting successfully. Buy a developer a beer!
