19
 energy: -28.698954662658 gnorm: 0.000951629609 xtb: 6.5.0 (97a52f5)
C            2.18705753710282       -0.83180004226466        0.28818470342950
N            1.07319125859175       -0.40040469607177        0.91675977258010
C           -0.12571297743836       -0.18543778161465        0.18238819074823
C           -0.11017494707061        0.62706748307904       -0.94394200271141
C            1.07876571818441       -0.05685284409120        2.31959560569477
C           -1.31171021189618       -0.78831209414857        0.58341401174929
C           -2.47309975723697       -0.57150538637034       -0.13522635523390
C           -2.45825749840570        0.24012681155362       -1.25706489228960
C           -1.27462503881556        0.83298459847579       -1.66170915426503
H           -1.32480225715533       -1.43996209388927        1.44472144628506
H            0.81590492734205        1.08140985575732       -1.25869087947939
O            2.28452691335688       -1.10247008486940       -0.88230417817327
H            1.94640897223349       -0.50136738012328        2.80438236747750
H            0.17511861142684       -0.42121178925258        2.80616028633970
H            1.12066254276535        1.02968307078330        2.44682116172594
H           -3.39136722229766       -1.04582107908328        0.17824952891117
H           -1.25703068957223        1.46344550457196       -2.53801197186278
H           -3.36675618351749        0.40533151409333       -1.81655031974060
H            3.03558431240249       -0.93612055653539        0.99340867881482
