      -----------------------------------------------------------      
     |                   =====================                   |     
     |                           x T B                           |     
     |                   =====================                   |     
     |                         S. Grimme                         |     
     |          Mulliken Center for Theoretical Chemistry        |     
     |                    University of Bonn                     |     
      -----------------------------------------------------------      

   * xtb version 6.5.0 (97a52f5) compiled by 'conda@d2599ee0d4f4' on 2022-05-15

   xtb is free software: you can redistribute it and/or modify it under
   the terms of the GNU Lesser General Public License as published by
   the Free Software Foundation, either version 3 of the License, or
   (at your option) any later version.
   
   xtb is distributed in the hope that it will be useful,
   but WITHOUT ANY WARRANTY; without even the implied warranty of
   MERCHANTABILITY or FITNESS FOR A PARTICULAR PURPOSE.  See the
   GNU Lesser General Public License for more details.
   
   Cite this work as:
   * C. Bannwarth, E. Caldeweyher, S. Ehlert, A. Hansen, P. Pracht,
     J. Seibert, S. Spicher, S. Grimme, WIREs Comput. Mol. Sci., 2020, 11,
     e01493. DOI: 10.1002/wcms.1493
   
   for GFN2-xTB:
   * C. Bannwarth, S. Ehlert and S. Grimme., J. Chem. Theory Comput., 2019,
     15, 1652-1671. DOI: 10.1021/acs.jctc.8b01176
   for GFN1-xTB:
   * S. Grimme, C. Bannwarth, P. Shushkov, J. Chem. Theory Comput., 2017,
     13, 1989-2009. DOI: 10.1021/acs.jctc.7b00118
   for GFN0-xTB:
   * P. Pracht, E. Caldeweyher, S. Ehlert, S. Grimme, ChemRxiv, 2019, preprint.
     DOI: 10.26434/chemrxiv.8326202.v1
   for GFN-FF:
   * S. Spicher and S. Grimme, Angew. Chem. Int. Ed., 2020, 59, 15665-15673.
     DOI: 10.1002/anie.202004239
   
   for ALPB and GBSA implicit solvation:
   * S. Ehlert, M. Stahn, S. Spicher, S. Grimme, J. Chem. Theory Comput.,
     2021, 17, 4250-4261. DOI: 10.1021/acs.jctc.1c00471
   
   for DFT-D4:
   * E. Caldeweyher, C. Bannwarth and S. Grimme, J. Chem. Phys., 2017,
     147, 034112. DOI: 10.1063/1.4993215
   * E. Caldeweyher, S. Ehlert, A. Hansen, H. Neugebauer, S. Spicher,
     C. Bannwarth and S. Grimme, J. Chem. Phys., 2019, 150, 154122.
     DOI: 10.1063/1.5090222
   * E. Caldeweyher, J.-M. Mewes, S. Ehlert and S. Grimme, Phys. Chem. Chem. Phys.
     2020, 22, 8499-8512. DOI: 10.1039/D0CP00502A
   
   for sTDA-xTB:
   * S. Grimme and C. Bannwarth, J. Chem. Phys., 2016, 145, 054103.
     DOI: 10.1063/1.4959605
   
   in the mass-spec context:
   * V. Asgeirsson, C. Bauer and S. Grimme, Chem. Sci., 2017, 8, 4879.
     DOI: 10.1039/c7sc00601b
   * J. Koopman and S. Grimme, ACS Omega 2019, 4, 12, 15120-15133.
     DOI: 10.1021/acsomega.9b02011
   
   for metadynamics refer to:
   * S. Grimme, J. Chem. Theory Comput., 2019, 155, 2847-2862
     DOI: 10.1021/acs.jctc.9b00143
   
   for SPH calculations refer to:
   * S. Spicher and S. Grimme, J. Chem. Theory Comput., 2021, 17, 1701-1714
     DOI: 10.1021/acs.jctc.0c01306
   
   with help from (in alphabetical order)
   P. Atkinson, C. Bannwarth, F. Bohle, G. Brandenburg, E. Caldeweyher
   M. Checinski, S. Dohm, S. Ehlert, S. Ehrlich, I. Gerasimov, C. Hölzer
   A. Katbashev, J. Koopman, C. Lavigne, S. Lehtola, F. März, M. Müller,
   F. Musil, H. Neugebauer, J. Pisarek, C. Plett, P. Pracht, F. Pultar,
   J. Seibert, P. Shushkov, S. Spicher, M. Stahn, M. Steiner, T. Strunk,
   J. Stückrath, T. Rose, and J. Unsleber
   
 * started run on 2023/11/18 at 08:24:43.228     

           -------------------------------------------------
          |                Calculation Setup                |
           -------------------------------------------------

          program call               : /home/liuchw/anaconda3/envs/xtbenv/bin/xtb --gfn 2 --chrg 0 --uhf 0 3_24_Index_0-opt-2-5-071_preQMOPTprefit_xyzformat.xyz --opt --input xtb-opt-2-5-071_constr.txt
          hostname                   : node165.bme.utexas.edu
          coordinate file            : 3_24_Index_0-opt-2-5-071_preQMOPTprefit_xyzformat.xyz
          omp threads                :                    64

   ID    Z sym.   atoms
    1    6 C      1, 3-9
    2    7 N      2
    3    1 H      10, 11, 13-19
    4    8 O      12
constraining angle 1 2 5 14 to   71.0074331°, actual value:   71.0074331°
constraining angle 1 2 3 4 to   37.0890138°, actual value:   37.0890138°
constraining angle 12 1 2 3 to  357.9972830°, actual value:   -2.0027170°

           -------------------------------------------------
          |                 G F N 2 - x T B                 |
           -------------------------------------------------

        Reference                      10.1021/acs.jctc.8b01176
      * Hamiltonian:
        H0-scaling (s, p, d)           1.850000    2.230000    2.230000
        zeta-weighting                 0.500000
      * Dispersion:
        s8                             2.700000
        a1                             0.520000
        a2                             5.000000
        s9                             5.000000
      * Repulsion:
        kExp                           1.500000    1.000000
        rExp                           1.000000
      * Coulomb:
        alpha                          2.000000
        third order                    shell-resolved
        anisotropic                    true
        a3                             3.000000
        a5                             4.000000
        cn-shift                       1.200000
        cn-exp                         4.000000
        max-rad                        5.000000

q/qsh data taken from xtbrestart
CAMM data taken from xtbrestart

          ...................................................
          :                      SETUP                      :
          :.................................................:
          :  # basis functions                  49          :
          :  # atomic orbitals                  49          :
          :  # shells                           29          :
          :  # electrons                        52          :
          :  max. iterations                   250          :
          :  Hamiltonian                  GFN2-xTB          :
          :  restarted?                       true          :
          :  GBSA solvation                  false          :
          :  PC potential                    false          :
          :  electronic temp.          300.0000000     K    :
          :  accuracy                    1.0000000          :
          :  -> integral cutoff          0.2500000E+02      :
          :  -> integral neglect         0.1000000E-07      :
          :  -> SCF convergence          0.1000000E-05 Eh   :
          :  -> wf. convergence          0.1000000E-03 e    :
          :  Broyden damping             0.4000000          :
          ...................................................

 iter      E             dE          RMSdq      gap      omega  full diag
   1    -29.0879409 -0.290879E+02  0.692E-01    3.82       0.0  T
   2    -29.0889299 -0.988981E-03  0.444E-01    3.76       1.0  T
   3    -29.0888894  0.405014E-04  0.231E-01    3.79       1.0  T
   4    -29.0892249 -0.335483E-03  0.633E-02    3.78       1.0  T
   5    -29.0892813 -0.564336E-04  0.134E-02    3.78       1.7  T
   6    -29.0892819 -0.626771E-06  0.610E-03    3.78       3.8  T
   7    -29.0892821 -0.151491E-06  0.238E-03    3.78       9.6  T
   8    -29.0892821 -0.191313E-07  0.853E-04    3.78      26.9  T
   9    -29.0892821 -0.401962E-08  0.348E-04    3.78      66.0  T

   *** convergence criteria satisfied after 9 iterations ***

         #    Occupation            Energy/Eh            Energy/eV
      -------------------------------------------------------------
         1        2.0000           -0.6942626             -18.8918
       ...           ...                  ...                  ...
        20        2.0000           -0.4775329             -12.9943
        21        2.0000           -0.4419059             -12.0249
        22        2.0000           -0.4363102             -11.8726
        23        2.0000           -0.4225543             -11.4983
        24        2.0000           -0.4074526             -11.0873
        25        2.0000           -0.3987085             -10.8494
        26        2.0000           -0.3854243             -10.4879 (HOMO)
        27                         -0.2466135              -6.7107 (LUMO)
        28                         -0.2326497              -6.3307
        29                         -0.2165735              -5.8933
        30                         -0.1102208              -2.9993
        31                         -0.0531808              -1.4471
       ...                                ...                  ...
        49                          0.6052672              16.4702
      -------------------------------------------------------------
                  HL-Gap            0.1388108 Eh            3.7772 eV
             Fermi-level           -0.3160189 Eh           -8.5993 eV

 SCC (total)                   0 d,  0 h,  0 min,  1.188 sec
 SCC setup                      ...        0 min,  0.012 sec (  1.012%)
 Dispersion                     ...        0 min,  0.030 sec (  2.554%)
 classical contributions        ...        0 min,  0.008 sec (  0.714%)
 integral evaluation            ...        0 min,  0.037 sec (  3.111%)
 iterations                     ...        0 min,  0.953 sec ( 80.160%)
 molecular gradient             ...        0 min,  0.147 sec ( 12.406%)
 printout                       ...        0 min,  0.000 sec (  0.016%)

         :::::::::::::::::::::::::::::::::::::::::::::::::::::
         ::                     SUMMARY                     ::
         :::::::::::::::::::::::::::::::::::::::::::::::::::::
         :: total energy             -28.689377166514 Eh    ::
         :: gradient norm              0.067140732040 Eh/a0 ::
         :: HOMO-LUMO gap              3.777234906147 eV    ::
         ::.................................................::
         :: SCC energy               -29.089282099761 Eh    ::
         :: -> isotropic ES            0.033206944270 Eh    ::
         :: -> anisotropic ES          0.003471204816 Eh    ::
         :: -> anisotropic XC          0.015556319148 Eh    ::
         :: -> dispersion             -0.015588297130 Eh    ::
         :: repulsion energy           0.399845961899 Eh    ::
         :: add. restraining           0.000000000000 Eh    ::
         :: total charge               0.000000000000 e     ::
         :::::::::::::::::::::::::::::::::::::::::::::::::::::

      ----------------------------------------------------------- 
     |                   =====================                   |
     |                        A N C O P T                        |
     |                   =====================                   |
     |               Approximate Normal Coordinate               |
     |                Rational Function Optimizer                |
      ----------------------------------------------------------- 

          ...................................................
          :                      SETUP                      :
          :.................................................:
          :   optimization level            normal          :
          :   max. optcycles                   200          :
          :   ANC micro-cycles                  20          :
          :   degrees of freedom                51          :
          :.................................................:
          :   RF solver                   davidson          :
          :   write xtbopt.log                true          :
          :   linear?                        false          :
          :   energy convergence         0.5000000E-05 Eh   :
          :   grad. convergence          0.1000000E-02 Eh/α :
          :   maximium RF displ.         1.0000000          :
          :   Hlow (freq-cutoff)         0.1000000E-01      :
          :   Hmax (freq-cutoff)         5.0000000          :
          :   S6 in model hess.         20.0000000          :
          ...................................................

generating ANC from model Hessian ...
Using Lindh-Hessian (1995)
 Shifting diagonal of input Hessian by    7.1540301671251111E-003
 Lowest  eigenvalues of input Hessian
    0.000000    0.000000    0.000000    0.000000    0.000000    0.000000
    0.010000    0.011290    0.013631    0.018980    0.020195    0.022894
    0.023228    0.029155    0.034710    0.045474    0.051907    0.055946
 Highest eigenvalues
    1.877143    1.930013    2.194994    2.799907    5.125015   22.388771


........................................................................
.............................. CYCLE    1 ..............................
........................................................................
   1    -29.0892821 -0.290893E+02  0.146E-04    3.78       0.0  T
   2    -29.0892821 -0.326850E-10  0.918E-05    3.78     250.0  T
   3    -29.0892821  0.976996E-12  0.617E-05    3.78     371.7  T
     SCC iter.                  ...        0 min,  0.274 sec
     gradient                   ...        0 min,  0.146 sec
 * total energy  :   -28.6893772 Eh     change       -0.1101750E-08 Eh
   gradient norm :     0.0671402 Eh/α   predicted     0.0000000E+00 (-100.00%)
   displ. norm   :     0.3468152 α      lambda       -0.1310933E-01
   maximum displ.:     0.1375884 α      in ANC's #12, #10, #15, ...

........................................................................
.............................. CYCLE    2 ..............................
........................................................................
   1    -29.1338447 -0.291338E+02  0.311E-01    3.95       0.0  T
   2    -29.1340437 -0.198990E-03  0.206E-01    3.97       1.0  T
   3    -29.1340331  0.106180E-04  0.102E-01    3.96       1.0  T
   4    -29.1341058 -0.727235E-04  0.230E-02    3.97       1.0  T
   5    -29.1341128 -0.698336E-05  0.614E-03    3.97       3.7  T
   6    -29.1341130 -0.221882E-06  0.270E-03    3.97       8.5  T
   7    -29.1341130 -0.273117E-07  0.131E-03    3.97      17.5  T
   8    -29.1341130 -0.186304E-08  0.379E-04    3.97      60.5  T
   9    -29.1341130 -0.947299E-09  0.133E-04    3.97     172.7  T
     SCC iter.                  ...        0 min,  0.939 sec
     gradient                   ...        0 min,  0.154 sec
 * total energy  :   -28.6977046 Eh     change       -0.8327473E-02 Eh
   gradient norm :     0.0281718 Eh/α   predicted    -0.7343702E-02 ( -11.81%)
   displ. norm   :     0.2700964 α      lambda       -0.2672028E-02
   maximum displ.:     0.1350343 α      in ANC's #2, #7, #12, ...

........................................................................
.............................. CYCLE    3 ..............................
........................................................................
   1    -29.1531123 -0.291531E+02  0.177E-01    4.00       0.0  T
   2    -29.1532409 -0.128586E-03  0.121E-01    4.02       1.0  T
   3    -29.1532578 -0.169385E-04  0.612E-02    4.02       1.0  T
   4    -29.1532631 -0.526410E-05  0.199E-02    4.02       1.2  T
   5    -29.1532686 -0.549903E-05  0.317E-03    4.02       7.2  T
   6    -29.1532686 -0.364641E-07  0.160E-03    4.02      14.3  T
   7    -29.1532686 -0.105921E-07  0.639E-04    4.02      35.9  T
   8    -29.1532686 -0.802697E-09  0.225E-04    4.02     101.8  T
     SCC iter.                  ...        0 min,  0.851 sec
     gradient                   ...        0 min,  0.147 sec
 * total energy  :   -28.6985775 Eh     change       -0.8728201E-03 Eh
   gradient norm :     0.1211627 Eh/α   predicted    -0.1433966E-02 (  64.29%)
   displ. norm   :     0.1883922 α      lambda       -0.1939734E-02
   maximum displ.:     0.1451243 α      in ANC's #2, #7, #10, ...

........................................................................
.............................. CYCLE    4 ..............................
........................................................................
   1    -29.1575555 -0.291576E+02  0.957E-02    4.01       0.0  T
   2    -29.1575924 -0.368593E-04  0.649E-02    4.02       1.0  T
   3    -29.1575960 -0.362255E-05  0.320E-02    4.02       1.0  T
   4    -29.1575974 -0.137164E-05  0.107E-02    4.02       2.1  T
   5    -29.1575990 -0.162845E-05  0.145E-03    4.02      15.9  T
   6    -29.1575990 -0.589205E-08  0.680E-04    4.02      33.7  T
   7    -29.1575990 -0.200090E-08  0.257E-04    4.02      89.4  T
     SCC iter.                  ...        0 min,  0.722 sec
     gradient                   ...        0 min,  0.148 sec
 * total energy  :   -28.6980682 Eh     change        0.5092768E-03 Eh
   gradient norm :     0.2044365 Eh/α   predicted    -0.1004334E-02 (-297.21%)
   displ. norm   :     0.1149516 α      lambda       -0.2419935E-02
   maximum displ.:     0.0493667 α      in ANC's #11, #3, #12, ...

........................................................................
.............................. CYCLE    5 ..............................
........................................................................
   1    -29.1481011 -0.291481E+02  0.965E-02    3.99       0.0  T
   2    -29.1481193 -0.182383E-04  0.623E-02    3.98       1.0  T
   3    -29.1481178  0.156338E-05  0.283E-02    3.99       1.0  T
   4    -29.1481231 -0.536784E-05  0.708E-03    3.99       3.2  T
   5    -29.1481239 -0.757194E-06  0.171E-03    3.99      13.4  T
   6    -29.1481239 -0.888850E-08  0.835E-04    3.99      27.5  T
   7    -29.1481239 -0.275942E-08  0.304E-04    3.99      75.4  T
     SCC iter.                  ...        0 min,  0.681 sec
     gradient                   ...        0 min,  0.139 sec
 * total energy  :   -28.6992826 Eh     change       -0.1214437E-02 Eh
   gradient norm :     0.0108429 Eh/α   predicted    -0.1226448E-02 (   0.99%)
   displ. norm   :     0.1210901 α      lambda       -0.2524954E-03
   maximum displ.:     0.0962897 α      in ANC's #2, #4, #6, ...

........................................................................
.............................. CYCLE    6 ..............................
........................................................................
   1    -29.1488721 -0.291489E+02  0.869E-02    3.98       0.0  T
   2    -29.1488727 -0.584337E-06  0.517E-02    3.98       1.0  T
   3    -29.1488723  0.412916E-06  0.559E-03    3.98       4.1  T
   4    -29.1488729 -0.638013E-06  0.183E-03    3.98      12.5  T
   5    -29.1488730 -0.169851E-07  0.968E-04    3.98      23.7  T
   6    -29.1488730 -0.219222E-08  0.229E-04    3.98     100.0  T
     SCC iter.                  ...        0 min,  0.607 sec
     gradient                   ...        0 min,  0.133 sec
 * total energy  :   -28.6994451 Eh     change       -0.1625075E-03 Eh
   gradient norm :     0.0108901 Eh/α   predicted    -0.1281069E-03 ( -21.17%)
   displ. norm   :     0.1390014 α      lambda       -0.1665080E-03
   maximum displ.:     0.1203196 α      in ANC's #2, #4, #10, ...

........................................................................
.............................. CYCLE    7 ..............................
........................................................................
   1    -29.1489535 -0.291490E+02  0.592E-02    3.97       0.0  T
   2    -29.1489542 -0.704531E-06  0.344E-02    3.97       1.0  T
   3    -29.1489537  0.418480E-06  0.694E-03    3.97       3.3  T
   4    -29.1489543 -0.604175E-06  0.149E-03    3.97      15.4  T
   5    -29.1489544 -0.915104E-08  0.618E-04    3.97      37.1  T
   6    -29.1489544 -0.611696E-09  0.245E-04    3.97      93.6  T
     SCC iter.                  ...        0 min,  0.612 sec
     gradient                   ...        0 min,  0.149 sec
 * total energy  :   -28.6995868 Eh     change       -0.1416855E-03 Eh
   gradient norm :     0.0090842 Eh/α   predicted    -0.8486546E-04 ( -40.10%)
   displ. norm   :     0.1756881 α      lambda       -0.1728191E-03
   maximum displ.:     0.1535249 α      in ANC's #2, #4, #10, ...

........................................................................
.............................. CYCLE    8 ..............................
........................................................................
   1    -29.1490019 -0.291490E+02  0.747E-02    3.96       0.0  T
   2    -29.1490031 -0.122029E-05  0.436E-02    3.96       1.0  T
   3    -29.1490023  0.812884E-06  0.909E-03    3.96       2.5  T
   4    -29.1490034 -0.112464E-05  0.192E-03    3.96      11.9  T
   5    -29.1490034 -0.178040E-07  0.753E-04    3.96      30.5  T
   6    -29.1490034 -0.321386E-09  0.293E-04    3.96      78.4  T
     SCC iter.                  ...        0 min,  0.626 sec
     gradient                   ...        0 min,  0.143 sec
 * total energy  :   -28.6997162 Eh     change       -0.1293951E-03 Eh
   gradient norm :     0.0018164 Eh/α   predicted    -0.8907810E-04 ( -31.16%)
   displ. norm   :     0.1960771 α      lambda       -0.7356508E-04
   maximum displ.:     0.1790847 α      in ANC's #2, #4, #10, ...

........................................................................
.............................. CYCLE    9 ..............................
........................................................................
   1    -29.1491947 -0.291492E+02  0.853E-02    3.95       0.0  T
   2    -29.1491963 -0.155915E-05  0.497E-02    3.95       1.0  T
   3    -29.1491950  0.129590E-05  0.110E-02    3.95       2.1  T
   4    -29.1491967 -0.172558E-05  0.209E-03    3.95      11.0  T
   5    -29.1491967 -0.205678E-07  0.825E-04    3.95      27.8  T
   6    -29.1491967 -0.518874E-09  0.336E-04    3.95      68.3  T
     SCC iter.                  ...        0 min,  0.602 sec
     gradient                   ...        0 min,  0.161 sec
 * total energy  :   -28.6997826 Eh     change       -0.6642459E-04 Eh
   gradient norm :     0.0032532 Eh/α   predicted    -0.3741444E-04 ( -43.67%)
   displ. norm   :     0.0356701 α      lambda       -0.1263194E-04
   maximum displ.:     0.0326441 α      in ANC's #2, #3, #1, ...

........................................................................
.............................. CYCLE   10 ..............................
........................................................................
   1    -29.1495167 -0.291495E+02  0.185E-02    3.95       0.0  T
   2    -29.1495168 -0.480168E-07  0.108E-02    3.95       2.1  T
   3    -29.1495167  0.376700E-07  0.179E-03    3.95      12.8  T
   4    -29.1495168 -0.504080E-07  0.360E-04    3.95      63.8  T
   5    -29.1495168 -0.832280E-09  0.163E-04    3.95     140.7  T
     SCC iter.                  ...        0 min,  0.584 sec
     gradient                   ...        0 min,  0.152 sec
 * total energy  :   -28.6997918 Eh     change       -0.9189968E-05 Eh
   gradient norm :     0.0016981 Eh/α   predicted    -0.6333474E-05 ( -31.08%)
   displ. norm   :     0.0517126 α      lambda       -0.7649604E-05
   maximum displ.:     0.0459689 α      in ANC's #2, #1, #7, ...

........................................................................
.............................. CYCLE   11 ..............................
........................................................................
   1    -29.1496503 -0.291497E+02  0.265E-02    3.95       0.0  T
   2    -29.1496504 -0.586446E-07  0.155E-02    3.95       1.5  T
   3    -29.1496503  0.653750E-07  0.247E-03    3.95       9.3  T
   4    -29.1496504 -0.891237E-07  0.414E-04    3.95      55.4  T
   5    -29.1496504 -0.533067E-09  0.196E-04    3.95     116.9  T
     SCC iter.                  ...        0 min,  0.558 sec
     gradient                   ...        0 min,  0.146 sec
 * total energy  :   -28.6997971 Eh     change       -0.5271295E-05 Eh
   gradient norm :     0.0020625 Eh/α   predicted    -0.3833542E-05 ( -27.28%)
   displ. norm   :     0.0084314 α      lambda       -0.1542976E-05
   maximum displ.:     0.0063717 α      in ANC's #2, #1, #7, ...

........................................................................
.............................. CYCLE   12 ..............................
........................................................................
   1    -29.1495438 -0.291495E+02  0.420E-03    3.95       0.0  T
   2    -29.1495438 -0.647723E-08  0.243E-03    3.95       9.4  T
   3    -29.1495438  0.233292E-08  0.464E-04    3.95      49.4  T
   4    -29.1495438 -0.308205E-08  0.137E-04    3.95     167.0  T
     SCC iter.                  ...        0 min,  0.373 sec
     gradient                   ...        0 min,  0.155 sec
 * total energy  :   -28.6997979 Eh     change       -0.7574696E-06 Eh
   gradient norm :     0.0008404 Eh/α   predicted    -0.7742114E-06 (   2.21%)
   displ. norm   :     0.0036088 α      lambda       -0.2395329E-06
   maximum displ.:     0.0023676 α      in ANC's #2, #10, #11, ...

   *** GEOMETRY OPTIMIZATION CONVERGED AFTER 12 ITERATIONS ***

------------------------------------------------------------------------
 total energy gain   :        -0.0104207 Eh       -6.5391 kcal/mol
 total RMSD          :         0.2758975 a0        0.1460 Å
 total power (kW/mol):        -2.2799589 (step)   -2.6538 (real)
------------------------------------------------------------------------

 ANCopt (total)                0 d,  0 h,  0 min, 10.310 sec
 optimizer setup                ...        0 min,  0.000 sec (  0.002%)
 model hessian                  ...        0 min,  0.003 sec (  0.030%)
 ANC generation                 ...        0 min,  0.001 sec (  0.008%)
 coordinate transformation      ...        0 min,  0.000 sec (  0.003%)
 single point calculation       ...        0 min, 10.144 sec ( 98.391%)
 optimization log               ...        0 min,  0.007 sec (  0.069%)
 hessian update                 ...        0 min,  0.126 sec (  1.220%)
 rational function              ...        0 min,  0.027 sec (  0.263%)

================
 final structure:
================
19
 xtb: 6.5.0 (97a52f5)
C            2.18261609295219        0.49842947455852        0.63898242851218
N            1.06332800996912       -0.20034975890797        0.94599259838512
C           -0.11475304626764       -0.11530373081391        0.16939979241685
C           -0.03917525416360       -0.00350268182216       -1.21582045376605
C            1.04169008934611       -0.95717822337336        2.18217518549769
C           -1.36451257699777       -0.11806233488574        0.78431330630849
C           -2.51532179461644       -0.03410453309241        0.02207971857612
C           -2.43747559971590        0.06676034089949       -1.35597891831184
C           -1.19595444054104        0.08687584881054       -1.96787614426607
H           -1.44645747441388       -0.16649676980541        1.85957361416057
H            0.92224320179466        0.01274636751685       -1.70061013417294
O            2.35173317169035        1.22903081088055       -0.30401556595114
H            0.19301761301988       -1.63582988594414        2.18302308432960
H            0.99180708659046       -0.30137595139045        3.05562337998040
H            1.95478137491150       -1.55092865336129        2.25851375324255
H           -3.47783468089463       -0.03865219338204        0.51226364669695
H           -1.12367472573288        0.17067090015476       -3.04185108575558
H           -3.33813700205950        0.13479841942561       -1.94719318178019
H            2.97575995512909        0.32125755453264        1.39198997589736

 Bond Distances (Angstroems)
 ---------------------------
C1-N2=1.3548         C1-O12=1.2048        C1-H19=1.1079        N2-C1=1.3548         N2-C3=1.4136         N2-C5=1.4496         
C3-N2=1.4136         C3-C4=1.3918         C3-C6=1.3928         C4-C3=1.3918         C4-C9=1.3827         C4-H11=1.0769        
C5-N2=1.4496         C5-H13=1.0867        C5-H14=1.0934        C5-H15=1.0918        C6-C3=1.3928         C6-C7=1.3829         
C6-H10=1.0795        C7-C6=1.3829         C7-C8=1.3839         C7-H16=1.0802        C8-C7=1.3839         C8-C9=1.3843         
C8-H18=1.0795        C9-C4=1.3827         C9-C8=1.3843         C9-H17=1.0797        H10-C6=1.0795        H11-C4=1.0769        
O12-C1=1.2048        H13-C5=1.0867        H14-C5=1.0934        H15-C5=1.0918        H16-C7=1.0802        H17-C9=1.0797        
H18-C8=1.0795        H19-C1=1.1079        
 C  H  Rav=1.0862 sigma=0.0095  Rmin=1.0769  Rmax=1.1079     9
 C  C  Rav=1.3864 sigma=0.0042  Rmin=1.3827  Rmax=1.3928     6
 N  C  Rav=1.4060 sigma=0.0391  Rmin=1.3548  Rmax=1.4496     3
 O  C  Rav=1.2048 sigma=0.0000  Rmin=1.2048  Rmax=1.2048     1

 selected bond angles (degree)
 --------------------
O12-C1-N2=127.31               H19-C1-N2=110.79               H19-C1-O12=121.90              C3-N2-C1=122.21                
C5-N2-C1=118.35                C5-N2-C3=119.17                C4-C3-N2=120.42                C6-C3-N2=120.34                
C6-C3-C4=119.23                C9-C4-C3=120.08                H11-C4-C3=119.85               H11-C4-C9=120.07               
H13-C5-N2=109.78               H14-C5-N2=111.64               H14-C5-H13=109.78              H15-C5-N2=109.33               
H15-C5-H13=108.27              H15-C5-H14=107.97              C7-C6-C3=120.21                H10-C6-C3=120.53               
H10-C6-C7=119.25               C8-C7-C6=120.43                H16-C7-C6=119.42               H16-C7-C8=120.15               
C9-C8-C7=119.45                H18-C8-C7=120.20               H18-C8-C9=120.35               C8-C9-C4=120.59                
H17-C9-C4=119.35               H17-C9-C8=120.06               

 selected dihedral angles (degree)
 ---------------------------------
C3-N2-C1-O12=358.00           C3-N2-C1-H19=177.82           C5-N2-C1-O12=183.97           C5-N2-C1-H19=  3.79           
C4-C3-N2-C1= 37.12            C4-C3-N2-C5=211.11            C6-C3-N2-C1=218.29            C6-C3-N2-C5= 32.27            
C9-C4-C3-N2=180.37            C9-C4-C3-C6=359.21            H11-C4-C3-N2=  0.35           H11-C4-C3-C6=179.20           
H13-C5-N2-C1=193.01           H13-C5-N2-C3= 18.79           H14-C5-N2-C1= 71.04           H14-C5-N2-C3=256.82           
H15-C5-N2-C1=311.64           H15-C5-N2-C3=137.42           C7-C6-C3-N2=179.97            C7-C6-C3-C4=  1.12            
H10-C6-C3-N2=  1.15           H10-C6-C3-C4=182.30           C8-C7-C6-C3=359.36            C8-C7-C6-H10=178.19           
H16-C7-C6-C3=179.92           H16-C7-C6-H10=358.76          C9-C8-C7-C6=359.82            C9-C8-C7-H16=179.25           
H18-C8-C7-C6=180.17           H18-C8-C7-H16=359.60          C8-C9-C4-C3=359.97            C8-C9-C4-H11=179.99           
H17-C9-C4-C3=180.15           H17-C9-C4-H11=  0.17          C4-C9-C8-C7=  0.52            C4-C9-C8-H18=180.17           
H17-C9-C8-C7=180.33           H17-C9-C8-H18=  0.00          
           -------------------------------------------------
          |                Final Singlepoint                |
           -------------------------------------------------

          ...................................................
          :                      SETUP                      :
          :.................................................:
          :  # basis functions                  49          :
          :  # atomic orbitals                  49          :
          :  # shells                           29          :
          :  # electrons                        52          :
          :  max. iterations                   250          :
          :  Hamiltonian                  GFN2-xTB          :
          :  restarted?                      false          :
          :  GBSA solvation                  false          :
          :  PC potential                    false          :
          :  electronic temp.          300.0000000     K    :
          :  accuracy                    1.0000000          :
          :  -> integral cutoff          0.2500000E+02      :
          :  -> integral neglect         0.1000000E-07      :
          :  -> SCF convergence          0.1000000E-05 Eh   :
          :  -> wf. convergence          0.1000000E-03 e    :
          :  Broyden damping             0.4000000          :
          ...................................................

 iter      E             dE          RMSdq      gap      omega  full diag
   1    -29.1495438 -0.291495E+02  0.521E-05    3.95       0.0  T
   2    -29.1495438 -0.230571E-11  0.304E-05    3.95     753.9  T
   3    -29.1495438  0.222400E-11  0.149E-05    3.95    1544.3  T

   *** convergence criteria satisfied after 3 iterations ***

         #    Occupation            Energy/Eh            Energy/eV
      -------------------------------------------------------------
         1        2.0000           -0.7024346             -19.1142
       ...           ...                  ...                  ...
        20        2.0000           -0.4799122             -13.0591
        21        2.0000           -0.4410401             -12.0013
        22        2.0000           -0.4390463             -11.9471
        23        2.0000           -0.4255834             -11.5807
        24        2.0000           -0.4095998             -11.1458
        25        2.0000           -0.3975769             -10.8186
        26        2.0000           -0.3848548             -10.4724 (HOMO)
        27                         -0.2397125              -6.5229 (LUMO)
        28                         -0.2275034              -6.1907
        29                         -0.2011242              -5.4729
        30                         -0.0946851              -2.5765
        31                         -0.0084208              -0.2291
       ...                                ...                  ...
        49                          0.6708801              18.2556
      -------------------------------------------------------------
                  HL-Gap            0.1451423 Eh            3.9495 eV
             Fermi-level           -0.3122837 Eh           -8.4977 eV

 SCC (total)                   0 d,  0 h,  0 min,  0.545 sec
 SCC setup                      ...        0 min,  0.010 sec (  1.902%)
 Dispersion                     ...        0 min,  0.021 sec (  3.788%)
 classical contributions        ...        0 min,  0.014 sec (  2.559%)
 integral evaluation            ...        0 min,  0.028 sec (  5.170%)
 iterations                     ...        0 min,  0.311 sec ( 56.990%)
 molecular gradient             ...        0 min,  0.161 sec ( 29.515%)
 printout                       ...        0 min,  0.000 sec (  0.025%)

         :::::::::::::::::::::::::::::::::::::::::::::::::::::
         ::                     SUMMARY                     ::
         :::::::::::::::::::::::::::::::::::::::::::::::::::::
         :: total energy             -28.699797852610 Eh    ::
         :: gradient norm              0.000840325245 Eh/a0 ::
         :: HOMO-LUMO gap              3.949523228199 eV    ::
         ::.................................................::
         :: SCC energy               -29.149543809523 Eh    ::
         :: -> isotropic ES            0.032774025594 Eh    ::
         :: -> anisotropic ES          0.003209134109 Eh    ::
         :: -> anisotropic XC          0.013841764851 Eh    ::
         :: -> dispersion             -0.015965424766 Eh    ::
         :: repulsion energy           0.449689452119 Eh    ::
         :: add. restraining           0.000001743400 Eh    ::
         :: total charge               0.000000000000 e     ::
         :::::::::::::::::::::::::::::::::::::::::::::::::::::

           -------------------------------------------------
          |                Property Printout                |
           -------------------------------------------------

    * Orbital Energies and Occupations

         #    Occupation            Energy/Eh            Energy/eV
      -------------------------------------------------------------
         1        2.0000           -0.7024346             -19.1142
       ...           ...                  ...                  ...
        14        2.0000           -0.5121746             -13.9370
        15        2.0000           -0.5089734             -13.8499
        16        2.0000           -0.4989420             -13.5769
        17        2.0000           -0.4952175             -13.4756
        18        2.0000           -0.4863937             -13.2354
        19        2.0000           -0.4828838             -13.1399
        20        2.0000           -0.4799122             -13.0591
        21        2.0000           -0.4410401             -12.0013
        22        2.0000           -0.4390463             -11.9471
        23        2.0000           -0.4255834             -11.5807
        24        2.0000           -0.4095998             -11.1458
        25        2.0000           -0.3975769             -10.8186
        26        2.0000           -0.3848548             -10.4724 (HOMO)
        27                         -0.2397125              -6.5229 (LUMO)
        28                         -0.2275034              -6.1907
        29                         -0.2011242              -5.4729
        30                         -0.0946851              -2.5765
        31                         -0.0084208              -0.2291
        32                          0.0790633               2.1514
        33                          0.1133018               3.0831
        34                          0.1337627               3.6399
        35                          0.1449870               3.9453
        36                          0.1545983               4.2068
        37                          0.1741004               4.7375
       ...                                ...                  ...
        49                          0.6708801              18.2556
      -------------------------------------------------------------
                  HL-Gap            0.1451423 Eh            3.9495 eV
             Fermi-level           -0.3122837 Eh           -8.4977 eV

     #   Z          covCN         q      C6AA      α(0)
     1   6 C        2.714     0.248    22.837     7.823
     2   7 N        2.735    -0.078    22.763     7.086
     3   6 C        2.919     0.069    26.457     8.435
     4   6 C        2.922    -0.037    28.919     8.819
     5   6 C        3.702    -0.050    21.629     6.650
     6   6 C        2.922    -0.049    29.229     8.866
     7   6 C        2.920    -0.029    28.734     8.790
     8   6 C        2.919    -0.034    28.841     8.807
     9   6 C        2.921    -0.026    28.661     8.779
    10   1 H        0.926     0.035     2.522     2.483
    11   1 H        0.926     0.062     2.170     2.304
    12   8 O        0.857    -0.399    21.661     6.240
    13   1 H        0.925     0.069     2.100     2.266
    14   1 H        0.924     0.053     2.280     2.361
    15   1 H        0.924     0.056     2.242     2.341
    16   1 H        0.926     0.034     2.526     2.486
    17   1 H        0.926     0.040     2.453     2.449
    18   1 H        0.926     0.035     2.516     2.481
    19   1 H        0.922     0.002     3.027     2.721

 Mol. C6AA /au·bohr⁶  :       4193.225827
 Mol. C8AA /au·bohr⁸  :      98818.845502
 Mol. α(0) /au        :        102.186207


Wiberg/Mayer (AO) data.
largest (>0.10) Wiberg bond orders for each atom

 ---------------------------------------------------------------------------
     #   Z sym  total        # sym  WBO       # sym  WBO       # sym  WBO
 ---------------------------------------------------------------------------
     1   6 C    3.954 --    12 O    1.738     2 N    1.233    19 H    0.920
     2   7 N    3.539 --     1 C    1.233     3 C    1.032     5 C    0.995
                            12 O    0.192
     3   6 C    3.960 --     4 C    1.382     6 C    1.382     2 N    1.032
                             8 C    0.101
     4   6 C    3.989 --     9 C    1.449     3 C    1.382    11 H    0.965
                             7 C    0.109
     5   6 C    3.970 --     2 N    0.995    13 H    0.979    15 H    0.978
                            14 H    0.977
     6   6 C    3.990 --     7 C    1.449     3 C    1.382    10 H    0.967
                             9 C    0.108
     7   6 C    3.992 --     6 C    1.449     8 C    1.435    16 H    0.971
                             4 C    0.109
     8   6 C    3.992 --     9 C    1.435     7 C    1.435    18 H    0.971
                             3 C    0.101
     9   6 C    3.992 --     4 C    1.449     8 C    1.435    17 H    0.970
                             6 C    0.108
    10   1 H    0.999 --     6 C    0.967
    11   1 H    0.996 --     4 C    0.965
    12   8 O    2.045 --     1 C    1.738     2 N    0.192
    13   1 H    0.995 --     5 C    0.979
    14   1 H    0.997 --     5 C    0.977
    15   1 H    0.996 --     5 C    0.978
    16   1 H    0.998 --     7 C    0.971
    17   1 H    0.998 --     9 C    0.970
    18   1 H    0.999 --     8 C    0.971
    19   1 H    0.999 --     1 C    0.920
 ---------------------------------------------------------------------------

Topologies differ in total number of bonds
Writing topology from bond orders to xtbtopo.mol

molecular dipole:
                 x           y           z       tot (Debye)
 q only:       -0.709      -0.981       0.834
   full:       -0.665      -1.079       1.094       4.255
molecular quadrupole (traceless):
                xx          xy          yy          xz          yz          zz
 q only:       -3.582      -5.545      -2.755       4.686      -0.943       6.337
  q+dip:       -1.372      -6.769      -6.940       6.020      -0.241       8.312
   full:       -2.963      -6.874      -4.182       5.941       0.130       7.145

           -------------------------------------------------
          |                Geometry Summary                 |
           -------------------------------------------------

      molecular mass/u    :      135.1634621
   center of mass at/Å    :       -0.0237448       0.0507552       0.0301348
  moments of inertia/u·Å² :        0.1987318E+03   0.4793433E+03   0.6388893E+03
rotational constants/cm⁻¹ :        0.8482602E-01   0.3516818E-01   0.2638584E-01

 * 18 selected distances

     #   Z          #   Z                                           value/Å
     1   6 C        2   7 N                                       1.3547523
     2   7 N        3   6 C                                       1.4135786
     3   6 C        4   6 C                                       1.3917783
     2   7 N        5   6 C                                       1.4496225 (max)
     3   6 C        6   6 C                                       1.3928480
     6   6 C        7   6 C                                       1.3828995
     7   6 C        8   6 C                                       1.3839363
     4   6 C        9   6 C                                       1.3827127
     8   6 C        9   6 C                                       1.3842680
     6   6 C       10   1 H                                       1.0794655
     4   6 C       11   1 H                                       1.0768522 (min)
     1   6 C       12   8 O                                       1.2048338
     5   6 C       13   1 H                                       1.0866527
     5   6 C       14   1 H                                       1.0933787
     5   6 C       15   1 H                                       1.0918347
     7   6 C       16   1 H                                       1.0801538
     9   6 C       17   1 H                                       1.0796612
     8   6 C       18   1 H                                       1.0795159

 * 4 distinct bonds (by element types)

   Z      Z             #   av. dist./Å        max./Å        min./Å
   1 H    6 C           8     1.0834393     1.0933787     1.0768522
   6 C    6 C           6     1.3864072     1.3928480     1.3827127
   6 C    7 N           3     1.4059845     1.4496225     1.3547523
   6 C    8 O           1     1.2048338     1.2048338     1.2048338


optimized geometry written to: xtbopt.xyz


           -------------------------------------------------
          | TOTAL ENERGY              -28.699797852610 Eh   |
          | GRADIENT NORM               0.000840325245 Eh/α |
          | HOMO-LUMO GAP               3.949523228199 eV   |
           -------------------------------------------------
########################################################################
[WARNING] Runtime exception occurred
-1- restart_readRestart: Number of electron missmatch in restart file.
########################################################################

------------------------------------------------------------------------
 * finished run on 2023/11/18 at 08:24:55.443     
------------------------------------------------------------------------
 total:
 * wall-time:     0 d,  0 h,  0 min, 12.215 sec
 *  cpu-time:     0 d,  0 h,  8 min, 19.360 sec
 * ratio c/w:    40.882 speedup
 SCF:
 * wall-time:     0 d,  0 h,  0 min,  1.188 sec
 *  cpu-time:     0 d,  0 h,  0 min, 49.606 sec
 * ratio c/w:    41.740 speedup
 ANC optimizer:
 * wall-time:     0 d,  0 h,  0 min, 10.870 sec
 *  cpu-time:     0 d,  0 h,  7 min, 23.525 sec
 * ratio c/w:    40.803 speedup

