      -----------------------------------------------------------      
     |                   =====================                   |     
     |                           x T B                           |     
     |                   =====================                   |     
     |                         S. Grimme                         |     
     |          Mulliken Center for Theoretical Chemistry        |     
     |                    University of Bonn                     |     
      -----------------------------------------------------------      

   * xtb version 6.5.0 (97a52f5) compiled by 'conda@d2599ee0d4f4' on 2022-05-15

   xtb is free software: you can redistribute it and/or modify it under
   the terms of the GNU Lesser General Public License as published by
   the Free Software Foundation, either version 3 of the License, or
   (at your option) any later version.
   
   xtb is distributed in the hope that it will be useful,
   but WITHOUT ANY WARRANTY; without even the implied warranty of
   MERCHANTABILITY or FITNESS FOR A PARTICULAR PURPOSE.  See the
   GNU Lesser General Public License for more details.
   
   Cite this work as:
   * C. Bannwarth, E. Caldeweyher, S. Ehlert, A. Hansen, P. Pracht,
     J. Seibert, S. Spicher, S. Grimme, WIREs Comput. Mol. Sci., 2020, 11,
     e01493. DOI: 10.1002/wcms.1493
   
   for GFN2-xTB:
   * C. Bannwarth, S. Ehlert and S. Grimme., J. Chem. Theory Comput., 2019,
     15, 1652-1671. DOI: 10.1021/acs.jctc.8b01176
   for GFN1-xTB:
   * S. Grimme, C. Bannwarth, P. Shushkov, J. Chem. Theory Comput., 2017,
     13, 1989-2009. DOI: 10.1021/acs.jctc.7b00118
   for GFN0-xTB:
   * P. Pracht, E. Caldeweyher, S. Ehlert, S. Grimme, ChemRxiv, 2019, preprint.
     DOI: 10.26434/chemrxiv.8326202.v1
   for GFN-FF:
   * S. Spicher and S. Grimme, Angew. Chem. Int. Ed., 2020, 59, 15665-15673.
     DOI: 10.1002/anie.202004239
   
   for ALPB and GBSA implicit solvation:
   * S. Ehlert, M. Stahn, S. Spicher, S. Grimme, J. Chem. Theory Comput.,
     2021, 17, 4250-4261. DOI: 10.1021/acs.jctc.1c00471
   
   for DFT-D4:
   * E. Caldeweyher, C. Bannwarth and S. Grimme, J. Chem. Phys., 2017,
     147, 034112. DOI: 10.1063/1.4993215
   * E. Caldeweyher, S. Ehlert, A. Hansen, H. Neugebauer, S. Spicher,
     C. Bannwarth and S. Grimme, J. Chem. Phys., 2019, 150, 154122.
     DOI: 10.1063/1.5090222
   * E. Caldeweyher, J.-M. Mewes, S. Ehlert and S. Grimme, Phys. Chem. Chem. Phys.
     2020, 22, 8499-8512. DOI: 10.1039/D0CP00502A
   
   for sTDA-xTB:
   * S. Grimme and C. Bannwarth, J. Chem. Phys., 2016, 145, 054103.
     DOI: 10.1063/1.4959605
   
   in the mass-spec context:
   * V. Asgeirsson, C. Bauer and S. Grimme, Chem. Sci., 2017, 8, 4879.
     DOI: 10.1039/c7sc00601b
   * J. Koopman and S. Grimme, ACS Omega 2019, 4, 12, 15120-15133.
     DOI: 10.1021/acsomega.9b02011
   
   for metadynamics refer to:
   * S. Grimme, J. Chem. Theory Comput., 2019, 155, 2847-2862
     DOI: 10.1021/acs.jctc.9b00143
   
   for SPH calculations refer to:
   * S. Spicher and S. Grimme, J. Chem. Theory Comput., 2021, 17, 1701-1714
     DOI: 10.1021/acs.jctc.0c01306
   
   with help from (in alphabetical order)
   P. Atkinson, C. Bannwarth, F. Bohle, G. Brandenburg, E. Caldeweyher
   M. Checinski, S. Dohm, S. Ehlert, S. Ehrlich, I. Gerasimov, C. Hölzer
   A. Katbashev, J. Koopman, C. Lavigne, S. Lehtola, F. März, M. Müller,
   F. Musil, H. Neugebauer, J. Pisarek, C. Plett, P. Pracht, F. Pultar,
   J. Seibert, P. Shushkov, S. Spicher, M. Stahn, M. Steiner, T. Strunk,
   J. Stückrath, T. Rose, and J. Unsleber
   
 * started run on 2023/11/18 at 08:20:13.447     

           -------------------------------------------------
          |                Calculation Setup                |
           -------------------------------------------------

          program call               : /home/liuchw/anaconda3/envs/xtbenv/bin/xtb --gfn 2 --chrg 0 --uhf 0 3_24_Index_0-opt-2-3-307_preQMOPTprefit_xyzformat.xyz --opt --input xtb-opt-2-3-307_constr.txt
          hostname                   : node165.bme.utexas.edu
          coordinate file            : 3_24_Index_0-opt-2-3-307_preQMOPTprefit_xyzformat.xyz
          omp threads                :                    64

   ID    Z sym.   atoms
    1    6 C      1, 3-9
    2    7 N      2
    3    1 H      10, 11, 13-19
    4    8 O      12
constraining angle 1 2 3 4 to  306.9393544°, actual value:  -53.0606456°
constraining angle 1 2 5 14 to  220.9914213°, actual value: -139.0085787°
constraining angle 12 1 2 3 to  358.0032312°, actual value:   -1.9967688°

           -------------------------------------------------
          |                 G F N 2 - x T B                 |
           -------------------------------------------------

        Reference                      10.1021/acs.jctc.8b01176
      * Hamiltonian:
        H0-scaling (s, p, d)           1.850000    2.230000    2.230000
        zeta-weighting                 0.500000
      * Dispersion:
        s8                             2.700000
        a1                             0.520000
        a2                             5.000000
        s9                             5.000000
      * Repulsion:
        kExp                           1.500000    1.000000
        rExp                           1.000000
      * Coulomb:
        alpha                          2.000000
        third order                    shell-resolved
        anisotropic                    true
        a3                             3.000000
        a5                             4.000000
        cn-shift                       1.200000
        cn-exp                         4.000000
        max-rad                        5.000000

q/qsh data taken from xtbrestart
CAMM data taken from xtbrestart

          ...................................................
          :                      SETUP                      :
          :.................................................:
          :  # basis functions                  49          :
          :  # atomic orbitals                  49          :
          :  # shells                           29          :
          :  # electrons                        52          :
          :  max. iterations                   250          :
          :  Hamiltonian                  GFN2-xTB          :
          :  restarted?                       true          :
          :  GBSA solvation                  false          :
          :  PC potential                    false          :
          :  electronic temp.          300.0000000     K    :
          :  accuracy                    1.0000000          :
          :  -> integral cutoff          0.2500000E+02      :
          :  -> integral neglect         0.1000000E-07      :
          :  -> SCF convergence          0.1000000E-05 Eh   :
          :  -> wf. convergence          0.1000000E-03 e    :
          :  Broyden damping             0.4000000          :
          ...................................................

 iter      E             dE          RMSdq      gap      omega  full diag
   1    -29.0907598 -0.290908E+02  0.155E+00    4.04       0.0  T
   2    -29.0919254 -0.116561E-02  0.918E-01    3.95       1.0  T
   3    -29.0904524  0.147302E-02  0.339E-01    3.97       1.0  T
   4    -29.0922486 -0.179618E-02  0.650E-02    3.94       1.0  T
   5    -29.0923138 -0.652058E-04  0.185E-02    3.94       1.2  T
   6    -29.0923151 -0.128727E-05  0.919E-03    3.94       2.5  T
   7    -29.0923152 -0.162948E-06  0.445E-03    3.95       5.2  T
   8    -29.0923154 -0.120552E-06  0.147E-03    3.95      15.6  T
   9    -29.0923154 -0.108743E-07  0.673E-04    3.95      34.1  T
  10    -29.0923154 -0.402123E-08  0.256E-04    3.95      89.8  T

   *** convergence criteria satisfied after 10 iterations ***

         #    Occupation            Energy/Eh            Energy/eV
      -------------------------------------------------------------
         1        2.0000           -0.6917529             -18.8236
       ...           ...                  ...                  ...
        20        2.0000           -0.4789234             -13.0322
        21        2.0000           -0.4430623             -12.0563
        22        2.0000           -0.4374612             -11.9039
        23        2.0000           -0.4188981             -11.3988
        24        2.0000           -0.4097966             -11.1511
        25        2.0000           -0.3977834             -10.8242
        26        2.0000           -0.3889614             -10.5842 (HOMO)
        27                         -0.2439724              -6.6388 (LUMO)
        28                         -0.2350040              -6.3948
        29                         -0.2190869              -5.9617
        30                         -0.1139703              -3.1013
        31                         -0.0461326              -1.2553
       ...                                ...                  ...
        49                          0.6056311              16.4801
      -------------------------------------------------------------
                  HL-Gap            0.1449891 Eh            3.9454 eV
             Fermi-level           -0.3164669 Eh           -8.6115 eV

 SCC (total)                   0 d,  0 h,  0 min,  1.206 sec
 SCC setup                      ...        0 min,  0.017 sec (  1.390%)
 Dispersion                     ...        0 min,  0.044 sec (  3.684%)
 classical contributions        ...        0 min,  0.019 sec (  1.552%)
 integral evaluation            ...        0 min,  0.047 sec (  3.879%)
 iterations                     ...        0 min,  0.953 sec ( 79.012%)
 molecular gradient             ...        0 min,  0.126 sec ( 10.436%)
 printout                       ...        0 min,  0.000 sec (  0.020%)

         :::::::::::::::::::::::::::::::::::::::::::::::::::::
         ::                     SUMMARY                     ::
         :::::::::::::::::::::::::::::::::::::::::::::::::::::
         :: total energy             -28.690353616016 Eh    ::
         :: gradient norm              0.067790222433 Eh/a0 ::
         :: HOMO-LUMO gap              3.945353024213 eV    ::
         ::.................................................::
         :: SCC energy               -29.092315368124 Eh    ::
         :: -> isotropic ES            0.034117264649 Eh    ::
         :: -> anisotropic ES          0.003750945848 Eh    ::
         :: -> anisotropic XC          0.015494998965 Eh    ::
         :: -> dispersion             -0.015645128901 Eh    ::
         :: repulsion energy           0.401893484461 Eh    ::
         :: add. restraining           0.000000000000 Eh    ::
         :: total charge              -0.000000000000 e     ::
         :::::::::::::::::::::::::::::::::::::::::::::::::::::

      ----------------------------------------------------------- 
     |                   =====================                   |
     |                        A N C O P T                        |
     |                   =====================                   |
     |               Approximate Normal Coordinate               |
     |                Rational Function Optimizer                |
      ----------------------------------------------------------- 

          ...................................................
          :                      SETUP                      :
          :.................................................:
          :   optimization level            normal          :
          :   max. optcycles                   200          :
          :   ANC micro-cycles                  20          :
          :   degrees of freedom                51          :
          :.................................................:
          :   RF solver                   davidson          :
          :   write xtbopt.log                true          :
          :   linear?                        false          :
          :   energy convergence         0.5000000E-05 Eh   :
          :   grad. convergence          0.1000000E-02 Eh/α :
          :   maximium RF displ.         1.0000000          :
          :   Hlow (freq-cutoff)         0.1000000E-01      :
          :   Hmax (freq-cutoff)         5.0000000          :
          :   S6 in model hess.         20.0000000          :
          ...................................................

generating ANC from model Hessian ...
Using Lindh-Hessian (1995)
 Shifting diagonal of input Hessian by    7.2872704458420926E-003
 Lowest  eigenvalues of input Hessian
    0.000000    0.000000    0.000000    0.000000    0.000000    0.000000
    0.010000    0.011680    0.014090    0.018628    0.020206    0.023471
    0.024335    0.029152    0.035052    0.047491    0.053854    0.066786
 Highest eigenvalues
    1.870486    1.939156    2.177872    2.707386    3.949909   20.327636


........................................................................
.............................. CYCLE    1 ..............................
........................................................................
   1    -29.0923154 -0.290923E+02  0.933E-05    3.95       0.0  T
   2    -29.0923154 -0.366605E-10  0.568E-05    3.95     403.6  T
   3    -29.0923154 -0.152447E-10  0.344E-05    3.95     667.3  T
     SCC iter.                  ...        0 min,  0.237 sec
     gradient                   ...        0 min,  0.123 sec
 * total energy  :   -28.6903536 Eh     change       -0.1945004E-09 Eh
   gradient norm :     0.0677891 Eh/α   predicted     0.0000000E+00 (-100.00%)
   displ. norm   :     0.3229798 α      lambda       -0.1159795E-01
   maximum displ.:     0.1829003 α      in ANC's #11, #10, #25, ...

........................................................................
.............................. CYCLE    2 ..............................
........................................................................
   1    -29.1356178 -0.291356E+02  0.269E-01    4.09       0.0  T
   2    -29.1357811 -0.163235E-03  0.177E-01    4.12       1.0  T
   3    -29.1357778  0.326514E-05  0.882E-02    4.11       1.0  T
   4    -29.1358243 -0.465462E-04  0.216E-02    4.12       1.1  T
   5    -29.1358317 -0.732120E-05  0.604E-03    4.11       3.8  T
   6    -29.1358319 -0.238026E-06  0.253E-03    4.11       9.1  T
   7    -29.1358319 -0.242119E-07  0.121E-03    4.11      18.9  T
   8    -29.1358319 -0.117305E-08  0.362E-04    4.11      63.4  T
   9    -29.1358319 -0.113323E-08  0.134E-04    4.11     171.8  T
     SCC iter.                  ...        0 min,  0.715 sec
     gradient                   ...        0 min,  0.122 sec
 * total energy  :   -28.6977428 Eh     change       -0.7389139E-02 Eh
   gradient norm :     0.0311275 Eh/α   predicted    -0.6406205E-02 ( -13.30%)
   displ. norm   :     0.2213583 α      lambda       -0.2195055E-02
   maximum displ.:     0.1270092 α      in ANC's #11, #6, #2, ...

........................................................................
.............................. CYCLE    3 ..............................
........................................................................
   1    -29.1531706 -0.291532E+02  0.146E-01    4.16       0.0  T
   2    -29.1532682 -0.976229E-04  0.102E-01    4.18       1.0  T
   3    -29.1532819 -0.137357E-04  0.521E-02    4.17       1.0  T
   4    -29.1532825 -0.617003E-06  0.171E-02    4.17       1.3  T
   5    -29.1532877 -0.513091E-05  0.282E-03    4.17       8.1  T
   6    -29.1532877 -0.298466E-07  0.136E-03    4.17      16.9  T
   7    -29.1532877 -0.740797E-08  0.506E-04    4.17      45.4  T
   8    -29.1532877 -0.518323E-09  0.191E-04    4.17     120.4  T
     SCC iter.                  ...        0 min,  0.655 sec
     gradient                   ...        0 min,  0.130 sec
 * total energy  :   -28.6983795 Eh     change       -0.6367828E-03 Eh
   gradient norm :     0.1157590 Eh/α   predicted    -0.1151368E-02 (  80.81%)
   displ. norm   :     0.1262183 α      lambda       -0.1553193E-02
   maximum displ.:     0.0785360 α      in ANC's #6, #2, #11, ...

........................................................................
.............................. CYCLE    4 ..............................
........................................................................
   1    -29.1570201 -0.291570E+02  0.744E-02    4.17       0.0  T
   2    -29.1570447 -0.246260E-04  0.511E-02    4.18       1.0  T
   3    -29.1570473 -0.260667E-05  0.254E-02    4.18       1.0  T
   4    -29.1570474 -0.666964E-07  0.855E-03    4.18       2.7  T
   5    -29.1570487 -0.136130E-05  0.121E-03    4.18      18.9  T
   6    -29.1570487 -0.291057E-08  0.568E-04    4.18      40.4  T
   7    -29.1570487 -0.117198E-08  0.187E-04    4.18     122.8  T
     SCC iter.                  ...        0 min,  0.582 sec
     gradient                   ...        0 min,  0.120 sec
 * total energy  :   -28.6981537 Eh     change        0.2258846E-03 Eh
   gradient norm :     0.1444006 Eh/α   predicted    -0.7889784E-03 (-449.28%)
   displ. norm   :     0.0948031 α      lambda       -0.1453955E-02
   maximum displ.:     0.0609924 α      in ANC's #11, #3, #6, ...

........................................................................
.............................. CYCLE    5 ..............................
........................................................................
   1    -29.1484538 -0.291485E+02  0.754E-02    4.16       0.0  T
   2    -29.1484716 -0.177811E-04  0.505E-02    4.15       1.0  T
   3    -29.1484730 -0.142625E-05  0.247E-02    4.15       1.0  T
   4    -29.1484745 -0.150681E-05  0.708E-03    4.15       3.2  T
   5    -29.1484755 -0.929652E-06  0.142E-03    4.15      16.2  T
   6    -29.1484755 -0.866228E-08  0.678E-04    4.15      33.8  T
   7    -29.1484755 -0.171084E-08  0.258E-04    4.15      88.8  T
     SCC iter.                  ...        0 min,  0.670 sec
     gradient                   ...        0 min,  0.148 sec
 * total energy  :   -28.6988503 Eh     change       -0.6966967E-03 Eh
   gradient norm :     0.0065415 Eh/α   predicted    -0.7335144E-03 (   5.28%)
   displ. norm   :     0.0605002 α      lambda       -0.8614011E-04
   maximum displ.:     0.0402129 α      in ANC's #2, #4, #3, ...

........................................................................
.............................. CYCLE    6 ..............................
........................................................................
   1    -29.1495027 -0.291495E+02  0.538E-02    4.15       0.0  T
   2    -29.1495029 -0.198751E-06  0.320E-02    4.15       1.0  T
   3    -29.1495028  0.120584E-06  0.325E-03    4.15       7.1  T
   4    -29.1495030 -0.208429E-06  0.114E-03    4.15      20.2  T
   5    -29.1495030 -0.422804E-08  0.599E-04    4.15      38.3  T
   6    -29.1495030 -0.209427E-08  0.141E-04    4.15     163.2  T
     SCC iter.                  ...        0 min,  0.621 sec
     gradient                   ...        0 min,  0.147 sec
 * total energy  :   -28.6988887 Eh     change       -0.3839373E-04 Eh
   gradient norm :     0.0058281 Eh/α   predicted    -0.4329378E-04 (  12.76%)
   displ. norm   :     0.0450024 α      lambda       -0.2951208E-04
   maximum displ.:     0.0410954 α      in ANC's #2, #6, #3, ...

........................................................................
.............................. CYCLE    7 ..............................
........................................................................
   1    -29.1496565 -0.291497E+02  0.219E-02    4.15       0.0  T
   2    -29.1496567 -0.170921E-06  0.129E-02    4.15       1.8  T
   3    -29.1496566  0.103479E-06  0.306E-03    4.15       7.5  T
   4    -29.1496567 -0.132973E-06  0.746E-04    4.15      30.8  T
   5    -29.1496567 -0.769838E-08  0.286E-04    4.15      80.2  T
     SCC iter.                  ...        0 min,  0.517 sec
     gradient                   ...        0 min,  0.139 sec
 * total energy  :   -28.6989132 Eh     change       -0.2445875E-04 Eh
   gradient norm :     0.0030086 Eh/α   predicted    -0.1478616E-04 ( -39.55%)
   displ. norm   :     0.0630030 α      lambda       -0.2967348E-04
   maximum displ.:     0.0555634 α      in ANC's #2, #4, #1, ...

........................................................................
.............................. CYCLE    8 ..............................
........................................................................
   1    -29.1493668 -0.291494E+02  0.291E-02    4.14       0.0  T
   2    -29.1493669 -0.930972E-07  0.170E-02    4.14       1.3  T
   3    -29.1493669  0.406286E-07  0.217E-03    4.14      10.6  T
   4    -29.1493669 -0.711761E-07  0.661E-04    4.14      34.7  T
   5    -29.1493669 -0.187070E-08  0.262E-04    4.14      87.7  T
     SCC iter.                  ...        0 min,  0.508 sec
     gradient                   ...        0 min,  0.166 sec
 * total energy  :   -28.6989357 Eh     change       -0.2245389E-04 Eh
   gradient norm :     0.0014435 Eh/α   predicted    -0.1489589E-04 ( -33.66%)
   displ. norm   :     0.0819206 α      lambda       -0.1490193E-04
   maximum displ.:     0.0724663 α      in ANC's #2, #4, #1, ...

........................................................................
.............................. CYCLE    9 ..............................
........................................................................
   1    -29.1493746 -0.291494E+02  0.378E-02    4.13       0.0  T
   2    -29.1493748 -0.157053E-06  0.221E-02    4.14       1.0  T
   3    -29.1493746  0.108779E-06  0.328E-03    4.14       7.0  T
   4    -29.1493748 -0.167067E-06  0.822E-04    4.14      27.9  T
   5    -29.1493748 -0.198446E-08  0.305E-04    4.14      75.3  T
     SCC iter.                  ...        0 min,  0.524 sec
     gradient                   ...        0 min,  0.148 sec
 * total energy  :   -28.6989507 Eh     change       -0.1505231E-04 Eh
   gradient norm :     0.0009869 Eh/α   predicted    -0.7474957E-05 ( -50.34%)
   displ. norm   :     0.0324237 α      lambda       -0.3888076E-05
   maximum displ.:     0.0299837 α      in ANC's #2, #4, #1, ...

........................................................................
.............................. CYCLE   10 ..............................
........................................................................
   1    -29.1495211 -0.291495E+02  0.170E-02    4.13       0.0  T
   2    -29.1495212 -0.466528E-07  0.993E-03    4.13       2.3  T
   3    -29.1495211  0.515493E-07  0.204E-03    4.13      11.3  T
   4    -29.1495212 -0.647245E-07  0.356E-04    4.13      64.5  T
   5    -29.1495212 -0.981153E-09  0.156E-04    4.13     146.9  T
     SCC iter.                  ...        0 min,  0.514 sec
     gradient                   ...        0 min,  0.160 sec
 * total energy  :   -28.6989547 Eh     change       -0.3954171E-05 Eh
   gradient norm :     0.0009514 Eh/α   predicted    -0.1953268E-05 ( -50.60%)
   displ. norm   :     0.0166377 α      lambda       -0.1187283E-05
   maximum displ.:     0.0158918 α      in ANC's #2, #6, #3, ...

   *** GEOMETRY OPTIMIZATION CONVERGED AFTER 10 ITERATIONS ***

------------------------------------------------------------------------
 total energy gain   :        -0.0086010 Eh       -5.3972 kcal/mol
 total RMSD          :         0.1564236 a0        0.0828 Å
 total power (kW/mol):        -2.2582045 (step)   -2.8777 (real)
------------------------------------------------------------------------

 ANCopt (total)                0 d,  0 h,  0 min,  7.847 sec
 optimizer setup                ...        0 min,  0.000 sec (  0.003%)
 model hessian                  ...        0 min,  0.003 sec (  0.038%)
 ANC generation                 ...        0 min,  0.001 sec (  0.008%)
 coordinate transformation      ...        0 min,  0.000 sec (  0.004%)
 single point calculation       ...        0 min,  7.706 sec ( 98.204%)
 optimization log               ...        0 min,  0.012 sec (  0.150%)
 hessian update                 ...        0 min,  0.112 sec (  1.426%)
 rational function              ...        0 min,  0.012 sec (  0.150%)

================
 final structure:
================
19
 xtb: 6.5.0 (97a52f5)
C            2.18705753710282       -0.83180004226466        0.28818470342950
N            1.07319125859175       -0.40040469607177        0.91675977258010
C           -0.12571297743836       -0.18543778161465        0.18238819074823
C           -0.11017494707061        0.62706748307904       -0.94394200271141
C            1.07876571818441       -0.05685284409120        2.31959560569477
C           -1.31171021189618       -0.78831209414857        0.58341401174929
C           -2.47309975723697       -0.57150538637034       -0.13522635523390
C           -2.45825749840570        0.24012681155362       -1.25706489228960
C           -1.27462503881556        0.83298459847579       -1.66170915426503
H           -1.32480225715533       -1.43996209388927        1.44472144628506
H            0.81590492734205        1.08140985575732       -1.25869087947939
O            2.28452691335688       -1.10247008486940       -0.88230417817327
H            1.94640897223349       -0.50136738012328        2.80438236747750
H            0.17511861142684       -0.42121178925258        2.80616028633970
H            1.12066254276535        1.02968307078330        2.44682116172594
H           -3.39136722229766       -1.04582107908328        0.17824952891117
H           -1.25703068957223        1.46344550457196       -2.53801197186278
H           -3.36675618351749        0.40533151409333       -1.81655031974060
H            3.03558431240249       -0.93612055653539        0.99340867881482

 Bond Distances (Angstroems)
 ---------------------------
C1-N2=1.3498         C1-O12=1.2053        C1-H19=1.1083        N2-C1=1.3498         N2-C3=1.4223         N2-C5=1.4443         
C3-N2=1.4223         C3-C4=1.3889         C3-C6=1.3896         C4-C3=1.3889         C4-C9=1.3833         C4-H11=1.0785        
C5-N2=1.4443         C5-H13=1.0888        C5-H14=1.0891        C5-H15=1.0948        C6-C3=1.3896         C6-C7=1.3829         
C6-H10=1.0801        C7-C6=1.3829         C7-C8=1.3847         C7-H16=1.0800        C8-C7=1.3847         C8-C9=1.3843         
C8-H18=1.0797        C9-C4=1.3833         C9-C8=1.3843         C9-H17=1.0797        H10-C6=1.0801        H11-C4=1.0785        
O12-C1=1.2053        H13-C5=1.0888        H14-C5=1.0891        H15-C5=1.0948        H16-C7=1.0800        H17-C9=1.0797        
H18-C8=1.0797        H19-C1=1.1083        
 C  H  Rav=1.0865 sigma=0.0094  Rmin=1.0785  Rmax=1.1083     9
 C  C  Rav=1.3856 sigma=0.0026  Rmin=1.3829  Rmax=1.3896     6
 N  C  Rav=1.4055 sigma=0.0404  Rmin=1.3498  Rmax=1.4443     3
 O  C  Rav=1.2053 sigma=0.0000  Rmin=1.2053  Rmax=1.2053     1

 selected bond angles (degree)
 --------------------
O12-C1-N2=126.21               H19-C1-N2=111.44               H19-C1-O12=122.34              C3-N2-C1=120.23                
C5-N2-C1=121.68                C5-N2-C3=117.96                C4-C3-N2=119.85                C6-C3-N2=120.32                
C6-C3-C4=119.83                C9-C4-C3=119.90                H11-C4-C3=119.52               H11-C4-C9=120.58               
H13-C5-N2=109.78               H14-C5-N2=110.56               H14-C5-H13=109.01              H15-C5-N2=110.43               
H15-C5-H13=108.84              H15-C5-H14=108.17              C7-C6-C3=119.92                H10-C6-C3=120.15               
H10-C6-C7=119.92               C8-C7-C6=120.26                H16-C7-C6=119.63               H16-C7-C8=120.11               
C9-C8-C7=119.80                H18-C8-C7=120.03               H18-C8-C9=120.16               C8-C9-C4=120.29                
H17-C9-C4=119.63               H17-C9-C8=120.08               

 selected dihedral angles (degree)
 ---------------------------------
C3-N2-C1-O12=358.00           C3-N2-C1-H19=179.21           C5-N2-C1-O12=182.30           C5-N2-C1-H19=  3.51           
C4-C3-N2-C1=306.95            C4-C3-N2-C5=122.81            C6-C3-N2-C1=126.72            C6-C3-N2-C5=302.57            
C9-C4-C3-N2=179.77            C9-C4-C3-C6=  0.00            H11-C4-C3-N2=  0.62           H11-C4-C3-C6=180.85           
H13-C5-N2-C1=341.29           H13-C5-N2-C3=165.50           H14-C5-N2-C1=220.99           H14-C5-N2-C3= 45.20           
H15-C5-N2-C1=101.31           H15-C5-N2-C3=285.51           C7-C6-C3-N2=179.87            C7-C6-C3-C4=359.64            
H10-C6-C3-N2=358.77           H10-C6-C3-C4=178.54           C8-C7-C6-C3=  0.27            C8-C7-C6-H10=181.36           
H16-C7-C6-C3=179.74           H16-C7-C6-H10=  0.84          C9-C8-C7-C6=  0.19            C9-C8-C7-H16=180.72           
H18-C8-C7-C6=179.88           H18-C8-C7-H16=  0.41          C8-C9-C4-C3=  0.45            C8-C9-C4-H11=179.60           
H17-C9-C4-C3=180.15           H17-C9-C4-H11=359.30          C4-C9-C8-C7=359.45            C4-C9-C8-H18=179.76           
H17-C9-C8-C7=179.75           H17-C9-C8-H18=  0.06          
           -------------------------------------------------
          |                Final Singlepoint                |
           -------------------------------------------------

          ...................................................
          :                      SETUP                      :
          :.................................................:
          :  # basis functions                  49          :
          :  # atomic orbitals                  49          :
          :  # shells                           29          :
          :  # electrons                        52          :
          :  max. iterations                   250          :
          :  Hamiltonian                  GFN2-xTB          :
          :  restarted?                      false          :
          :  GBSA solvation                  false          :
          :  PC potential                    false          :
          :  electronic temp.          300.0000000     K    :
          :  accuracy                    1.0000000          :
          :  -> integral cutoff          0.2500000E+02      :
          :  -> integral neglect         0.1000000E-07      :
          :  -> SCF convergence          0.1000000E-05 Eh   :
          :  -> wf. convergence          0.1000000E-03 e    :
          :  Broyden damping             0.4000000          :
          ...................................................

 iter      E             dE          RMSdq      gap      omega  full diag
   1    -29.1495212 -0.291495E+02  0.599E-05    4.13       0.0  T
   2    -29.1495212 -0.118519E-10  0.352E-05    4.13     651.6  T
   3    -29.1495212 -0.374456E-11  0.219E-05    4.13    1045.7  T

   *** convergence criteria satisfied after 3 iterations ***

         #    Occupation            Energy/Eh            Energy/eV
      -------------------------------------------------------------
         1        2.0000           -0.6978064             -18.9883
       ...           ...                  ...                  ...
        20        2.0000           -0.4839592             -13.1692
        21        2.0000           -0.4424627             -12.0400
        22        2.0000           -0.4384981             -11.9321
        23        2.0000           -0.4217534             -11.4765
        24        2.0000           -0.4130160             -11.2387
        25        2.0000           -0.3962703             -10.7831
        26        2.0000           -0.3890321             -10.5861 (HOMO)
        27                         -0.2371347              -6.4528 (LUMO)
        28                         -0.2311703              -6.2905
        29                         -0.2043885              -5.5617
        30                         -0.1010960              -2.7510
        31                         -0.0043812              -0.1192
       ...                                ...                  ...
        49                          0.6690163              18.2049
      -------------------------------------------------------------
                  HL-Gap            0.1518974 Eh            4.1333 eV
             Fermi-level           -0.3130834 Eh           -8.5194 eV

 SCC (total)                   0 d,  0 h,  0 min,  0.544 sec
 SCC setup                      ...        0 min,  0.010 sec (  1.842%)
 Dispersion                     ...        0 min,  0.024 sec (  4.437%)
 classical contributions        ...        0 min,  0.012 sec (  2.176%)
 integral evaluation            ...        0 min,  0.036 sec (  6.700%)
 iterations                     ...        0 min,  0.318 sec ( 58.521%)
 molecular gradient             ...        0 min,  0.143 sec ( 26.236%)
 printout                       ...        0 min,  0.000 sec (  0.032%)

         :::::::::::::::::::::::::::::::::::::::::::::::::::::
         ::                     SUMMARY                     ::
         :::::::::::::::::::::::::::::::::::::::::::::::::::::
         :: total energy             -28.698954662658 Eh    ::
         :: gradient norm              0.000951629609 Eh/a0 ::
         :: HOMO-LUMO gap              4.133337381479 eV    ::
         ::.................................................::
         :: SCC energy               -29.149521196990 Eh    ::
         :: -> isotropic ES            0.034229135548 Eh    ::
         :: -> anisotropic ES          0.003437100828 Eh    ::
         :: -> anisotropic XC          0.013871381293 Eh    ::
         :: -> dispersion             -0.016020319171 Eh    ::
         :: repulsion energy           0.450500224335 Eh    ::
         :: add. restraining           0.000000126277 Eh    ::
         :: total charge              -0.000000000000 e     ::
         :::::::::::::::::::::::::::::::::::::::::::::::::::::

           -------------------------------------------------
          |                Property Printout                |
           -------------------------------------------------

    * Orbital Energies and Occupations

         #    Occupation            Energy/Eh            Energy/eV
      -------------------------------------------------------------
         1        2.0000           -0.6978064             -18.9883
       ...           ...                  ...                  ...
        14        2.0000           -0.5104912             -13.8912
        15        2.0000           -0.5054148             -13.7530
        16        2.0000           -0.5009404             -13.6313
        17        2.0000           -0.4941298             -13.4460
        18        2.0000           -0.4886974             -13.2981
        19        2.0000           -0.4849794             -13.1970
        20        2.0000           -0.4839592             -13.1692
        21        2.0000           -0.4424627             -12.0400
        22        2.0000           -0.4384981             -11.9321
        23        2.0000           -0.4217534             -11.4765
        24        2.0000           -0.4130160             -11.2387
        25        2.0000           -0.3962703             -10.7831
        26        2.0000           -0.3890321             -10.5861 (HOMO)
        27                         -0.2371347              -6.4528 (LUMO)
        28                         -0.2311703              -6.2905
        29                         -0.2043885              -5.5617
        30                         -0.1010960              -2.7510
        31                         -0.0043812              -0.1192
        32                          0.0791603               2.1541
        33                          0.1072520               2.9185
        34                          0.1307271               3.5573
        35                          0.1497777               4.0757
        36                          0.1610653               4.3828
        37                          0.1722608               4.6875
       ...                                ...                  ...
        49                          0.6690163              18.2049
      -------------------------------------------------------------
                  HL-Gap            0.1518974 Eh            4.1333 eV
             Fermi-level           -0.3130834 Eh           -8.5194 eV

     #   Z          covCN         q      C6AA      α(0)
     1   6 C        2.713     0.248    22.830     7.821
     2   7 N        2.735    -0.085    22.904     7.108
     3   6 C        2.926     0.072    26.384     8.424
     4   6 C        2.922    -0.031    28.773     8.796
     5   6 C        3.698    -0.047    21.589     6.646
     6   6 C        2.922    -0.041    29.030     8.836
     7   6 C        2.921    -0.028    28.701     8.785
     8   6 C        2.920    -0.031    28.769     8.796
     9   6 C        2.921    -0.025    28.634     8.775
    10   1 H        0.926     0.036     2.502     2.474
    11   1 H        0.926     0.052     2.291     2.367
    12   8 O        0.857    -0.408    21.833     6.265
    13   1 H        0.925     0.058     2.218     2.329
    14   1 H        0.925     0.062     2.176     2.307
    15   1 H        0.924     0.052     2.296     2.370
    16   1 H        0.926     0.038     2.479     2.462
    17   1 H        0.926     0.041     2.429     2.437
    18   1 H        0.926     0.038     2.475     2.460
    19   1 H        0.922    -0.002     3.092     2.750

 Mol. C6AA /au·bohr⁶  :       4195.406336
 Mol. C8AA /au·bohr⁸  :      98811.334162
 Mol. α(0) /au        :        102.206312


Wiberg/Mayer (AO) data.
largest (>0.10) Wiberg bond orders for each atom

 ---------------------------------------------------------------------------
     #   Z sym  total        # sym  WBO       # sym  WBO       # sym  WBO
 ---------------------------------------------------------------------------
     1   6 C    3.955 --    12 O    1.729     2 N    1.247    19 H    0.917
     2   7 N    3.521 --     1 C    1.247     3 C    1.000     5 C    0.997
                            12 O    0.205
     3   6 C    3.963 --     4 C    1.398     6 C    1.397     2 N    1.000
                             8 C    0.105
     4   6 C    3.990 --     9 C    1.443     3 C    1.398    11 H    0.968
                             7 C    0.110
     5   6 C    3.971 --     2 N    0.997    13 H    0.978    14 H    0.976
                            15 H    0.975
     6   6 C    3.991 --     7 C    1.447     3 C    1.397    10 H    0.967
                             9 C    0.111
     7   6 C    3.992 --     6 C    1.447     8 C    1.435    16 H    0.971
                             4 C    0.110
     8   6 C    3.992 --     9 C    1.440     7 C    1.435    18 H    0.971
                             3 C    0.105
     9   6 C    3.992 --     4 C    1.443     8 C    1.440    17 H    0.970
                             6 C    0.111
    10   1 H    0.999 --     6 C    0.967
    11   1 H    0.997 --     4 C    0.968
    12   8 O    2.035 --     1 C    1.729     2 N    0.205
    13   1 H    0.996 --     5 C    0.978
    14   1 H    0.996 --     5 C    0.976
    15   1 H    0.997 --     5 C    0.975
    16   1 H    0.998 --     7 C    0.971
    17   1 H    0.998 --     9 C    0.970
    18   1 H    0.998 --     8 C    0.971
    19   1 H    0.999 --     1 C    0.917
 ---------------------------------------------------------------------------

Topologies differ in total number of bonds
Writing topology from bond orders to xtbtopo.mol

molecular dipole:
                 x           y           z       tot (Debye)
 q only:       -0.833       0.583       1.186
   full:       -0.754       0.602       1.446       4.417
molecular quadrupole (traceless):
                xx          xy          yy          xz          yz          zz
 q only:       -2.683       3.776      -1.546       7.233      -3.747       4.230
  q+dip:       -0.492       5.237      -2.834       9.464      -7.347       3.326
   full:       -1.970       4.727      -1.396       9.027      -5.546       3.366

           -------------------------------------------------
          |                Geometry Summary                 |
           -------------------------------------------------

      molecular mass/u    :      135.1634621
   center of mass at/Å    :       -0.0339029      -0.2399121      -0.0271812
  moments of inertia/u·Å² :        0.2009861E+03   0.4918526E+03   0.6062662E+03
rotational constants/cm⁻¹ :        0.8387461E-01   0.3427375E-01   0.2780566E-01

 * 18 selected distances

     #   Z          #   Z                                           value/Å
     1   6 C        2   7 N                                       1.3497803
     2   7 N        3   6 C                                       1.4222813
     3   6 C        4   6 C                                       1.3888939
     2   7 N        5   6 C                                       1.4443018 (max)
     3   6 C        6   6 C                                       1.3895571
     6   6 C        7   6 C                                       1.3828504
     7   6 C        8   6 C                                       1.3847343
     4   6 C        9   6 C                                       1.3833062
     8   6 C        9   6 C                                       1.3842700
     6   6 C       10   1 H                                       1.0801249
     4   6 C       11   1 H                                       1.0784795 (min)
     1   6 C       12   8 O                                       1.2053245
     5   6 C       13   1 H                                       1.0887683
     5   6 C       14   1 H                                       1.0890734
     5   6 C       15   1 H                                       1.0947613
     7   6 C       16   1 H                                       1.0800268
     9   6 C       17   1 H                                       1.0796747
     8   6 C       18   1 H                                       1.0796697

 * 4 distinct bonds (by element types)

   Z      Z             #   av. dist./Å        max./Å        min./Å
   1 H    6 C           8     1.0838223     1.0947613     1.0784795
   6 C    6 C           6     1.3856020     1.3895571     1.3828504
   6 C    7 N           3     1.4054545     1.4443018     1.3497803
   6 C    8 O           1     1.2053245     1.2053245     1.2053245


optimized geometry written to: xtbopt.xyz


           -------------------------------------------------
          | TOTAL ENERGY              -28.698954662658 Eh   |
          | GRADIENT NORM               0.000951629609 Eh/α |
          | HOMO-LUMO GAP               4.133337381479 eV   |
           -------------------------------------------------
########################################################################
[WARNING] Runtime exception occurred
-1- restart_readRestart: Number of electron missmatch in restart file.
########################################################################

------------------------------------------------------------------------
 * finished run on 2023/11/18 at 08:20:23.201     
------------------------------------------------------------------------
 total:
 * wall-time:     0 d,  0 h,  0 min,  9.754 sec
 *  cpu-time:     0 d,  0 h,  6 min, 57.650 sec
 * ratio c/w:    42.819 speedup
 SCF:
 * wall-time:     0 d,  0 h,  0 min,  1.207 sec
 *  cpu-time:     0 d,  0 h,  0 min, 50.081 sec
 * ratio c/w:    41.504 speedup
 ANC optimizer:
 * wall-time:     0 d,  0 h,  0 min,  8.406 sec
 *  cpu-time:     0 d,  0 h,  6 min,  2.646 sec
 * ratio c/w:    43.141 speedup

