
    -----------------------------------------------------------------------
          Psi4: An Open-Source Ab Initio Electronic Structure Package
                               Psi4 1.6 release

                         Git: Rev {HEAD} 77475b5 


    D. G. A. Smith, L. A. Burns, A. C. Simmonett, R. M. Parrish,
    M. C. Schieber, R. Galvelis, P. Kraus, H. Kruse, R. Di Remigio,
    A. Alenaizan, A. M. James, S. Lehtola, J. P. Misiewicz, M. Scheurer,
    R. A. Shaw, J. B. Schriber, Y. Xie, Z. L. Glick, D. A. Sirianni,
    J. S. O'Brien, J. M. Waldrop, A. Kumar, E. G. Hohenstein,
    B. P. Pritchard, B. R. Brooks, H. F. Schaefer III, A. Yu. Sokolov,
    K. Patkowski, A. E. DePrince III, U. Bozkaya, R. A. King,
    F. A. Evangelista, J. M. Turney, T. D. Crawford, C. D. Sherrill,
    J. Chem. Phys. 152(18) 184108 (2020). https://doi.org/10.1063/5.0006002

                            Additional Code Authors
    E. T. Seidl, C. L. Janssen, E. F. Valeev, M. L. Leininger,
    J. F. Gonthier, R. M. Richard, H. R. McAlexander, M. Saitow, X. Wang,
    P. Verma, M. H. Lechner, and A. Jiang

             Previous Authors, Complete List of Code Contributors,
                       and Citations for Specific Modules
    https://github.com/psi4/psi4/blob/master/codemeta.json
    https://github.com/psi4/psi4/graphs/contributors
    http://psicode.org/psi4manual/master/introduction.html#citing-psifour

    -----------------------------------------------------------------------


    Psi4 started on: Saturday, 18 November 2023 08:31AM

    Process ID: 1127861
    Host:       node165.bme.utexas.edu
    PSIDATADIR: /home/liuchw/anaconda3/envs/poltype2022/share/psi4
    Memory:     500.0 MiB
    Threads:    1
    
  ==> Input File <==

--------------------------------------------------------------------------
molecule { 
0 1
 C    2.282634    0.122404    0.377265
 N    1.101837   -0.308452    0.879012
 C   -0.121430   -0.094761    0.192174
 C   -0.168686   -0.173927   -1.196702
 C    1.074930   -1.071186    2.107409
 C   -1.283888    0.216506    0.891751
 C   -2.468591    0.436311    0.213177
 C   -2.511926    0.355510   -1.167618
 C   -1.356827    0.052611   -1.867023
 H   -1.274428    0.307024    1.966899
 H    0.724520   -0.409188   -1.750418
 O    2.467765    0.683800   -0.672731
 H    0.350753   -0.663630    2.812037
 H    2.055288   -1.032945    2.579543
 H    0.812926   -2.112121    1.902138
 H   -3.361505    0.678698    0.770522
 H   -1.377702   -0.012968   -2.944499
 H   -3.438605    0.529980   -1.693166
 H    3.116617   -0.104880    1.070817
}
memory 20GB
set_num_threads(5)
psi4_io.set_default_path("/scratch/liuchw/Psi4-3_24_Index_0-farH_in17")
set freeze_core True
E, wfn = energy('wb97x-d/6-311+G*',return_wfn=True)
oeprop(wfn,"WIBERG_LOWDIN_INDICES")
clean()
--------------------------------------------------------------------------

  Memory set to  18.626 GiB by Python driver.
  Threads set to 5 by Python driver.

Scratch directory: /scratch/liuchw/Psi4-3_24_Index_0-farH_in17/

*** tstart() called on node165.bme.utexas.edu
*** at Sat Nov 18 08:31:27 2023

   => Loading Basis Set <=

    Name: 6-311+G*
    Role: ORBITAL
    Keyword: BASIS
    atoms 1, 3-9       entry C          line   130 file /home/liuchw/anaconda3/envs/poltype2022/share/psi4/basis/6-311pgs.gbs 
    atoms 2            entry N          line   151 file /home/liuchw/anaconda3/envs/poltype2022/share/psi4/basis/6-311pgs.gbs 
    atoms 10-11, 13-19 entry H          line    47 file /home/liuchw/anaconda3/envs/poltype2022/share/psi4/basis/6-311pgs.gbs 
    atoms 12           entry O          line   172 file /home/liuchw/anaconda3/envs/poltype2022/share/psi4/basis/6-311pgs.gbs 

   => WB97X-D: Empirical Dispersion <=

    Chai and Head-Gordon Dispersion Correction
    Chai, J.-D.; Head-Gordon, M. (2010), J. Chem. Phys., 132: 6615-6620

        s6 =       1.000000


         ---------------------------------------------------------
                                   SCF
               by Justin Turney, Rob Parrish, Andy Simmonett
                          and Daniel G. A. Smith
                              RKS Reference
                        5 Threads,  19073 MiB Core
         ---------------------------------------------------------

  ==> Geometry <==

    Molecular point group: c1
    Full point group: C1

    Geometry (in Angstrom), charge = 0, multiplicity = 1:

       Center              X                  Y                   Z               Mass       
    ------------   -----------------  -----------------  -----------------  -----------------
         C            2.298592335120     0.108355078025     0.370568020582    12.000000000000
         N            1.117795335120    -0.322500921975     0.872315020582    14.003074004430
         C           -0.105471664880    -0.108809921975     0.185477020582    12.000000000000
         C           -0.152727664880    -0.187975921975    -1.203398979418    12.000000000000
         C            1.090888335120    -1.085234921975     2.100712020582    12.000000000000
         C           -1.267929664880     0.202457078025     0.885054020582    12.000000000000
         C           -2.452632664880     0.422262078025     0.206480020582    12.000000000000
         C           -2.495967664880     0.341461078025    -1.174314979418    12.000000000000
         C           -1.340868664880     0.038562078025    -1.873719979418    12.000000000000
         H           -1.258469664880     0.292975078025     1.960202020582     1.007825032230
         H            0.740478335120    -0.423236921975    -1.757114979418     1.007825032230
         O            2.483723335120     0.669751078025    -0.679427979418    15.994914619570
         H            0.366711335120    -0.677678921975     2.805340020582     1.007825032230
         H            2.071246335120    -1.046993921975     2.572846020582     1.007825032230
         H            0.828884335120    -2.126169921975     1.895441020582     1.007825032230
         H           -3.345546664880     0.664649078025     0.763825020582     1.007825032230
         H           -1.361743664880    -0.027016921975    -2.951195979418     1.007825032230
         H           -3.422646664880     0.515931078025    -1.699862979418     1.007825032230
         H            3.132575335120    -0.118928921975     1.064120020582     1.007825032230

  Running in c1 symmetry.

  Rotational constants: A =      0.08462  B =      0.03513  C =      0.02659 [cm^-1]
  Rotational constants: A =   2536.70336  B =   1053.13652  C =    797.24333 [MHz]
  Nuclear repulsion =  499.555550092591886

  Charge       = 0
  Multiplicity = 1
  Electrons    = 72
  Nalpha       = 36
  Nbeta        = 36

  ==> Algorithm <==

  SCF Algorithm Type is DF.
  DIIS enabled.
  MOM disabled.
  Fractional occupation disabled.
  Guess Type is SAD.
  Energy threshold   = 1.00e-06
  Density threshold  = 1.00e-06
  Integral threshold = 1.00e-12

  ==> Primary Basis <==

  Basis Set: 6-311+G*
    Blend: 6-311+G*
    Number of shells: 127
    Number of basis functions: 247
    Number of Cartesian functions: 257
    Spherical Harmonics?: true
    Max angular momentum: 2

  ==> DFT Potential <==

   => LibXC <=

    Version 5.1.5
    S. Lehtola, C. Steigemann, M. J. Oliveira, and M. A. Marques, SoftwareX 7, 1 (2018) (10.1016/j.softx.2017.11.002)

   => Composite Functional: WB97X-D <= 

    wB97X-D Hyb-GGA Exchange-Correlation Functional

    J.-D. Chai and M. Head-Gordon, Phys. Chem. Chem. Phys. 10, 6615 (2008) (10.1039/B810189B)

    Deriv               =              1
    GGA                 =           TRUE
    Meta                =          FALSE

    Exchange Hybrid     =           TRUE
    MP2 Hybrid          =          FALSE

   => Exchange-Correlation Functionals <=

    1.0000   wB97X-D range-separated functional

   => Exact (HF) Exchange <=

    0.7780            HF,LR [omega = 0.2000]
    0.2220               HF 

   => LibXC Density Thresholds  <==

    XC_HYB_GGA_XC_WB97X_D:  1.00E-14 

   => Molecular Quadrature <=

    Radial Scheme          =       TREUTLER
    Pruning Scheme         =           NONE
    Nuclear Scheme         =       TREUTLER

    Blocking Scheme        =         OCTREE
    BS radius alpha        =              1
    Pruning alpha          =              1
    Radial Points          =             75
    Spherical Points       =            302
    Total Points           =         400897
    Total Blocks           =           3017
    Max Points             =            256
    Max Functions          =            227
    Weights Tolerance      =       1.00E-15

   => Loading Basis Set <=

    Name: (6-311+G* AUX)
    Role: JKFIT
    Keyword: DF_BASIS_SCF
    atoms 1, 3-9       entry C          line   200 file /home/liuchw/anaconda3/envs/poltype2022/share/psi4/basis/heavy-aug-cc-pvtz-jkfit.gbs 
    atoms 2            entry N          line   262 file /home/liuchw/anaconda3/envs/poltype2022/share/psi4/basis/heavy-aug-cc-pvtz-jkfit.gbs 
    atoms 10-11, 13-19 entry H          line   116 file /home/liuchw/anaconda3/envs/poltype2022/share/psi4/basis/heavy-aug-cc-pvtz-jkfit.gbs 
    atoms 12           entry O          line   324 file /home/liuchw/anaconda3/envs/poltype2022/share/psi4/basis/heavy-aug-cc-pvtz-jkfit.gbs 

  ==> Integral Setup <==

  DFHelper Memory: AOs need 1.701 GiB; user supplied 11.963 GiB. Using in-core AOs.

  ==> MemDFJK: Density-Fitted J/K Matrices <==

    J tasked:                   Yes
    K tasked:                   Yes
    wK tasked:                  Yes
    Omega:                2.000E-01
    OpenMP threads:               5
    Memory [MiB]:             12249
    Algorithm:                 Core
    Schwarz Cutoff:           1E-12
    Mask sparsity (%):       6.3007
    Fitting Condition:        1E-10

   => Auxiliary Basis Set <=

  Basis Set: (6-311+G* AUX)
    Blend: HEAVY-AUG-CC-PVTZ-JKFIT
    Number of shells: 390
    Number of basis functions: 1310
    Number of Cartesian functions: 1625
    Spherical Harmonics?: true
    Max angular momentum: 4

  Cached 100.0% of DFT collocation blocks in 2.007 [GiB].

  Minimum eigenvalue in the overlap matrix is 2.2888888738E-06.
  Reciprocal condition number of the overlap matrix is 1.6719896554E-07.
    Using symmetric orthogonalization.

  ==> Pre-Iterations <==

  SCF Guess: Superposition of Atomic Densities via on-the-fly atomic UHF (no occupation information).

   -------------------------
    Irrep   Nso     Nmo    
   -------------------------
     A        247     247 
   -------------------------
    Total     247     247
   -------------------------

  ==> Iterations <==

                           Total Energy        Delta E     RMS |[F,P]|

   @DF-RKS iter SAD:  -439.71281394266936   -4.39713e+02   0.00000e+00 
   @DF-RKS iter   1:  -439.74424604802874   -3.14321e-02   3.92224e-03 ADIIS/DIIS
   @DF-RKS iter   2:  -439.88157582210812   -1.37330e-01   3.56813e-03 ADIIS/DIIS
   @DF-RKS iter   3:  -440.18306575219799   -3.01490e-01   8.22322e-04 ADIIS/DIIS
   @DF-RKS iter   4:  -440.19682026050089   -1.37545e-02   2.22778e-04 ADIIS/DIIS
   @DF-RKS iter   5:  -440.19797800997952   -1.15775e-03   6.37145e-05 DIIS
   @DF-RKS iter   6:  -440.19807787020630   -9.98602e-05   2.07074e-05 DIIS
   @DF-RKS iter   7:  -440.19808912740376   -1.12572e-05   4.47832e-06 DIIS
   @DF-RKS iter   8:  -440.19808996275322   -8.35349e-07   1.89370e-06 DIIS
   @DF-RKS iter   9:  -440.19809013856872   -1.75816e-07   5.70310e-07 DIIS
  Energy and wave function converged.


  ==> Post-Iterations <==

   Electrons on quadrature grid:
      Ntotal   =   71.9999824248 ; deviation = -1.758e-05 

    Orbital Energies [Eh]
    ---------------------

    Doubly Occupied:                                                      

       1A    -19.220862     2A    -14.483837     3A    -10.389038  
       4A    -10.337442     5A    -10.333583     6A    -10.296115  
       7A    -10.293512     8A    -10.290421     9A    -10.288927  
      10A    -10.287858    11A     -1.157136    12A     -1.069983  
      13A     -0.966833    14A     -0.865540    15A     -0.859974  
      16A     -0.822048    17A     -0.751645    18A     -0.712837  
      19A     -0.673079    20A     -0.617517    21A     -0.608279  
      22A     -0.576844    23A     -0.575289    24A     -0.544851  
      25A     -0.537510    26A     -0.516086    27A     -0.508743  
      28A     -0.499819    29A     -0.489041    30A     -0.466894  
      31A     -0.450297    32A     -0.438800    33A     -0.376899  
      34A     -0.353039    35A     -0.334927    36A     -0.309006  

    Virtual:                                                              

      37A      0.041867    38A      0.050846    39A      0.056258  
      40A      0.068272    41A      0.076433    42A      0.081668  
      43A      0.089886    44A      0.091975    45A      0.101846  
      46A      0.106757    47A      0.118118    48A      0.123079  
      49A      0.124311    50A      0.131180    51A      0.147112  
      52A      0.150393    53A      0.158879    54A      0.165517  
      55A      0.172850    56A      0.175665    57A      0.191357  
      58A      0.195094    59A      0.198474    60A      0.210756  
      61A      0.212381    62A      0.218481    63A      0.222717  
      64A      0.223141    65A      0.234368    66A      0.241937  
      67A      0.248119    68A      0.251891    69A      0.255771  
      70A      0.263073    71A      0.268884    72A      0.277934  
      73A      0.279490    74A      0.284507    75A      0.288547  
      76A      0.297101    77A      0.301028    78A      0.305057  
      79A      0.308681    80A      0.310992    81A      0.324650  
      82A      0.328769    83A      0.339047    84A      0.351547  
      85A      0.356886    86A      0.369419    87A      0.380650  
      88A      0.394484    89A      0.401881    90A      0.409241  
      91A      0.412708    92A      0.416497    93A      0.428045  
      94A      0.436624    95A      0.473531    96A      0.491985  
      97A      0.512020    98A      0.525003    99A      0.542597  
     100A      0.554496   101A      0.584872   102A      0.602353  
     103A      0.607227   104A      0.617491   105A      0.621042  
     106A      0.625687   107A      0.650255   108A      0.660825  
     109A      0.663202   110A      0.685782   111A      0.693422  
     112A      0.700523   113A      0.708741   114A      0.723460  
     115A      0.737661   116A      0.752850   117A      0.756261  
     118A      0.773849   119A      0.781282   120A      0.786868  
     121A      0.792413   122A      0.811530   123A      0.814990  
     124A      0.818314   125A      0.845641   126A      0.851851  
     127A      0.872402   128A      0.915794   129A      0.918901  
     130A      0.943853   131A      0.951322   132A      0.952315  
     133A      0.965955   134A      0.978418   135A      0.980880  
     136A      0.983396   137A      1.025969   138A      1.062598  
     139A      1.079712   140A      1.106246   141A      1.137316  
     142A      1.157502   143A      1.198737   144A      1.218330  
     145A      1.244571   146A      1.258984   147A      1.275604  
     148A      1.285836   149A      1.301610   150A      1.332001  
     151A      1.347832   152A      1.365513   153A      1.425222  
     154A      1.444795   155A      1.467867   156A      1.498038  
     157A      1.583698   158A      1.608949   159A      1.619601  
     160A      1.644436   161A      1.653898   162A      1.683284  
     163A      1.707679   164A      1.717732   165A      1.733941  
     166A      1.780646   167A      1.822863   168A      1.851738  
     169A      1.863503   170A      1.873761   171A      1.895037  
     172A      1.902512   173A      1.927795   174A      1.949602  
     175A      2.019298   176A      2.028728   177A      2.045681  
     178A      2.089204   179A      2.107570   180A      2.121341  
     181A      2.212211   182A      2.253798   183A      2.312987  
     184A      2.372480   185A      2.385674   186A      2.410749  
     187A      2.431941   188A      2.478650   189A      2.482733  
     190A      2.508745   191A      2.529180   192A      2.554157  
     193A      2.602350   194A      2.613250   195A      2.686577  
     196A      2.701559   197A      2.773845   198A      2.779441  
     199A      2.817530   200A      2.868539   201A      2.881940  
     202A      2.919719   203A      2.941666   204A      2.957612  
     205A      2.998568   206A      3.019067   207A      3.033687  
     208A      3.045589   209A      3.099430   210A      3.184415  
     211A      3.242676   212A      3.294992   213A      3.300436  
     214A      3.404139   215A      3.415280   216A      3.429895  
     217A      3.433126   218A      3.448391   219A      3.468917  
     220A      3.479528   221A      3.487148   222A      3.604227  
     223A      3.638234   224A      3.695165   225A      3.739905  
     226A      3.771130   227A      3.902650   228A      4.012962  
     229A      4.031433   230A      4.128986   231A      4.153588  
     232A      4.885796   233A      4.906969   234A      5.082450  
     235A      5.177140   236A      5.306442   237A      5.871776  
     238A     23.482590   239A     23.692249   240A     23.989979  
     241A     23.998793   242A     24.024754   243A     24.185969  
     244A     24.211250   245A     24.315790   246A     35.680396  
     247A     50.130872  

    Final Occupation by Irrep:
              A 
    DOCC [    36 ]

  @DF-RKS Final Energy:  -440.19809013856872

   => Energetics <=

    Nuclear Repulsion Energy =            499.5555500925918864
    One-Electron Energy =               -1585.7293142250841811
    Two-Electron Energy =                 688.9375463718307628
    DFT Exchange-Correlation Energy =     -42.9519339186543050
    Empirical Dispersion Energy =          -0.0099384592529022
    VV10 Nonlocal Energy =                  0.0000000000000000
    Total Energy =                       -440.1980901385687730

Computation Completed


Properties will be evaluated at   0.000000,   0.000000,   0.000000 [a0]

Properties computed using the SCF density matrix


 Multipole Moments:

 ------------------------------------------------------------------------------------
     Multipole            Electronic (a.u.)      Nuclear  (a.u.)        Total (a.u.)
 ------------------------------------------------------------------------------------

 L = 1.  Multiply by 2.5417464519 to convert [e a0] to [Debye]
 Dipole X            :          1.4850840           -2.0992228           -0.6141388
 Dipole Y            :          2.0020490           -2.7580711           -0.7560221
 Dipole Z            :         -3.2075853            4.3568098            1.1492245
 Magnitude           :                                                    1.5064704

 ------------------------------------------------------------------------------------

*** tstop() called on node165.bme.utexas.edu at Sat Nov 18 08:31:39 2023
Module time:
	user time   =      54.45 seconds =       0.91 minutes
	system time =       2.10 seconds =       0.04 minutes
	total time  =         12 seconds =       0.20 minutes
Total time:
	user time   =      54.45 seconds =       0.91 minutes
	system time =       2.10 seconds =       0.04 minutes
	total time  =         12 seconds =       0.20 minutes


Properties will be evaluated at   0.000000,   0.000000,   0.000000 [a0]
OEProp: No title given, name of density matrix used for the following properties is 'SCF density'


  Wiberg Bond Indices using Orthogonal Lowdin Orbitals:

  Irrep: 1 Size: 19 x 19

                 1                   2                   3                   4                   5

    1     0.00000000000000     1.41741337570413     0.10728123248753     0.04902036076756     0.13476697913312
    2     1.41741337570413     0.00000000000000     1.11793974456510     0.11729951282404     1.16978380908886
    3     0.10728123248753     1.11793974456510     0.00000000000000     1.40074878297479     0.10690867634217
    4     0.04902036076756     0.11729951282404     1.40074878297479     0.00000000000000     0.02176825242979
    5     0.13476697913312     1.16978380908886     0.10690867634217     0.02176825242979     0.00000000000000
    6     0.02906715989841     0.11766576196349     1.41006041283204     0.12940492157978     0.05549260121024
    7     0.00381550073477     0.01569470515664     0.13715834722622     0.14331005833385     0.00584106124074
    8     0.00750028517861     0.01194366472654     0.13593457371586     0.14005503035596     0.00376227719445
    9     0.00538319551281     0.01567581520401     0.13787325723581     1.52034324510647     0.00328027950180
   10     0.00166691932947     0.01539882577863     0.05563380094383     0.00957049042541     0.01518067649204
   11     0.01071435682826     0.01476763343900     0.05385246868991     0.79777171151548     0.00143943575908
   12     2.30621213899363     0.25246238620162     0.05086821269884     0.07358019030256     0.03087077861845
   13     0.01259772990549     0.04930514144280     0.01276559591431     0.00147696784717     0.88213605072365
   14     0.02607592136754     0.04745974093286     0.01054994483171     0.00131621469745     0.88456497240804
   15     0.01400611203155     0.05016006523810     0.01401616196089     0.00193702532767     0.88448197125172
   16     0.00043390044349     0.00088635773926     0.01082168577175     0.00256550991276     0.00027027233829
   17     0.00028140186879     0.00083678165121     0.01085149381325     0.06100935321853     0.00039497957377
   18     0.00007923143832     0.00023472525597     0.00288641781312     0.01118397921316     0.00012672058998
   19     0.78503184525060     0.07019618477555     0.01439351897913     0.00458525958194     0.02696191195939

                 6                   7                   8                   9                  10

    1     0.02906715989841     0.00381550073477     0.00750028517861     0.00538319551281     0.00166691932947
    2     0.11766576196349     0.01569470515664     0.01194366472654     0.01567581520401     0.01539882577863
    3     1.41006041283204     0.13715834722622     0.13593457371586     0.13787325723581     0.05563380094383
    4     0.12940492157978     0.14331005833385     0.14005503035596     1.52034324510647     0.00957049042541
    5     0.05549260121024     0.00584106124074     0.00376227719445     0.00328027950180     0.01518067649204
    6     0.00000000000000     1.52313975877154     0.13977994699053     0.14382589757498     0.81152441817371
    7     1.52313975877154     0.00000000000000     1.52027079064902     0.14049187618387     0.05702141913527
    8     0.13977994699053     1.52027079064902     0.00000000000000     1.51829925873896     0.01069736441066
    9     0.14382589757498     0.14049187618387     1.51829925873896     0.00000000000000     0.00245063273399
   10     0.81152441817371     0.05702141913527     0.01069736441066     0.00245063273399     0.00000000000000
   11     0.00918588436787     0.00241666073938     0.01045036717076     0.05621952314862     0.00041974770609
   12     0.00980172443450     0.00287874160453     0.00496520637837     0.00907106607874     0.00016995633726
   13     0.01540819799613     0.00150704109040     0.00077087569303     0.00025943331706     0.00403063971806
   14     0.00214717573493     0.00022758604082     0.00029145958698     0.00045054506442     0.00022519901656
   15     0.00484822310864     0.00034237682681     0.00036976821331     0.00026709650024     0.00045494485891
   16     0.06136746329074     0.83156953407147     0.05948860961365     0.01150217396663     0.00573132820481
   17     0.00253551511163     0.01152093105208     0.05970092684336     0.83122118528561     0.00023652245731
   18     0.01127937904395     0.06023021697294     0.83350965289351     0.05991103939401     0.00020073730381
   19     0.00204396123826     0.00056016452819     0.00028693190961     0.00059093987294     0.00007751836822

                11                  12                  13                  14                  15

    1     0.01071435682826     2.30621213899363     0.01259772990549     0.02607592136754     0.01400611203155
    2     0.01476763343900     0.25246238620162     0.04930514144280     0.04745974093286     0.05016006523810
    3     0.05385246868991     0.05086821269884     0.01276559591431     0.01054994483171     0.01401616196089
    4     0.79777171151548     0.07358019030256     0.00147696784717     0.00131621469745     0.00193702532767
    5     0.00143943575908     0.03087077861845     0.88213605072365     0.88456497240804     0.88448197125172
    6     0.00918588436787     0.00980172443450     0.01540819799613     0.00214717573493     0.00484822310864
    7     0.00241666073938     0.00287874160453     0.00150704109040     0.00022758604082     0.00034237682681
    8     0.01045036717076     0.00496520637837     0.00077087569303     0.00029145958698     0.00036976821331
    9     0.05621952314862     0.00907106607874     0.00025943331706     0.00045054506442     0.00026709650024
   10     0.00041974770609     0.00016995633726     0.00403063971806     0.00022519901656     0.00045494485891
   11     0.00000000000000     0.02008777147181     0.00005973311853     0.00005301236195     0.00001728729158
   12     0.02008777147181     0.00000000000000     0.00355197019547     0.00290109613733     0.00386221574324
   13     0.00005973311853     0.00355197019547     0.00000000000000     0.00928848138362     0.00751814162410
   14     0.00005301236195     0.00290109613733     0.00928848138362     0.00000000000000     0.00878440842778
   15     0.00001728729158     0.00386221574324     0.00751814162410     0.00878440842778     0.00000000000000
   16     0.00020391121087     0.00009664756365     0.00004650143747     0.00001263656736     0.00001103430270
   17     0.00556234973127     0.00027972247660     0.00003324972040     0.00001518380662     0.00003375495911
   18     0.00022778718099     0.00010444352692     0.00002742826486     0.00000824879672     0.00001108972627
   19     0.00018156048059     0.08317366635126     0.00011555578632     0.00574397627680     0.00008917485020

                16                  17                  18                  19

    1     0.00043390044349     0.00028140186879     0.00007923143832     0.78503184525060
    2     0.00088635773926     0.00083678165121     0.00023472525597     0.07019618477555
    3     0.01082168577175     0.01085149381325     0.00288641781312     0.01439351897913
    4     0.00256550991276     0.06100935321853     0.01118397921316     0.00458525958194
    5     0.00027027233829     0.00039497957377     0.00012672058998     0.02696191195939
    6     0.06136746329074     0.00253551511163     0.01127937904395     0.00204396123826
    7     0.83156953407147     0.01152093105208     0.06023021697294     0.00056016452819
    8     0.05948860961365     0.05970092684336     0.83350965289351     0.00028693190961
    9     0.01150217396663     0.83122118528561     0.05991103939401     0.00059093987294
   10     0.00573132820481     0.00023652245731     0.00020073730381     0.00007751836822
   11     0.00020391121087     0.00556234973127     0.00022778718099     0.00018156048059
   12     0.00009664756365     0.00027972247660     0.00010444352692     0.08317366635126
   13     0.00004650143747     0.00003324972040     0.00002742826486     0.00011555578632
   14     0.00001263656736     0.00001518380662     0.00000824879672     0.00574397627680
   15     0.00001103430270     0.00003375495911     0.00001108972627     0.00008917485020
   16     0.00000000000000     0.00027159312102     0.00535748803305     0.00002235994313
   17     0.00027159312102     0.00000000000000     0.00531478035032     0.00000622222288
   18     0.00535748803305     0.00531478035032     0.00000000000000     0.00003307502165
   19     0.00002235994313     0.00000622222288     0.00003307502165     0.00000000000000



  Atomic Valences: 

 #  #
 Irrep: 1
      1:    4.911347646874078
      2:    4.485124231687816
      3:    4.790544328796256
      4:    4.486946866414381
      5:    4.228031705855596
      6:    4.478578403321343
      7:    4.457996770358553
      8:    4.458076990263183
      9:    4.457116460420974
     10:    0.990691141394033
     11:    0.983631202212044
     12:    2.854937935114775
     13:    1.000898735178877
     14:    1.000115803439496
     15:    0.991210852242843
     16:    0.990659007532102
     17:    0.990105947263768
     18:    0.990726440819545
     19:    0.994093827396670


    Psi4 stopped on: Saturday, 18 November 2023 08:31AM
    Psi4 wall time for execution: 0:00:12.02

*** Psi4 exiting successfully. Buy a developer a beer!
