      -----------------------------------------------------------      
     |                   =====================                   |     
     |                           x T B                           |     
     |                   =====================                   |     
     |                         S. Grimme                         |     
     |          Mulliken Center for Theoretical Chemistry        |     
     |                    University of Bonn                     |     
      -----------------------------------------------------------      

   * xtb version 6.5.0 (97a52f5) compiled by 'conda@d2599ee0d4f4' on 2022-05-15

   xtb is free software: you can redistribute it and/or modify it under
   the terms of the GNU Lesser General Public License as published by
   the Free Software Foundation, either version 3 of the License, or
   (at your option) any later version.
   
   xtb is distributed in the hope that it will be useful,
   but WITHOUT ANY WARRANTY; without even the implied warranty of
   MERCHANTABILITY or FITNESS FOR A PARTICULAR PURPOSE.  See the
   GNU Lesser General Public License for more details.
   
   Cite this work as:
   * C. Bannwarth, E. Caldeweyher, S. Ehlert, A. Hansen, P. Pracht,
     J. Seibert, S. Spicher, S. Grimme, WIREs Comput. Mol. Sci., 2020, 11,
     e01493. DOI: 10.1002/wcms.1493
   
   for GFN2-xTB:
   * C. Bannwarth, S. Ehlert and S. Grimme., J. Chem. Theory Comput., 2019,
     15, 1652-1671. DOI: 10.1021/acs.jctc.8b01176
   for GFN1-xTB:
   * S. Grimme, C. Bannwarth, P. Shushkov, J. Chem. Theory Comput., 2017,
     13, 1989-2009. DOI: 10.1021/acs.jctc.7b00118
   for GFN0-xTB:
   * P. Pracht, E. Caldeweyher, S. Ehlert, S. Grimme, ChemRxiv, 2019, preprint.
     DOI: 10.26434/chemrxiv.8326202.v1
   for GFN-FF:
   * S. Spicher and S. Grimme, Angew. Chem. Int. Ed., 2020, 59, 15665-15673.
     DOI: 10.1002/anie.202004239
   
   for ALPB and GBSA implicit solvation:
   * S. Ehlert, M. Stahn, S. Spicher, S. Grimme, J. Chem. Theory Comput.,
     2021, 17, 4250-4261. DOI: 10.1021/acs.jctc.1c00471
   
   for DFT-D4:
   * E. Caldeweyher, C. Bannwarth and S. Grimme, J. Chem. Phys., 2017,
     147, 034112. DOI: 10.1063/1.4993215
   * E. Caldeweyher, S. Ehlert, A. Hansen, H. Neugebauer, S. Spicher,
     C. Bannwarth and S. Grimme, J. Chem. Phys., 2019, 150, 154122.
     DOI: 10.1063/1.5090222
   * E. Caldeweyher, J.-M. Mewes, S. Ehlert and S. Grimme, Phys. Chem. Chem. Phys.
     2020, 22, 8499-8512. DOI: 10.1039/D0CP00502A
   
   for sTDA-xTB:
   * S. Grimme and C. Bannwarth, J. Chem. Phys., 2016, 145, 054103.
     DOI: 10.1063/1.4959605
   
   in the mass-spec context:
   * V. Asgeirsson, C. Bauer and S. Grimme, Chem. Sci., 2017, 8, 4879.
     DOI: 10.1039/c7sc00601b
   * J. Koopman and S. Grimme, ACS Omega 2019, 4, 12, 15120-15133.
     DOI: 10.1021/acsomega.9b02011
   
   for metadynamics refer to:
   * S. Grimme, J. Chem. Theory Comput., 2019, 155, 2847-2862
     DOI: 10.1021/acs.jctc.9b00143
   
   for SPH calculations refer to:
   * S. Spicher and S. Grimme, J. Chem. Theory Comput., 2021, 17, 1701-1714
     DOI: 10.1021/acs.jctc.0c01306
   
   with help from (in alphabetical order)
   P. Atkinson, C. Bannwarth, F. Bohle, G. Brandenburg, E. Caldeweyher
   M. Checinski, S. Dohm, S. Ehlert, S. Ehrlich, I. Gerasimov, C. Hölzer
   A. Katbashev, J. Koopman, C. Lavigne, S. Lehtola, F. März, M. Müller,
   F. Musil, H. Neugebauer, J. Pisarek, C. Plett, P. Pracht, F. Pultar,
   J. Seibert, P. Shushkov, S. Spicher, M. Stahn, M. Steiner, T. Strunk,
   J. Stückrath, T. Rose, and J. Unsleber
   
 * started run on 2023/11/18 at 08:21:33.760     

           -------------------------------------------------
          |                Calculation Setup                |
           -------------------------------------------------

          program call               : /home/liuchw/anaconda3/envs/xtbenv/bin/xtb --gfn 2 --chrg 0 --uhf 0 3_24_Index_0-opt-2-5-251_preQMOPTprefit_xyzformat.xyz --opt --input xtb-opt-2-5-251_constr.txt
          hostname                   : node165.bme.utexas.edu
          coordinate file            : 3_24_Index_0-opt-2-5-251_preQMOPTprefit_xyzformat.xyz
          omp threads                :                    64

   ID    Z sym.   atoms
    1    6 C      1, 3-9
    2    7 N      2
    3    1 H      10, 11, 13-19
    4    8 O      12
constraining angle 1 2 5 14 to  250.9930195°, actual value: -109.0069805°
constraining angle 1 2 3 4 to   37.0902999°, actual value:   37.0902999°
constraining angle 12 1 2 3 to  358.0030141°, actual value:   -1.9969859°

           -------------------------------------------------
          |                 G F N 2 - x T B                 |
           -------------------------------------------------

        Reference                      10.1021/acs.jctc.8b01176
      * Hamiltonian:
        H0-scaling (s, p, d)           1.850000    2.230000    2.230000
        zeta-weighting                 0.500000
      * Dispersion:
        s8                             2.700000
        a1                             0.520000
        a2                             5.000000
        s9                             5.000000
      * Repulsion:
        kExp                           1.500000    1.000000
        rExp                           1.000000
      * Coulomb:
        alpha                          2.000000
        third order                    shell-resolved
        anisotropic                    true
        a3                             3.000000
        a5                             4.000000
        cn-shift                       1.200000
        cn-exp                         4.000000
        max-rad                        5.000000

q/qsh data taken from xtbrestart
CAMM data taken from xtbrestart

          ...................................................
          :                      SETUP                      :
          :.................................................:
          :  # basis functions                  49          :
          :  # atomic orbitals                  49          :
          :  # shells                           29          :
          :  # electrons                        52          :
          :  max. iterations                   250          :
          :  Hamiltonian                  GFN2-xTB          :
          :  restarted?                       true          :
          :  GBSA solvation                  false          :
          :  PC potential                    false          :
          :  electronic temp.          300.0000000     K    :
          :  accuracy                    1.0000000          :
          :  -> integral cutoff          0.2500000E+02      :
          :  -> integral neglect         0.1000000E-07      :
          :  -> SCF convergence          0.1000000E-05 Eh   :
          :  -> wf. convergence          0.1000000E-03 e    :
          :  Broyden damping             0.4000000          :
          ...................................................

 iter      E             dE          RMSdq      gap      omega  full diag
   1    -29.0868495 -0.290868E+02  0.755E-01    3.85       0.0  T
   2    -29.0879020 -0.105245E-02  0.480E-01    3.79       1.0  T
   3    -29.0877909  0.111070E-03  0.247E-01    3.81       1.0  T
   4    -29.0882278 -0.436867E-03  0.644E-02    3.81       1.0  T
   5    -29.0882866 -0.588391E-04  0.134E-02    3.80       1.7  T
   6    -29.0882873 -0.666275E-06  0.603E-03    3.80       3.8  T
   7    -29.0882874 -0.147063E-06  0.243E-03    3.80       9.4  T
   8    -29.0882875 -0.209044E-07  0.833E-04    3.80      27.5  T
   9    -29.0882875 -0.352366E-08  0.375E-04    3.80      61.1  T

   *** convergence criteria satisfied after 9 iterations ***

         #    Occupation            Energy/Eh            Energy/eV
      -------------------------------------------------------------
         1        2.0000           -0.6938822             -18.8815
       ...           ...                  ...                  ...
        20        2.0000           -0.4782365             -13.0135
        21        2.0000           -0.4422587             -12.0345
        22        2.0000           -0.4368082             -11.8862
        23        2.0000           -0.4220573             -11.4848
        24        2.0000           -0.4078557             -11.0983
        25        2.0000           -0.3986122             -10.8468
        26        2.0000           -0.3861703             -10.5082 (HOMO)
        27                         -0.2464056              -6.7050 (LUMO)
        28                         -0.2329806              -6.3397
        29                         -0.2174513              -5.9172
        30                         -0.1110200              -3.0210
        31                         -0.0532611              -1.4493
       ...                                ...                  ...
        49                          0.6049174              16.4606
      -------------------------------------------------------------
                  HL-Gap            0.1397647 Eh            3.8032 eV
             Fermi-level           -0.3162879 Eh           -8.6066 eV

 SCC (total)                   0 d,  0 h,  0 min,  1.181 sec
 SCC setup                      ...        0 min,  0.015 sec (  1.251%)
 Dispersion                     ...        0 min,  0.039 sec (  3.338%)
 classical contributions        ...        0 min,  0.012 sec (  0.993%)
 integral evaluation            ...        0 min,  0.042 sec (  3.593%)
 iterations                     ...        0 min,  0.930 sec ( 78.732%)
 molecular gradient             ...        0 min,  0.142 sec ( 12.045%)
 printout                       ...        0 min,  0.000 sec (  0.018%)

         :::::::::::::::::::::::::::::::::::::::::::::::::::::
         ::                     SUMMARY                     ::
         :::::::::::::::::::::::::::::::::::::::::::::::::::::
         :: total energy             -28.688533928097 Eh    ::
         :: gradient norm              0.069903018765 Eh/a0 ::
         :: HOMO-LUMO gap              3.803191060948 eV    ::
         ::.................................................::
         :: SCC energy               -29.088287472722 Eh    ::
         :: -> isotropic ES            0.033356104715 Eh    ::
         :: -> anisotropic ES          0.003744059471 Eh    ::
         :: -> anisotropic XC          0.015450596469 Eh    ::
         :: -> dispersion             -0.015601486775 Eh    ::
         :: repulsion energy           0.399693711392 Eh    ::
         :: add. restraining           0.000000000000 Eh    ::
         :: total charge              -0.000000000000 e     ::
         :::::::::::::::::::::::::::::::::::::::::::::::::::::

      ----------------------------------------------------------- 
     |                   =====================                   |
     |                        A N C O P T                        |
     |                   =====================                   |
     |               Approximate Normal Coordinate               |
     |                Rational Function Optimizer                |
      ----------------------------------------------------------- 

          ...................................................
          :                      SETUP                      :
          :.................................................:
          :   optimization level            normal          :
          :   max. optcycles                   200          :
          :   ANC micro-cycles                  20          :
          :   degrees of freedom                51          :
          :.................................................:
          :   RF solver                   davidson          :
          :   write xtbopt.log                true          :
          :   linear?                        false          :
          :   energy convergence         0.5000000E-05 Eh   :
          :   grad. convergence          0.1000000E-02 Eh/α :
          :   maximium RF displ.         1.0000000          :
          :   Hlow (freq-cutoff)         0.1000000E-01      :
          :   Hmax (freq-cutoff)         5.0000000          :
          :   S6 in model hess.         20.0000000          :
          ...................................................

generating ANC from model Hessian ...
Using Lindh-Hessian (1995)
 Shifting diagonal of input Hessian by    7.1997939428379478E-003
 Lowest  eigenvalues of input Hessian
    0.000000    0.000000    0.000000    0.000000    0.000000    0.000000
    0.010000    0.011351    0.013751    0.018972    0.020109    0.022270
    0.023593    0.029125    0.034848    0.043283    0.054173    0.061954
 Highest eigenvalues
    1.876937    1.917726    2.194316    2.820568    4.521226   21.480783


........................................................................
.............................. CYCLE    1 ..............................
........................................................................
   1    -29.0882875 -0.290883E+02  0.155E-04    3.80       0.0  T
   2    -29.0882875 -0.331504E-10  0.982E-05    3.80     233.7  T
   3    -29.0882875  0.616751E-11  0.644E-05    3.80     356.0  T
     SCC iter.                  ...        0 min,  0.289 sec
     gradient                   ...        0 min,  0.153 sec
 * total energy  :   -28.6885339 Eh     change       -0.1287930E-08 Eh
   gradient norm :     0.0699026 Eh/α   predicted     0.0000000E+00 (-100.00%)
   displ. norm   :     0.3679030 α      lambda       -0.1386488E-01
   maximum displ.:     0.2469100 α      in ANC's #11, #7, #25, ...

........................................................................
.............................. CYCLE    2 ..............................
........................................................................
   1    -29.1328047 -0.291328E+02  0.335E-01    3.98       0.0  T
   2    -29.1330188 -0.214105E-03  0.219E-01    4.00       1.0  T
   3    -29.1329965  0.223061E-04  0.108E-01    4.00       1.0  T
   4    -29.1330806 -0.840840E-04  0.244E-02    4.00       1.0  T
   5    -29.1330889 -0.830988E-05  0.637E-03    4.00       3.6  T
   6    -29.1330892 -0.245037E-06  0.277E-03    4.00       8.3  T
   7    -29.1330892 -0.283929E-07  0.133E-03    4.00      17.2  T
   8    -29.1330892 -0.207559E-08  0.380E-04    4.00      60.3  T
   9    -29.1330892 -0.884917E-09  0.135E-04    4.00     170.2  T
     SCC iter.                  ...        0 min,  0.953 sec
     gradient                   ...        0 min,  0.133 sec
 * total energy  :   -28.6972803 Eh     change       -0.8746333E-02 Eh
   gradient norm :     0.0405642 Eh/α   predicted    -0.7873926E-02 (  -9.97%)
   displ. norm   :     0.2662929 α      lambda       -0.3123833E-02
   maximum displ.:     0.1675649 α      in ANC's #11, #2, #6, ...

........................................................................
.............................. CYCLE    3 ..............................
........................................................................
   1    -29.1544366 -0.291544E+02  0.189E-01    4.04       0.0  T
   2    -29.1545796 -0.142998E-03  0.129E-01    4.07       1.0  T
   3    -29.1545976 -0.179454E-04  0.649E-02    4.06       1.0  T
   4    -29.1546031 -0.552116E-05  0.208E-02    4.06       1.1  T
   5    -29.1546095 -0.641692E-05  0.349E-03    4.06       6.6  T
   6    -29.1546096 -0.413457E-07  0.175E-03    4.06      13.1  T
   7    -29.1546096 -0.120937E-07  0.667E-04    4.06      34.4  T
   8    -29.1546096 -0.987050E-09  0.243E-04    4.06      94.3  T
     SCC iter.                  ...        0 min,  0.880 sec
     gradient                   ...        0 min,  0.134 sec
 * total energy  :   -28.6977250 Eh     change       -0.4447439E-03 Eh
   gradient norm :     0.1781957 Eh/α   predicted    -0.1673003E-02 ( 276.17%)
   displ. norm   :     0.1312547 α      lambda       -0.2759977E-02
   maximum displ.:     0.0967841 α      in ANC's #2, #11, #7, ...

........................................................................
.............................. CYCLE    4 ..............................
........................................................................
   1    -29.1577121 -0.291577E+02  0.783E-02    4.06       0.0  T
   2    -29.1577345 -0.224449E-04  0.524E-02    4.07       1.0  T
   3    -29.1577361 -0.154502E-05  0.247E-02    4.07       1.0  T
   4    -29.1577370 -0.928891E-06  0.828E-03    4.07       2.8  T
   5    -29.1577381 -0.107708E-05  0.122E-03    4.07      18.8  T
   6    -29.1577381 -0.263166E-08  0.584E-04    4.07      39.3  T
   7    -29.1577381 -0.118818E-08  0.199E-04    4.07     115.1  T
     SCC iter.                  ...        0 min,  0.771 sec
     gradient                   ...        0 min,  0.143 sec
 * total energy  :   -28.6977321 Eh     change       -0.7102831E-05 Eh
   gradient norm :     0.1675162 Eh/α   predicted    -0.1403768E-02 (*******%)
   displ. norm   :     0.1460540 α      lambda       -0.2170767E-02
   maximum displ.:     0.0794050 α      in ANC's #11, #3, #6, ...

........................................................................
.............................. CYCLE    5 ..............................
........................................................................
   1    -29.1453596 -0.291454E+02  0.127E-01    4.03       0.0  T
   2    -29.1453888 -0.292467E-04  0.817E-02    4.02       1.0  T
   3    -29.1453856  0.319532E-05  0.361E-02    4.02       1.0  T
   4    -29.1453946 -0.899552E-05  0.901E-03    4.02       2.5  T
   5    -29.1453959 -0.129850E-05  0.222E-03    4.02      10.3  T
   6    -29.1453960 -0.151476E-07  0.110E-03    4.02      20.9  T
   7    -29.1453960 -0.428354E-08  0.403E-04    4.02      56.9  T
   8    -29.1453960 -0.357733E-09  0.144E-04    4.02     159.3  T
     SCC iter.                  ...        0 min,  0.891 sec
     gradient                   ...        0 min,  0.162 sec
 * total energy  :   -28.6986592 Eh     change       -0.9270584E-03 Eh
   gradient norm :     0.0114547 Eh/α   predicted    -0.1108333E-02 (  19.55%)
   displ. norm   :     0.0921228 α      lambda       -0.2432704E-03
   maximum displ.:     0.0650366 α      in ANC's #2, #4, #6, ...

........................................................................
.............................. CYCLE    6 ..............................
........................................................................
   1    -29.1489451 -0.291489E+02  0.799E-02    4.03       0.0  T
   2    -29.1489465 -0.137128E-05  0.474E-02    4.03       1.0  T
   3    -29.1489456  0.869640E-06  0.921E-03    4.03       2.5  T
   4    -29.1489468 -0.119474E-05  0.209E-03    4.03      11.0  T
   5    -29.1489468 -0.336862E-07  0.110E-03    4.03      20.9  T
   6    -29.1489469 -0.198472E-08  0.398E-04    4.03      57.7  T
   7    -29.1489469 -0.903288E-09  0.129E-04    4.03     178.0  T
     SCC iter.                  ...        0 min,  0.707 sec
     gradient                   ...        0 min,  0.144 sec
 * total energy  :   -28.6987730 Eh     change       -0.1137964E-03 Eh
   gradient norm :     0.0139357 Eh/α   predicted    -0.1225571E-03 (   7.70%)
   displ. norm   :     0.0654490 α      lambda       -0.5981406E-04
   maximum displ.:     0.0608124 α      in ANC's #2, #3, #1, ...

........................................................................
.............................. CYCLE    7 ..............................
........................................................................
   1    -29.1492879 -0.291493E+02  0.304E-02    4.02       0.0  T
   2    -29.1492884 -0.488644E-06  0.178E-02    4.03       1.3  T
   3    -29.1492881  0.288036E-06  0.575E-03    4.03       4.0  T
   4    -29.1492885 -0.378656E-06  0.120E-03    4.03      19.2  T
   5    -29.1492885 -0.164347E-07  0.394E-04    4.03      58.2  T
   6    -29.1492885 -0.313882E-09  0.143E-04    4.03     160.7  T
     SCC iter.                  ...        0 min,  0.571 sec
     gradient                   ...        0 min,  0.147 sec
 * total energy  :   -28.6988213 Eh     change       -0.4835023E-04 Eh
   gradient norm :     0.0030100 Eh/α   predicted    -0.3002614E-04 ( -37.90%)
   displ. norm   :     0.0779279 α      lambda       -0.5096035E-04
   maximum displ.:     0.0697744 α      in ANC's #2, #4, #1, ...

........................................................................
.............................. CYCLE    8 ..............................
........................................................................
   1    -29.1488539 -0.291489E+02  0.349E-02    4.02       0.0  T
   2    -29.1488540 -0.181685E-06  0.204E-02    4.02       1.1  T
   3    -29.1488540  0.762744E-07  0.318E-03    4.02       7.2  T
   4    -29.1488541 -0.123431E-06  0.837E-04    4.02      27.4  T
   5    -29.1488541 -0.355278E-08  0.362E-04    4.02      63.3  T
     SCC iter.                  ...        0 min,  0.514 sec
     gradient                   ...        0 min,  0.164 sec
 * total energy  :   -28.6988608 Eh     change       -0.3944965E-04 Eh
   gradient norm :     0.0044058 Eh/α   predicted    -0.2562635E-04 ( -35.04%)
   displ. norm   :     0.0684477 α      lambda       -0.2743214E-04
   maximum displ.:     0.0619967 α      in ANC's #2, #1, #4, ...

........................................................................
.............................. CYCLE    9 ..............................
........................................................................
   1    -29.1488199 -0.291488E+02  0.310E-02    4.01       0.0  T
   2    -29.1488201 -0.144612E-06  0.181E-02    4.01       1.3  T
   3    -29.1488200  0.105101E-06  0.327E-03    4.01       7.0  T
   4    -29.1488201 -0.147429E-06  0.685E-04    4.01      33.5  T
   5    -29.1488201 -0.205284E-08  0.291E-04    4.01      78.7  T
     SCC iter.                  ...        0 min,  0.508 sec
     gradient                   ...        0 min,  0.145 sec
 * total energy  :   -28.6988824 Eh     change       -0.2166617E-04 Eh
   gradient norm :     0.0025485 Eh/α   predicted    -0.1378452E-04 ( -36.38%)
   displ. norm   :     0.0460363 α      lambda       -0.1204285E-04
   maximum displ.:     0.0423988 α      in ANC's #2, #1, #4, ...

........................................................................
.............................. CYCLE   10 ..............................
........................................................................
   1    -29.1488771 -0.291489E+02  0.218E-02    4.01       0.0  T
   2    -29.1488772 -0.637177E-07  0.128E-02    4.01       1.8  T
   3    -29.1488771  0.679555E-07  0.235E-03    4.01       9.8  T
   4    -29.1488772 -0.893440E-07  0.426E-04    4.01      53.9  T
   5    -29.1488772 -0.791982E-09  0.195E-04    4.01     117.8  T
     SCC iter.                  ...        0 min,  0.513 sec
     gradient                   ...        0 min,  0.132 sec
 * total energy  :   -28.6988919 Eh     change       -0.9485164E-05 Eh
   gradient norm :     0.0010405 Eh/α   predicted    -0.6035663E-05 ( -36.37%)
   displ. norm   :     0.0404633 α      lambda       -0.4516326E-05
   maximum displ.:     0.0384527 α      in ANC's #2, #1, #3, ...

........................................................................
.............................. CYCLE   11 ..............................
........................................................................
   1    -29.1489685 -0.291490E+02  0.192E-02    4.01       0.0  T
   2    -29.1489685 -0.434677E-07  0.113E-02    4.01       2.0  T
   3    -29.1489685  0.589824E-07  0.220E-03    4.01      10.5  T
   4    -29.1489685 -0.755891E-07  0.333E-04    4.01      68.9  T
   5    -29.1489685 -0.346866E-09  0.155E-04    4.01     147.8  T
     SCC iter.                  ...        0 min,  0.508 sec
     gradient                   ...        0 min,  0.143 sec
 * total energy  :   -28.6988967 Eh     change       -0.4735384E-05 Eh
   gradient norm :     0.0007288 Eh/α   predicted    -0.2260065E-05 ( -52.27%)
   displ. norm   :     0.0164008 α      lambda       -0.1000553E-05
   maximum displ.:     0.0160393 α      in ANC's #2, #1, #3, ...

   *** GEOMETRY OPTIMIZATION CONVERGED AFTER 11 ITERATIONS ***

------------------------------------------------------------------------
 total energy gain   :        -0.0103627 Eh       -6.5027 kcal/mol
 total RMSD          :         0.1905252 a0        0.1008 Å
 total power (kW/mol):        -2.4733932 (step)   -2.8046 (real)
------------------------------------------------------------------------

 ANCopt (total)                0 d,  0 h,  0 min,  9.701 sec
 optimizer setup                ...        0 min,  0.000 sec (  0.003%)
 model hessian                  ...        0 min,  0.004 sec (  0.043%)
 ANC generation                 ...        0 min,  0.001 sec (  0.006%)
 coordinate transformation      ...        0 min,  0.000 sec (  0.003%)
 single point calculation       ...        0 min,  9.564 sec ( 98.584%)
 optimization log               ...        0 min,  0.002 sec (  0.020%)
 hessian update                 ...        0 min,  0.117 sec (  1.204%)
 rational function              ...        0 min,  0.012 sec (  0.123%)

================
 final structure:
================
19
 xtb: 6.5.0 (97a52f5)
C            2.24890707187742        0.29337958237003        0.49292497506539
N            1.08286755526959       -0.23784065495889        0.92857063135254
C           -0.12344912478871       -0.08801469406948        0.19636198480944
C           -0.10841461086527       -0.12168038057360       -1.19497617755201
C            1.05995106062548       -1.04548340491897        2.12793748444392
C           -1.33249280457628        0.11665138005968        0.85511411756628
C           -2.50163830848469        0.27473947371219        0.13378787401061
C           -2.48346130999100        0.23652361253610       -1.24947136984447
C           -1.28210066391267        0.04092597927118       -1.90797176644926
H           -1.37256608789316        0.17133459320371        1.93204516118337
H            0.82129365475193       -0.27267403278288       -1.71708448024562
O            2.43553220904471        0.90289065978512       -0.52953090939984
H            2.02248370214569       -0.96861696714392        2.63170302917410
H            0.88734067704160       -2.09448176803526        1.87259551527211
H            0.28612946283033       -0.71722693531136        2.81963892306710
H           -3.43141612901536        0.43477089684436        0.65976381335784
H           -1.25478840277510        0.01058467673597       -2.98691800244042
H           -3.39854822002317        0.36117444353802       -1.80844209922944
H            3.06805227873865        0.10183053973802        1.21453529585832

 Bond Distances (Angstroems)
 ---------------------------
C1-N2=1.3534         C1-O12=1.2049        C1-H19=1.1083        N2-C1=1.3534         N2-C3=1.4191         N2-C5=1.4461         
C3-N2=1.4191         C3-C4=1.3918         C3-C6=1.3920         C4-C3=1.3918         C4-C9=1.3829         C4-H11=1.0769        
C5-N2=1.4461         C5-H13=1.0891        C5-H14=1.0933        C5-H15=1.0886        C6-C3=1.3920         C6-C7=1.3828         
C6-H10=1.0791        C7-C6=1.3828         C7-C8=1.3839         C7-H16=1.0802        C8-C7=1.3839         C8-C9=1.3839         
C8-H18=1.0795        C9-C4=1.3829         C9-C8=1.3839         C9-H17=1.0797        H10-C6=1.0791        H11-C4=1.0769        
O12-C1=1.2049        H13-C5=1.0891        H14-C5=1.0933        H15-C5=1.0886        H16-C7=1.0802        H17-C9=1.0797        
H18-C8=1.0795        H19-C1=1.1083        
 C  H  Rav=1.0861 sigma=0.0095  Rmin=1.0769  Rmax=1.1083     9
 C  C  Rav=1.3862 sigma=0.0040  Rmin=1.3828  Rmax=1.3920     6
 N  C  Rav=1.4062 sigma=0.0389  Rmin=1.3534  Rmax=1.4461     3
 O  C  Rav=1.2049 sigma=0.0000  Rmin=1.2049  Rmax=1.2049     1

 selected bond angles (degree)
 --------------------
O12-C1-N2=127.24               H19-C1-N2=111.06               H19-C1-O12=121.70              C3-N2-C1=121.66                
C5-N2-C1=119.99                C5-N2-C3=118.26                C4-C3-N2=120.27                C6-C3-N2=120.64                
C6-C3-C4=119.08                C9-C4-C3=120.22                H11-C4-C3=119.83               H11-C4-C9=119.95               
H13-C5-N2=109.28               H14-C5-N2=110.16               H14-C5-H13=108.38              H15-C5-N2=111.71               
H15-C5-H13=108.24              H15-C5-H14=109.00              C7-C6-C3=120.29                H10-C6-C3=120.80               
H10-C6-C7=118.91               C8-C7-C6=120.47                H16-C7-C6=119.39               H16-C7-C8=120.14               
C9-C8-C7=119.40                H18-C8-C7=120.21               H18-C8-C9=120.39               C8-C9-C4=120.54                
H17-C9-C4=119.37               H17-C9-C8=120.09               

 selected dihedral angles (degree)
 ---------------------------------
C3-N2-C1-O12=358.04           C3-N2-C1-H19=178.00           C5-N2-C1-O12=174.45           C5-N2-C1-H19=354.40           
C4-C3-N2-C1= 37.12            C4-C3-N2-C5=220.66            C6-C3-N2-C1=218.21            C6-C3-N2-C5= 41.74            
C9-C4-C3-N2=180.80            C9-C4-C3-C6=359.73            H11-C4-C3-N2=  0.66           H11-C4-C3-C6=179.59           
H13-C5-N2-C1=  9.93           H13-C5-N2-C3=186.45           H14-C5-N2-C1=250.97           H14-C5-N2-C3= 67.49           
H15-C5-N2-C1=129.68           H15-C5-N2-C3=306.20           C7-C6-C3-N2=179.37            C7-C6-C3-C4=  0.44            
H10-C6-C3-N2=  0.40           H10-C6-C3-C4=181.48           C8-C7-C6-C3=359.76            C8-C7-C6-H10=178.74           
H16-C7-C6-C3=180.12           H16-C7-C6-H10=359.11          C9-C8-C7-C6=359.87            C9-C8-C7-H16=179.50           
H18-C8-C7-C6=180.05           H18-C8-C7-H16=359.68          C8-C9-C4-C3=359.90            C8-C9-C4-H11=180.04           
H17-C9-C4-C3=180.11           H17-C9-C4-H11=  0.25          C4-C9-C8-C7=  0.30            C4-C9-C8-H18=180.13           
H17-C9-C8-C7=180.09           H17-C9-C8-H18=359.91          
           -------------------------------------------------
          |                Final Singlepoint                |
           -------------------------------------------------

          ...................................................
          :                      SETUP                      :
          :.................................................:
          :  # basis functions                  49          :
          :  # atomic orbitals                  49          :
          :  # shells                           29          :
          :  # electrons                        52          :
          :  max. iterations                   250          :
          :  Hamiltonian                  GFN2-xTB          :
          :  restarted?                      false          :
          :  GBSA solvation                  false          :
          :  PC potential                    false          :
          :  electronic temp.          300.0000000     K    :
          :  accuracy                    1.0000000          :
          :  -> integral cutoff          0.2500000E+02      :
          :  -> integral neglect         0.1000000E-07      :
          :  -> SCF convergence          0.1000000E-05 Eh   :
          :  -> wf. convergence          0.1000000E-03 e    :
          :  Broyden damping             0.4000000          :
          ...................................................

 iter      E             dE          RMSdq      gap      omega  full diag
   1    -29.1489685 -0.291490E+02  0.606E-05    4.01       0.0  T
   2    -29.1489685 -0.172200E-10  0.352E-05    4.01     652.6  T
   3    -29.1489685 -0.665423E-11  0.206E-05    4.01    1114.1  T

   *** convergence criteria satisfied after 3 iterations ***

         #    Occupation            Energy/Eh            Energy/eV
      -------------------------------------------------------------
         1        2.0000           -0.7012224             -19.0812
       ...           ...                  ...                  ...
        20        2.0000           -0.4807760             -13.0826
        21        2.0000           -0.4417038             -12.0194
        22        2.0000           -0.4393025             -11.9540
        23        2.0000           -0.4243989             -11.5485
        24        2.0000           -0.4104821             -11.1698
        25        2.0000           -0.3969360             -10.8012
        26        2.0000           -0.3859751             -10.5029 (HOMO)
        27                         -0.2386500              -6.4940 (LUMO)
        28                         -0.2282969              -6.2123
        29                         -0.2018737              -5.4933
        30                         -0.0966506              -2.6300
        31                         -0.0074531              -0.2028
       ...                                ...                  ...
        49                          0.6703488              18.2411
      -------------------------------------------------------------
                  HL-Gap            0.1473251 Eh            4.0089 eV
             Fermi-level           -0.3123125 Eh           -8.4985 eV

 SCC (total)                   0 d,  0 h,  0 min,  0.516 sec
 SCC setup                      ...        0 min,  0.011 sec (  2.125%)
 Dispersion                     ...        0 min,  0.023 sec (  4.433%)
 classical contributions        ...        0 min,  0.012 sec (  2.277%)
 integral evaluation            ...        0 min,  0.033 sec (  6.458%)
 iterations                     ...        0 min,  0.304 sec ( 59.022%)
 molecular gradient             ...        0 min,  0.132 sec ( 25.617%)
 printout                       ...        0 min,  0.000 sec (  0.028%)

         :::::::::::::::::::::::::::::::::::::::::::::::::::::
         ::                     SUMMARY                     ::
         :::::::::::::::::::::::::::::::::::::::::::::::::::::
         :: total energy             -28.698896651007 Eh    ::
         :: gradient norm              0.000728007758 Eh/a0 ::
         :: HOMO-LUMO gap              4.008920880474 eV    ::
         ::.................................................::
         :: SCC energy               -29.148968526207 Eh    ::
         :: -> isotropic ES            0.033091600601 Eh    ::
         :: -> anisotropic ES          0.003559580386 Eh    ::
         :: -> anisotropic XC          0.013683294740 Eh    ::
         :: -> dispersion             -0.015965964525 Eh    ::
         :: repulsion energy           0.450011982842 Eh    ::
         :: add. restraining           0.000002629784 Eh    ::
         :: total charge               0.000000000000 e     ::
         :::::::::::::::::::::::::::::::::::::::::::::::::::::

           -------------------------------------------------
          |                Property Printout                |
           -------------------------------------------------

    * Orbital Energies and Occupations

         #    Occupation            Energy/Eh            Energy/eV
      -------------------------------------------------------------
         1        2.0000           -0.7012224             -19.0812
       ...           ...                  ...                  ...
        14        2.0000           -0.5136984             -13.9784
        15        2.0000           -0.5065829             -13.7848
        16        2.0000           -0.4991009             -13.5812
        17        2.0000           -0.4947030             -13.4616
        18        2.0000           -0.4859287             -13.2228
        19        2.0000           -0.4836429             -13.1606
        20        2.0000           -0.4807760             -13.0826
        21        2.0000           -0.4417038             -12.0194
        22        2.0000           -0.4393025             -11.9540
        23        2.0000           -0.4243989             -11.5485
        24        2.0000           -0.4104821             -11.1698
        25        2.0000           -0.3969360             -10.8012
        26        2.0000           -0.3859751             -10.5029 (HOMO)
        27                         -0.2386500              -6.4940 (LUMO)
        28                         -0.2282969              -6.2123
        29                         -0.2018737              -5.4933
        30                         -0.0966506              -2.6300
        31                         -0.0074531              -0.2028
        32                          0.0719309               1.9573
        33                          0.0998398               2.7168
        34                          0.1332366               3.6256
        35                          0.1528691               4.1598
        36                          0.1596764               4.3450
        37                          0.1682060               4.5771
       ...                                ...                  ...
        49                          0.6703488              18.2411
      -------------------------------------------------------------
                  HL-Gap            0.1473251 Eh            4.0089 eV
             Fermi-level           -0.3123125 Eh           -8.4985 eV

     #   Z          covCN         q      C6AA      α(0)
     1   6 C        2.712     0.248    22.838     7.823
     2   7 N        2.734    -0.079    22.779     7.089
     3   6 C        2.920     0.069    26.446     8.433
     4   6 C        2.923    -0.036    28.897     8.815
     5   6 C        3.700    -0.049    21.609     6.648
     6   6 C        2.922    -0.046    29.135     8.852
     7   6 C        2.921    -0.029    28.729     8.790
     8   6 C        2.919    -0.033    28.820     8.803
     9   6 C        2.921    -0.026    28.660     8.779
    10   1 H        0.926     0.033     2.541     2.493
    11   1 H        0.926     0.063     2.159     2.298
    12   8 O        0.857    -0.402    21.726     6.249
    13   1 H        0.925     0.058     2.222     2.331
    14   1 H        0.924     0.055     2.255     2.348
    15   1 H        0.925     0.062     2.179     2.308
    16   1 H        0.926     0.035     2.513     2.479
    17   1 H        0.926     0.040     2.445     2.445
    18   1 H        0.926     0.036     2.505     2.475
    19   1 H        0.922    -0.000     3.065     2.738

 Mol. C6AA /au·bohr⁶  :       4194.124379
 Mol. C8AA /au·bohr⁸  :      98820.306601
 Mol. α(0) /au        :        102.195322


Wiberg/Mayer (AO) data.
largest (>0.10) Wiberg bond orders for each atom

 ---------------------------------------------------------------------------
     #   Z sym  total        # sym  WBO       # sym  WBO       # sym  WBO
 ---------------------------------------------------------------------------
     1   6 C    3.954 --    12 O    1.733     2 N    1.239    19 H    0.916
     2   7 N    3.536 --     1 C    1.239     3 C    1.020     5 C    0.998
                            12 O    0.196
     3   6 C    3.961 --     6 C    1.388     4 C    1.387     2 N    1.020
                             8 C    0.102
     4   6 C    3.989 --     9 C    1.447     3 C    1.387    11 H    0.965
                             7 C    0.109
     5   6 C    3.970 --     2 N    0.998    13 H    0.977    14 H    0.976
                            15 H    0.973
     6   6 C    3.991 --     7 C    1.449     3 C    1.388    10 H    0.965
                             9 C    0.109
     7   6 C    3.992 --     6 C    1.449     8 C    1.435    16 H    0.971
                             4 C    0.109
     8   6 C    3.992 --     9 C    1.437     7 C    1.435    18 H    0.971
                             3 C    0.102
     9   6 C    3.992 --     4 C    1.447     8 C    1.437    17 H    0.970
                             6 C    0.109
    10   1 H    0.999 --     6 C    0.965
    11   1 H    0.996 --     4 C    0.965
    12   8 O    2.043 --     1 C    1.733     2 N    0.196
    13   1 H    0.996 --     5 C    0.977
    14   1 H    0.997 --     5 C    0.976
    15   1 H    0.996 --     5 C    0.973
    16   1 H    0.998 --     7 C    0.971
    17   1 H    0.998 --     9 C    0.970
    18   1 H    0.999 --     8 C    0.971
    19   1 H    0.999 --     1 C    0.916
 ---------------------------------------------------------------------------

Topologies differ in total number of bonds
Writing topology from bond orders to xtbtopo.mol

molecular dipole:
                 x           y           z       tot (Debye)
 q only:       -0.791      -0.839       0.920
   full:       -0.742      -0.943       1.175       4.269
molecular quadrupole (traceless):
                xx          xy          yy          xz          yz          zz
 q only:       -4.130      -5.074      -1.529       5.662      -0.591       5.659
  q+dip:       -2.100      -6.925      -5.242       7.084       0.537       7.342
   full:       -3.652      -6.486      -2.418       7.086       0.494       6.069

           -------------------------------------------------
          |                Geometry Summary                 |
           -------------------------------------------------

      molecular mass/u    :      135.1634621
   center of mass at/Å    :       -0.0190682       0.0340239       0.0194369
  moments of inertia/u·Å² :        0.1993206E+03   0.4803159E+03   0.6341530E+03
rotational constants/cm⁻¹ :        0.8457545E-01   0.3509697E-01   0.2658291E-01

 * 18 selected distances

     #   Z          #   Z                                           value/Å
     1   6 C        2   7 N                                       1.3533775
     2   7 N        3   6 C                                       1.4190763
     3   6 C        4   6 C                                       1.3918267
     2   7 N        5   6 C                                       1.4461304 (max)
     3   6 C        6   6 C                                       1.3919876
     6   6 C        7   6 C                                       1.3828250
     7   6 C        8   6 C                                       1.3839066
     4   6 C        9   6 C                                       1.3828748
     8   6 C        9   6 C                                       1.3838891
     6   6 C       10   1 H                                       1.0790629
     4   6 C       11   1 H                                       1.0769187 (min)
     1   6 C       12   8 O                                       1.2048855
     5   6 C       13   1 H                                       1.0891086
     5   6 C       14   1 H                                       1.0933397
     5   6 C       15   1 H                                       1.0885786
     7   6 C       16   1 H                                       1.0801610
     9   6 C       17   1 H                                       1.0797184
     8   6 C       18   1 H                                       1.0795232

 * 4 distinct bonds (by element types)

   Z      Z             #   av. dist./Å        max./Å        min./Å
   1 H    6 C           8     1.0833014     1.0933397     1.0769187
   6 C    6 C           6     1.3862183     1.3919876     1.3828250
   6 C    7 N           3     1.4061947     1.4461304     1.3533775
   6 C    8 O           1     1.2048855     1.2048855     1.2048855


optimized geometry written to: xtbopt.xyz


           -------------------------------------------------
          | TOTAL ENERGY              -28.698896651007 Eh   |
          | GRADIENT NORM               0.000728007758 Eh/α |
          | HOMO-LUMO GAP               4.008920880474 eV   |
           -------------------------------------------------
########################################################################
[WARNING] Runtime exception occurred
-1- restart_readRestart: Number of electron missmatch in restart file.
########################################################################

------------------------------------------------------------------------
 * finished run on 2023/11/18 at 08:21:45.343     
------------------------------------------------------------------------
 total:
 * wall-time:     0 d,  0 h,  0 min, 11.583 sec
 *  cpu-time:     0 d,  0 h,  7 min, 30.628 sec
 * ratio c/w:    38.904 speedup
 SCF:
 * wall-time:     0 d,  0 h,  0 min,  1.182 sec
 *  cpu-time:     0 d,  0 h,  0 min, 48.023 sec
 * ratio c/w:    40.645 speedup
 ANC optimizer:
 * wall-time:     0 d,  0 h,  0 min, 10.235 sec
 *  cpu-time:     0 d,  0 h,  6 min, 36.896 sec
 * ratio c/w:    38.778 speedup

