
    -----------------------------------------------------------------------
          Psi4: An Open-Source Ab Initio Electronic Structure Package
                               Psi4 1.6 release

                         Git: Rev {HEAD} 77475b5 


    D. G. A. Smith, L. A. Burns, A. C. Simmonett, R. M. Parrish,
    M. C. Schieber, R. Galvelis, P. Kraus, H. Kruse, R. Di Remigio,
    A. Alenaizan, A. M. James, S. Lehtola, J. P. Misiewicz, M. Scheurer,
    R. A. Shaw, J. B. Schriber, Y. Xie, Z. L. Glick, D. A. Sirianni,
    J. S. O'Brien, J. M. Waldrop, A. Kumar, E. G. Hohenstein,
    B. P. Pritchard, B. R. Brooks, H. F. Schaefer III, A. Yu. Sokolov,
    K. Patkowski, A. E. DePrince III, U. Bozkaya, R. A. King,
    F. A. Evangelista, J. M. Turney, T. D. Crawford, C. D. Sherrill,
    J. Chem. Phys. 152(18) 184108 (2020). https://doi.org/10.1063/5.0006002

                            Additional Code Authors
    E. T. Seidl, C. L. Janssen, E. F. Valeev, M. L. Leininger,
    J. F. Gonthier, R. M. Richard, H. R. McAlexander, M. Saitow, X. Wang,
    P. Verma, M. H. Lechner, and A. Jiang

             Previous Authors, Complete List of Code Contributors,
                       and Citations for Specific Modules
    https://github.com/psi4/psi4/blob/master/codemeta.json
    https://github.com/psi4/psi4/graphs/contributors
    http://psicode.org/psi4manual/master/introduction.html#citing-psifour

    -----------------------------------------------------------------------


    Psi4 started on: Saturday, 18 November 2023 08:32AM

    Process ID: 1127975
    Host:       node165.bme.utexas.edu
    PSIDATADIR: /home/liuchw/anaconda3/envs/poltype2022/share/psi4
    Memory:     500.0 MiB
    Threads:    1
    
  ==> Input File <==

--------------------------------------------------------------------------
molecule { 
0 1
 C    2.194857    0.477263    0.602989
 N    1.061891   -0.163655    0.973485
 C   -0.125882   -0.082804    0.201235
 C   -0.058174   -0.059455   -1.188764
 C    1.064988   -1.019045    2.139690
 C   -1.370447   -0.001046    0.819298
 C   -2.521880    0.091867    0.059166
 C   -2.450925    0.110507   -1.322788
 C   -1.214741    0.037733   -1.940607
 H   -1.453690    0.008507    1.895103
 H    0.898847   -0.115299   -1.679404
 O    2.366887    1.140294   -0.388317
 H    0.987192   -2.066821    1.835390
 H    0.229343   -0.795547    2.801152
 H    1.993132   -0.881381    2.690956
 H   -3.479842    0.156654    0.553977
 H   -1.146229    0.052684   -3.018022
 H   -3.352382    0.184352   -1.912099
 H    3.000735    0.323976    1.348146
}
memory 20GB
set_num_threads(5)
psi4_io.set_default_path("/scratch/liuchw/Psi4-3_24_Index_0-farH_in17")
set freeze_core True
E, wfn = energy('wb97x-d/6-311+G*',return_wfn=True)
oeprop(wfn,"WIBERG_LOWDIN_INDICES")
clean()
--------------------------------------------------------------------------

  Memory set to  18.626 GiB by Python driver.
  Threads set to 5 by Python driver.

Scratch directory: /scratch/liuchw/Psi4-3_24_Index_0-farH_in17/

*** tstart() called on node165.bme.utexas.edu
*** at Sat Nov 18 08:32:19 2023

   => Loading Basis Set <=

    Name: 6-311+G*
    Role: ORBITAL
    Keyword: BASIS
    atoms 1, 3-9       entry C          line   130 file /home/liuchw/anaconda3/envs/poltype2022/share/psi4/basis/6-311pgs.gbs 
    atoms 2            entry N          line   151 file /home/liuchw/anaconda3/envs/poltype2022/share/psi4/basis/6-311pgs.gbs 
    atoms 10-11, 13-19 entry H          line    47 file /home/liuchw/anaconda3/envs/poltype2022/share/psi4/basis/6-311pgs.gbs 
    atoms 12           entry O          line   172 file /home/liuchw/anaconda3/envs/poltype2022/share/psi4/basis/6-311pgs.gbs 

   => WB97X-D: Empirical Dispersion <=

    Chai and Head-Gordon Dispersion Correction
    Chai, J.-D.; Head-Gordon, M. (2010), J. Chem. Phys., 132: 6615-6620

        s6 =       1.000000


         ---------------------------------------------------------
                                   SCF
               by Justin Turney, Rob Parrish, Andy Simmonett
                          and Daniel G. A. Smith
                              RKS Reference
                        5 Threads,  19073 MiB Core
         ---------------------------------------------------------

  ==> Geometry <==

    Molecular point group: c1
    Full point group: C1

    Geometry (in Angstrom), charge = 0, multiplicity = 1:

       Center              X                  Y                   Z               Mass       
    ------------   -----------------  -----------------  -----------------  -----------------
         C            2.220026652068     0.422105157902     0.570310421147    12.000000000000
         N            1.087060652068    -0.218812842098     0.940806421147    14.003074004430
         C           -0.100712347932    -0.137961842098     0.168556421147    12.000000000000
         C           -0.033004347932    -0.114612842098    -1.221442578853    12.000000000000
         C            1.090157652068    -1.074202842098     2.107011421147    12.000000000000
         C           -1.345277347932    -0.056203842098     0.786619421147    12.000000000000
         C           -2.496710347932     0.036709157902     0.026487421147    12.000000000000
         C           -2.425755347932     0.055349157902    -1.355466578853    12.000000000000
         C           -1.189571347932    -0.017424842098    -1.973285578853    12.000000000000
         H           -1.428520347932    -0.046650842098     1.862424421147     1.007825032230
         H            0.924016652068    -0.170456842098    -1.712082578853     1.007825032230
         O            2.392056652068     1.085136157902    -0.420995578853    15.994914619570
         H            1.012361652068    -2.121978842098     1.802711421147     1.007825032230
         H            0.254512652068    -0.850704842098     2.768473421147     1.007825032230
         H            2.018301652068    -0.936538842098     2.658277421147     1.007825032230
         H           -3.454672347932     0.101496157902     0.521298421147     1.007825032230
         H           -1.121059347932    -0.002473842098    -3.050700578853     1.007825032230
         H           -3.327212347932     0.129194157902    -1.944777578853     1.007825032230
         H            3.025904652068     0.268818157902     1.315467421147     1.007825032230

  Running in c1 symmetry.

  Rotational constants: A =      0.08462  B =      0.03512  C =      0.02661 [cm^-1]
  Rotational constants: A =   2536.74078  B =   1052.89791  C =    797.61725 [MHz]
  Nuclear repulsion =  499.566300584669818

  Charge       = 0
  Multiplicity = 1
  Electrons    = 72
  Nalpha       = 36
  Nbeta        = 36

  ==> Algorithm <==

  SCF Algorithm Type is DF.
  DIIS enabled.
  MOM disabled.
  Fractional occupation disabled.
  Guess Type is SAD.
  Energy threshold   = 1.00e-06
  Density threshold  = 1.00e-06
  Integral threshold = 1.00e-12

  ==> Primary Basis <==

  Basis Set: 6-311+G*
    Blend: 6-311+G*
    Number of shells: 127
    Number of basis functions: 247
    Number of Cartesian functions: 257
    Spherical Harmonics?: true
    Max angular momentum: 2

  ==> DFT Potential <==

   => LibXC <=

    Version 5.1.5
    S. Lehtola, C. Steigemann, M. J. Oliveira, and M. A. Marques, SoftwareX 7, 1 (2018) (10.1016/j.softx.2017.11.002)

   => Composite Functional: WB97X-D <= 

    wB97X-D Hyb-GGA Exchange-Correlation Functional

    J.-D. Chai and M. Head-Gordon, Phys. Chem. Chem. Phys. 10, 6615 (2008) (10.1039/B810189B)

    Deriv               =              1
    GGA                 =           TRUE
    Meta                =          FALSE

    Exchange Hybrid     =           TRUE
    MP2 Hybrid          =          FALSE

   => Exchange-Correlation Functionals <=

    1.0000   wB97X-D range-separated functional

   => Exact (HF) Exchange <=

    0.7780            HF,LR [omega = 0.2000]
    0.2220               HF 

   => LibXC Density Thresholds  <==

    XC_HYB_GGA_XC_WB97X_D:  1.00E-14 

   => Molecular Quadrature <=

    Radial Scheme          =       TREUTLER
    Pruning Scheme         =           NONE
    Nuclear Scheme         =       TREUTLER

    Blocking Scheme        =         OCTREE
    BS radius alpha        =              1
    Pruning alpha          =              1
    Radial Points          =             75
    Spherical Points       =            302
    Total Points           =         400925
    Total Blocks           =           2995
    Max Points             =            256
    Max Functions          =            227
    Weights Tolerance      =       1.00E-15

   => Loading Basis Set <=

    Name: (6-311+G* AUX)
    Role: JKFIT
    Keyword: DF_BASIS_SCF
    atoms 1, 3-9       entry C          line   200 file /home/liuchw/anaconda3/envs/poltype2022/share/psi4/basis/heavy-aug-cc-pvtz-jkfit.gbs 
    atoms 2            entry N          line   262 file /home/liuchw/anaconda3/envs/poltype2022/share/psi4/basis/heavy-aug-cc-pvtz-jkfit.gbs 
    atoms 10-11, 13-19 entry H          line   116 file /home/liuchw/anaconda3/envs/poltype2022/share/psi4/basis/heavy-aug-cc-pvtz-jkfit.gbs 
    atoms 12           entry O          line   324 file /home/liuchw/anaconda3/envs/poltype2022/share/psi4/basis/heavy-aug-cc-pvtz-jkfit.gbs 

  ==> Integral Setup <==

  DFHelper Memory: AOs need 1.702 GiB; user supplied 11.962 GiB. Using in-core AOs.

  ==> MemDFJK: Density-Fitted J/K Matrices <==

    J tasked:                   Yes
    K tasked:                   Yes
    wK tasked:                  Yes
    Omega:                2.000E-01
    OpenMP threads:               5
    Memory [MiB]:             12248
    Algorithm:                 Core
    Schwarz Cutoff:           1E-12
    Mask sparsity (%):       6.2384
    Fitting Condition:        1E-10

   => Auxiliary Basis Set <=

  Basis Set: (6-311+G* AUX)
    Blend: HEAVY-AUG-CC-PVTZ-JKFIT
    Number of shells: 390
    Number of basis functions: 1310
    Number of Cartesian functions: 1625
    Spherical Harmonics?: true
    Max angular momentum: 4

  Cached 100.0% of DFT collocation blocks in 2.008 [GiB].

  Minimum eigenvalue in the overlap matrix is 2.2897387352E-06.
  Reciprocal condition number of the overlap matrix is 1.6724458616E-07.
    Using symmetric orthogonalization.

  ==> Pre-Iterations <==

  SCF Guess: Superposition of Atomic Densities via on-the-fly atomic UHF (no occupation information).

   -------------------------
    Irrep   Nso     Nmo    
   -------------------------
     A        247     247 
   -------------------------
    Total     247     247
   -------------------------

  ==> Iterations <==

                           Total Energy        Delta E     RMS |[F,P]|

   @DF-RKS iter SAD:  -439.71267332107755   -4.39713e+02   0.00000e+00 
   @DF-RKS iter   1:  -439.74423319885091   -3.15599e-02   3.92215e-03 DIIS/ADIIS
   @DF-RKS iter   2:  -439.88159604780509   -1.37363e-01   3.56792e-03 DIIS/ADIIS
   @DF-RKS iter   3:  -440.18300604846212   -3.01410e-01   8.22539e-04 DIIS/ADIIS
   @DF-RKS iter   4:  -440.19676930969263   -1.37633e-02   2.22689e-04 DIIS/ADIIS
   @DF-RKS iter   5:  -440.19792614407771   -1.15683e-03   6.37644e-05 DIIS
   @DF-RKS iter   6:  -440.19802615832737   -1.00014e-04   2.07143e-05 DIIS
   @DF-RKS iter   7:  -440.19803742746780   -1.12691e-05   4.47980e-06 DIIS
   @DF-RKS iter   8:  -440.19803826387704   -8.36409e-07   1.89517e-06 DIIS
   @DF-RKS iter   9:  -440.19803844007293   -1.76196e-07   5.70883e-07 DIIS
  Energy and wave function converged.


  ==> Post-Iterations <==

   Electrons on quadrature grid:
      Ntotal   =   71.9999812995 ; deviation = -1.870e-05 

    Orbital Energies [Eh]
    ---------------------

    Doubly Occupied:                                                      

       1A    -19.220814     2A    -14.483776     3A    -10.389008  
       4A    -10.337449     5A    -10.333557     6A    -10.296186  
       7A    -10.293565     8A    -10.290467     9A    -10.288986  
      10A    -10.287911    11A     -1.157106    12A     -1.069952  
      13A     -0.966870    14A     -0.865542    15A     -0.860017  
      16A     -0.822054    17A     -0.751664    18A     -0.712910  
      19A     -0.673105    20A     -0.617466    21A     -0.608300  
      22A     -0.576659    23A     -0.575126    24A     -0.545025  
      25A     -0.537354    26A     -0.516091    27A     -0.508859  
      28A     -0.500689    29A     -0.488626    30A     -0.466927  
      31A     -0.450300    32A     -0.438841    33A     -0.376683  
      34A     -0.353019    35A     -0.334963    36A     -0.309011  

    Virtual:                                                              

      37A      0.041861    38A      0.050852    39A      0.056222  
      40A      0.068245    41A      0.076365    42A      0.081680  
      43A      0.089864    44A      0.091966    45A      0.101824  
      46A      0.106746    47A      0.118043    48A      0.123124  
      49A      0.124308    50A      0.131271    51A      0.147093  
      52A      0.150298    53A      0.158764    54A      0.165586  
      55A      0.172991    56A      0.175645    57A      0.191210  
      58A      0.195044    59A      0.198365    60A      0.210750  
      61A      0.212370    62A      0.218405    63A      0.222809  
      64A      0.223120    65A      0.234422    66A      0.241880  
      67A      0.247887    68A      0.251928    69A      0.255646  
      70A      0.263050    71A      0.268853    72A      0.277904  
      73A      0.279532    74A      0.284606    75A      0.288444  
      76A      0.296948    77A      0.301077    78A      0.304843  
      79A      0.308732    80A      0.310860    81A      0.324815  
      82A      0.328737    83A      0.339536    84A      0.351568  
      85A      0.356695    86A      0.369716    87A      0.380467  
      88A      0.394433    89A      0.401646    90A      0.409239  
      91A      0.412740    92A      0.416581    93A      0.428233  
      94A      0.436666    95A      0.473323    96A      0.491522  
      97A      0.511004    98A      0.524979    99A      0.544084  
     100A      0.554510   101A      0.584945   102A      0.602167  
     103A      0.606871   104A      0.617547   105A      0.621033  
     106A      0.625616   107A      0.649948   108A      0.660780  
     109A      0.663759   110A      0.685354   111A      0.693834  
     112A      0.700780   113A      0.708624   114A      0.723074  
     115A      0.737777   116A      0.752986   117A      0.756473  
     118A      0.773920   119A      0.781242   120A      0.786828  
     121A      0.792720   122A      0.811617   123A      0.814702  
     124A      0.818240   125A      0.845638   126A      0.851762  
     127A      0.872314   128A      0.915675   129A      0.918683  
     130A      0.943604   131A      0.950676   132A      0.952240  
     133A      0.965923   134A      0.978647   135A      0.980576  
     136A      0.982859   137A      1.025984   138A      1.062906  
     139A      1.080075   140A      1.106282   141A      1.137700  
     142A      1.157708   143A      1.198354   144A      1.217748  
     145A      1.243717   146A      1.259086   147A      1.275937  
     148A      1.285935   149A      1.301610   150A      1.332437  
     151A      1.347930   152A      1.365212   153A      1.424891  
     154A      1.445030   155A      1.468080   156A      1.498226  
     157A      1.583674   158A      1.608753   159A      1.619517  
     160A      1.644668   161A      1.653854   162A      1.682956  
     163A      1.707856   164A      1.717192   165A      1.734048  
     166A      1.780109   167A      1.823065   168A      1.851494  
     169A      1.863598   170A      1.873768   171A      1.895057  
     172A      1.902572   173A      1.927927   174A      1.949774  
     175A      2.019259   176A      2.028608   177A      2.045709  
     178A      2.089103   179A      2.107615   180A      2.121252  
     181A      2.211916   182A      2.253733   183A      2.313071  
     184A      2.372506   185A      2.385665   186A      2.410924  
     187A      2.432427   188A      2.478722   189A      2.482654  
     190A      2.508545   191A      2.529145   192A      2.554209  
     193A      2.601527   194A      2.613789   195A      2.686881  
     196A      2.701113   197A      2.773664   198A      2.779583  
     199A      2.817600   200A      2.868653   201A      2.881916  
     202A      2.919880   203A      2.941722   204A      2.957759  
     205A      2.998705   206A      3.018980   207A      3.033780  
     208A      3.045672   209A      3.099596   210A      3.184368  
     211A      3.242752   212A      3.294195   213A      3.301047  
     214A      3.404234   215A      3.415189   216A      3.429971  
     217A      3.433106   218A      3.448256   219A      3.468907  
     220A      3.479630   221A      3.487244   222A      3.604051  
     223A      3.638111   224A      3.695209   225A      3.739778  
     226A      3.771221   227A      3.902567   228A      4.012865  
     229A      4.031284   230A      4.128886   231A      4.153573  
     232A      4.885496   233A      4.906898   234A      5.082619  
     235A      5.176907   236A      5.306548   237A      5.871845  
     238A     23.482634   239A     23.692291   240A     23.989918  
     241A     23.998815   242A     24.024763   243A     24.185986  
     244A     24.211204   245A     24.315723   246A     35.680255  
     247A     50.130955  

    Final Occupation by Irrep:
              A 
    DOCC [    36 ]

  @DF-RKS Final Energy:  -440.19803844007293

   => Energetics <=

    Nuclear Repulsion Energy =            499.5663005846698184
    One-Electron Energy =               -1585.7499659708266790
    Two-Electron Energy =                 688.9475010503028898
    DFT Exchange-Correlation Energy =     -42.9519345887797144
    Empirical Dispersion Energy =          -0.0099395154391366
    VV10 Nonlocal Energy =                  0.0000000000000000
    Total Energy =                       -440.1980384400728781

Computation Completed


Properties will be evaluated at   0.000000,   0.000000,   0.000000 [a0]

Properties computed using the SCF density matrix


 Multipole Moments:

 ------------------------------------------------------------------------------------
     Multipole            Electronic (a.u.)      Nuclear  (a.u.)        Total (a.u.)
 ------------------------------------------------------------------------------------

 L = 1.  Multiply by 2.5417464519 to convert [e a0] to [Debye]
 Dipole X            :          1.3842398           -1.9569438           -0.5727040
 Dipole Y            :          2.4669638           -3.3965042           -0.9295404
 Dipole Z            :         -2.9149168            3.9523893            1.0374725
 Magnitude           :                                                    1.5061157

 ------------------------------------------------------------------------------------

*** tstop() called on node165.bme.utexas.edu at Sat Nov 18 08:32:31 2023
Module time:
	user time   =      53.71 seconds =       0.90 minutes
	system time =       2.35 seconds =       0.04 minutes
	total time  =         12 seconds =       0.20 minutes
Total time:
	user time   =      53.71 seconds =       0.90 minutes
	system time =       2.35 seconds =       0.04 minutes
	total time  =         12 seconds =       0.20 minutes


Properties will be evaluated at   0.000000,   0.000000,   0.000000 [a0]
OEProp: No title given, name of density matrix used for the following properties is 'SCF density'


  Wiberg Bond Indices using Orthogonal Lowdin Orbitals:

  Irrep: 1 Size: 19 x 19

                 1                   2                   3                   4                   5

    1     0.00000000000000     1.41767098326237     0.10729837108283     0.04900822961388     0.13469887701738
    2     1.41767098326237     0.00000000000000     1.11780850955401     0.11728501918778     1.16956781771200
    3     0.10729837108283     1.11780850955401     0.00000000000000     1.40099047662577     0.10692671585089
    4     0.04900822961388     0.11728501918778     1.40099047662577     0.00000000000000     0.02183618219574
    5     0.13469887701738     1.16956781771200     0.10692671585089     0.02183618219574     0.00000000000000
    6     0.02905624715336     0.11770611965493     1.40996527854311     0.12941514851528     0.05534816468796
    7     0.00381649014301     0.01570629957950     0.13717047166822     0.14327916363408     0.00583728342363
    8     0.00749024933415     0.01193927675553     0.13596238053428     0.14005174944754     0.00377383768734
    9     0.00538276025338     0.01566781447470     0.13789773571029     1.52013096348018     0.00328318721455
   10     0.00167165159015     0.01541159763436     0.05563123202178     0.00956679183359     0.01510140090200
   11     0.01070706477793     0.01476528849464     0.05385944351499     0.79778962924699     0.00144600800590
   12     2.30607466173187     0.25257535268961     0.05089765463948     0.07356195929819     0.03086362053539
   13     0.01411895881761     0.05006173484897     0.01406335254764     0.00196499127501     0.88462325571743
   14     0.01253952958583     0.04935179983704     0.01277518088515     0.00148703537403     0.88218148899761
   15     0.02597320635422     0.04750618665730     0.01053589906580     0.00131485610772     0.88462103504638
   16     0.00043363638604     0.00088595128210     0.01082228448997     0.00256504944212     0.00026906379591
   17     0.00028169934577     0.00083696870939     0.01085129600922     0.06100699491943     0.00039489518011
   18     0.00007909523629     0.00023450333078     0.00288696892748     0.01118418001538     0.00012644452243
   19     0.78503578638648     0.07020748066302     0.01439979354492     0.00459054465725     0.02694511218847

                 6                   7                   8                   9                  10

    1     0.02905624715336     0.00381649014301     0.00749024933415     0.00538276025338     0.00167165159015
    2     0.11770611965493     0.01570629957950     0.01193927675553     0.01566781447470     0.01541159763436
    3     1.40996527854311     0.13717047166822     0.13596238053428     0.13789773571029     0.05563123202178
    4     0.12941514851528     0.14327916363408     0.14005174944754     1.52013096348018     0.00956679183359
    5     0.05534816468796     0.00583728342363     0.00377383768734     0.00328318721455     0.01510140090200
    6     0.00000000000000     1.52334572977952     0.13977727542079     0.14385471962908     0.81154772517735
    7     1.52334572977952     0.00000000000000     1.52005788497939     0.14048644516376     0.05701551203231
    8     0.13977727542079     1.52005788497939     0.00000000000000     1.51848222202399     0.01069858890365
    9     0.14385471962908     0.14048644516376     1.51848222202399     0.00000000000000     0.00245030156339
   10     0.81154772517735     0.05701551203231     0.01069858890365     0.00245030156339     0.00000000000000
   11     0.00918742007738     0.00241522608506     0.01045088849059     0.05621638995259     0.00041968411570
   12     0.00979636288634     0.00287946945165     0.00495273659653     0.00906883767932     0.00016895995012
   13     0.00480870453562     0.00033824477318     0.00037032747436     0.00026600059013     0.00045227784673
   14     0.01539261213555     0.00151329642417     0.00076295907477     0.00026319559309     0.00400549537171
   15     0.00212948300194     0.00022609785493     0.00028858817205     0.00044973484378     0.00021840880487
   16     0.06137146581272     0.83157284397177     0.05948234601836     0.01150141671927     0.00572948963681
   17     0.00253527398398     0.01152190806399     0.05970260525100     0.83121695853225     0.00023650818842
   18     0.01127921973543     0.06022009153361     0.83351740754118     0.05991118017290     0.00020078859425
   19     0.00204051190970     0.00055924950529     0.00028828768030     0.00059109093379     0.00007585751554

                11                  12                  13                  14                  15

    1     0.01070706477793     2.30607466173187     0.01411895881761     0.01253952958583     0.02597320635422
    2     0.01476528849464     0.25257535268961     0.05006173484897     0.04935179983704     0.04750618665730
    3     0.05385944351499     0.05089765463948     0.01406335254764     0.01277518088515     0.01053589906580
    4     0.79778962924699     0.07356195929819     0.00196499127501     0.00148703537403     0.00131485610772
    5     0.00144600800590     0.03086362053539     0.88462325571743     0.88218148899761     0.88462103504638
    6     0.00918742007738     0.00979636288634     0.00480870453562     0.01539261213555     0.00212948300194
    7     0.00241522608506     0.00287946945165     0.00033824477318     0.00151329642417     0.00022609785493
    8     0.01045088849059     0.00495273659653     0.00037032747436     0.00076295907477     0.00028858817205
    9     0.05621638995259     0.00906883767932     0.00026600059013     0.00026319559309     0.00044973484378
   10     0.00041968411570     0.00016895995012     0.00045227784673     0.00400549537171     0.00021840880487
   11     0.00000000000000     0.02005494138416     0.00001769565364     0.00005957382961     0.00005273090819
   12     0.02005494138416     0.00000000000000     0.00389130080717     0.00353481933060     0.00289336707304
   13     0.00001769565364     0.00389130080717     0.00000000000000     0.00748122040168     0.00875223851623
   14     0.00005957382961     0.00353481933060     0.00748122040168     0.00000000000000     0.00932333447089
   15     0.00005273090819     0.00289336707304     0.00875223851623     0.00932333447089     0.00000000000000
   16     0.00020408363569     0.00009689964485     0.00001104639529     0.00004603545026     0.00001266171246
   17     0.00556182858431     0.00027946388312     0.00003395771932     0.00003327032951     0.00001522187669
   18     0.00022775284030     0.00010438784952     0.00001089483724     0.00002708720691     0.00000829359593
   19     0.00018137596872     0.08317059018120     0.00009258290200     0.00011697015306     0.00571336308593

                16                  17                  18                  19

    1     0.00043363638604     0.00028169934577     0.00007909523629     0.78503578638648
    2     0.00088595128210     0.00083696870939     0.00023450333078     0.07020748066302
    3     0.01082228448997     0.01085129600922     0.00288696892748     0.01439979354492
    4     0.00256504944212     0.06100699491943     0.01118418001538     0.00459054465725
    5     0.00026906379591     0.00039489518011     0.00012644452243     0.02694511218847
    6     0.06137146581272     0.00253527398398     0.01127921973543     0.00204051190970
    7     0.83157284397177     0.01152190806399     0.06022009153361     0.00055924950529
    8     0.05948234601836     0.05970260525100     0.83351740754118     0.00028828768030
    9     0.01150141671927     0.83121695853225     0.05991118017290     0.00059109093379
   10     0.00572948963681     0.00023650818842     0.00020078859425     0.00007585751554
   11     0.00020408363569     0.00556182858431     0.00022775284030     0.00018137596872
   12     0.00009689964485     0.00027946388312     0.00010438784952     0.08317059018120
   13     0.00001104639529     0.00003395771932     0.00001089483724     0.00009258290200
   14     0.00004603545026     0.00003327032951     0.00002708720691     0.00011697015306
   15     0.00001266171246     0.00001522187669     0.00000829359593     0.00571336308593
   16     0.00000000000000     0.00027162796443     0.00535585436888     0.00002231904352
   17     0.00027162796443     0.00000000000000     0.00531574630157     0.00000621334968
   18     0.00535585436888     0.00531574630157     0.00000000000000     0.00003306338551
   19     0.00002231904352     0.00000621334968     0.00003306338551     0.00000000000000



  Atomic Valences: 

 #  #
 Irrep: 1
      1:    4.911337498072541
      2:    4.485188704328037
      3:    4.790743045215845
      4:    4.487028964869962
      5:    4.227844390681144
      6:    4.478557462640037
      7:    4.457961708067058
      8:    4.458049611385798
      9:    4.457120954530421
     10:    0.990602271682732
     11:    0.983617025566390
     12:    2.854865385612142
     13:    0.991358785659259
     14:    1.000894904451470
     15:    1.000034707148365
     16:    0.990654075770440
     17:    0.990102438192197
     18:    0.990722959995587
     19:    0.994070193054378


    Psi4 stopped on: Saturday, 18 November 2023 08:32AM
    Psi4 wall time for execution: 0:00:12.33

*** Psi4 exiting successfully. Buy a developer a beer!
