      -----------------------------------------------------------      
     |                   =====================                   |     
     |                           x T B                           |     
     |                   =====================                   |     
     |                         S. Grimme                         |     
     |          Mulliken Center for Theoretical Chemistry        |     
     |                    University of Bonn                     |     
      -----------------------------------------------------------      

   * xtb version 6.5.0 (97a52f5) compiled by 'conda@d2599ee0d4f4' on 2022-05-15

   xtb is free software: you can redistribute it and/or modify it under
   the terms of the GNU Lesser General Public License as published by
   the Free Software Foundation, either version 3 of the License, or
   (at your option) any later version.
   
   xtb is distributed in the hope that it will be useful,
   but WITHOUT ANY WARRANTY; without even the implied warranty of
   MERCHANTABILITY or FITNESS FOR A PARTICULAR PURPOSE.  See the
   GNU Lesser General Public License for more details.
   
   Cite this work as:
   * C. Bannwarth, E. Caldeweyher, S. Ehlert, A. Hansen, P. Pracht,
     J. Seibert, S. Spicher, S. Grimme, WIREs Comput. Mol. Sci., 2020, 11,
     e01493. DOI: 10.1002/wcms.1493
   
   for GFN2-xTB:
   * C. Bannwarth, S. Ehlert and S. Grimme., J. Chem. Theory Comput., 2019,
     15, 1652-1671. DOI: 10.1021/acs.jctc.8b01176
   for GFN1-xTB:
   * S. Grimme, C. Bannwarth, P. Shushkov, J. Chem. Theory Comput., 2017,
     13, 1989-2009. DOI: 10.1021/acs.jctc.7b00118
   for GFN0-xTB:
   * P. Pracht, E. Caldeweyher, S. Ehlert, S. Grimme, ChemRxiv, 2019, preprint.
     DOI: 10.26434/chemrxiv.8326202.v1
   for GFN-FF:
   * S. Spicher and S. Grimme, Angew. Chem. Int. Ed., 2020, 59, 15665-15673.
     DOI: 10.1002/anie.202004239
   
   for ALPB and GBSA implicit solvation:
   * S. Ehlert, M. Stahn, S. Spicher, S. Grimme, J. Chem. Theory Comput.,
     2021, 17, 4250-4261. DOI: 10.1021/acs.jctc.1c00471
   
   for DFT-D4:
   * E. Caldeweyher, C. Bannwarth and S. Grimme, J. Chem. Phys., 2017,
     147, 034112. DOI: 10.1063/1.4993215
   * E. Caldeweyher, S. Ehlert, A. Hansen, H. Neugebauer, S. Spicher,
     C. Bannwarth and S. Grimme, J. Chem. Phys., 2019, 150, 154122.
     DOI: 10.1063/1.5090222
   * E. Caldeweyher, J.-M. Mewes, S. Ehlert and S. Grimme, Phys. Chem. Chem. Phys.
     2020, 22, 8499-8512. DOI: 10.1039/D0CP00502A
   
   for sTDA-xTB:
   * S. Grimme and C. Bannwarth, J. Chem. Phys., 2016, 145, 054103.
     DOI: 10.1063/1.4959605
   
   in the mass-spec context:
   * V. Asgeirsson, C. Bauer and S. Grimme, Chem. Sci., 2017, 8, 4879.
     DOI: 10.1039/c7sc00601b
   * J. Koopman and S. Grimme, ACS Omega 2019, 4, 12, 15120-15133.
     DOI: 10.1021/acsomega.9b02011
   
   for metadynamics refer to:
   * S. Grimme, J. Chem. Theory Comput., 2019, 155, 2847-2862
     DOI: 10.1021/acs.jctc.9b00143
   
   for SPH calculations refer to:
   * S. Spicher and S. Grimme, J. Chem. Theory Comput., 2021, 17, 1701-1714
     DOI: 10.1021/acs.jctc.0c01306
   
   with help from (in alphabetical order)
   P. Atkinson, C. Bannwarth, F. Bohle, G. Brandenburg, E. Caldeweyher
   M. Checinski, S. Dohm, S. Ehlert, S. Ehrlich, I. Gerasimov, C. Hölzer
   A. Katbashev, J. Koopman, C. Lavigne, S. Lehtola, F. März, M. Müller,
   F. Musil, H. Neugebauer, J. Pisarek, C. Plett, P. Pracht, F. Pultar,
   J. Seibert, P. Shushkov, S. Spicher, M. Stahn, M. Steiner, T. Strunk,
   J. Stückrath, T. Rose, and J. Unsleber
   
 * started run on 2023/11/18 at 08:21:48.275     

           -------------------------------------------------
          |                Calculation Setup                |
           -------------------------------------------------

          program call               : /home/liuchw/anaconda3/envs/xtbenv/bin/xtb --gfn 2 --chrg 0 --uhf 0 3_24_Index_0-opt-2-5-281_preQMOPTprefit_xyzformat.xyz --opt --input xtb-opt-2-5-281_constr.txt
          hostname                   : node165.bme.utexas.edu
          coordinate file            : 3_24_Index_0-opt-2-5-281_preQMOPTprefit_xyzformat.xyz
          omp threads                :                    64

   ID    Z sym.   atoms
    1    6 C      1, 3-9
    2    7 N      2
    3    1 H      10, 11, 13-19
    4    8 O      12
constraining angle 1 2 5 14 to  281.0136231°, actual value:  -78.9863769°
constraining angle 1 2 3 4 to   37.1076359°, actual value:   37.1076359°
constraining angle 12 1 2 3 to  358.0046453°, actual value:   -1.9953547°

           -------------------------------------------------
          |                 G F N 2 - x T B                 |
           -------------------------------------------------

        Reference                      10.1021/acs.jctc.8b01176
      * Hamiltonian:
        H0-scaling (s, p, d)           1.850000    2.230000    2.230000
        zeta-weighting                 0.500000
      * Dispersion:
        s8                             2.700000
        a1                             0.520000
        a2                             5.000000
        s9                             5.000000
      * Repulsion:
        kExp                           1.500000    1.000000
        rExp                           1.000000
      * Coulomb:
        alpha                          2.000000
        third order                    shell-resolved
        anisotropic                    true
        a3                             3.000000
        a5                             4.000000
        cn-shift                       1.200000
        cn-exp                         4.000000
        max-rad                        5.000000

q/qsh data taken from xtbrestart
CAMM data taken from xtbrestart

          ...................................................
          :                      SETUP                      :
          :.................................................:
          :  # basis functions                  49          :
          :  # atomic orbitals                  49          :
          :  # shells                           29          :
          :  # electrons                        52          :
          :  max. iterations                   250          :
          :  Hamiltonian                  GFN2-xTB          :
          :  restarted?                       true          :
          :  GBSA solvation                  false          :
          :  PC potential                    false          :
          :  electronic temp.          300.0000000     K    :
          :  accuracy                    1.0000000          :
          :  -> integral cutoff          0.2500000E+02      :
          :  -> integral neglect         0.1000000E-07      :
          :  -> SCF convergence          0.1000000E-05 Eh   :
          :  -> wf. convergence          0.1000000E-03 e    :
          :  Broyden damping             0.4000000          :
          ...................................................

 iter      E             dE          RMSdq      gap      omega  full diag
   1    -29.0867766 -0.290868E+02  0.656E-01    3.82       0.0  T
   2    -29.0876873 -0.910697E-03  0.425E-01    3.76       1.0  T
   3    -29.0876694  0.178754E-04  0.219E-01    3.78       1.0  T
   4    -29.0879503 -0.280928E-03  0.611E-02    3.78       1.0  T
   5    -29.0880077 -0.574099E-04  0.118E-02    3.78       1.9  T
   6    -29.0880082 -0.485033E-06  0.569E-03    3.77       4.0  T
   7    -29.0880084 -0.132927E-06  0.219E-03    3.77      10.5  T
   8    -29.0880084 -0.128839E-07  0.842E-04    3.77      27.3  T
   9    -29.0880084 -0.447545E-08  0.340E-04    3.77      67.6  T

   *** convergence criteria satisfied after 9 iterations ***

         #    Occupation            Energy/Eh            Energy/eV
      -------------------------------------------------------------
         1        2.0000           -0.6939682             -18.8838
       ...           ...                  ...                  ...
        20        2.0000           -0.4780146             -13.0074
        21        2.0000           -0.4423937             -12.0381
        22        2.0000           -0.4365518             -11.8792
        23        2.0000           -0.4224852             -11.4964
        24        2.0000           -0.4078117             -11.0971
        25        2.0000           -0.3985320             -10.8446
        26        2.0000           -0.3856604             -10.4944 (HOMO)
        27                         -0.2469383              -6.7195 (LUMO)
        28                         -0.2330766              -6.3423
        29                         -0.2180212              -5.9327
        30                         -0.1111825              -3.0254
        31                         -0.0516131              -1.4045
       ...                                ...                  ...
        49                          0.6052160              16.4688
      -------------------------------------------------------------
                  HL-Gap            0.1387221 Eh            3.7748 eV
             Fermi-level           -0.3162994 Eh           -8.6069 eV

 SCC (total)                   0 d,  0 h,  0 min,  1.251 sec
 SCC setup                      ...        0 min,  0.012 sec (  0.972%)
 Dispersion                     ...        0 min,  0.029 sec (  2.326%)
 classical contributions        ...        0 min,  0.018 sec (  1.410%)
 integral evaluation            ...        0 min,  0.051 sec (  4.053%)
 iterations                     ...        0 min,  1.002 sec ( 80.081%)
 molecular gradient             ...        0 min,  0.139 sec ( 11.114%)
 printout                       ...        0 min,  0.000 sec (  0.016%)

         :::::::::::::::::::::::::::::::::::::::::::::::::::::
         ::                     SUMMARY                     ::
         :::::::::::::::::::::::::::::::::::::::::::::::::::::
         :: total energy             -28.688115824203 Eh    ::
         :: gradient norm              0.069084714620 Eh/a0 ::
         :: HOMO-LUMO gap              3.774820185493 eV    ::
         ::.................................................::
         :: SCC energy               -29.088008372628 Eh    ::
         :: -> isotropic ES            0.033295697465 Eh    ::
         :: -> anisotropic ES          0.003586114122 Eh    ::
         :: -> anisotropic XC          0.015512764543 Eh    ::
         :: -> dispersion             -0.015596427590 Eh    ::
         :: repulsion energy           0.399831917000 Eh    ::
         :: add. restraining           0.000000000000 Eh    ::
         :: total charge              -0.000000000000 e     ::
         :::::::::::::::::::::::::::::::::::::::::::::::::::::

      ----------------------------------------------------------- 
     |                   =====================                   |
     |                        A N C O P T                        |
     |                   =====================                   |
     |               Approximate Normal Coordinate               |
     |                Rational Function Optimizer                |
      ----------------------------------------------------------- 

          ...................................................
          :                      SETUP                      :
          :.................................................:
          :   optimization level            normal          :
          :   max. optcycles                   200          :
          :   ANC micro-cycles                  20          :
          :   degrees of freedom                51          :
          :.................................................:
          :   RF solver                   davidson          :
          :   write xtbopt.log                true          :
          :   linear?                        false          :
          :   energy convergence         0.5000000E-05 Eh   :
          :   grad. convergence          0.1000000E-02 Eh/α :
          :   maximium RF displ.         1.0000000          :
          :   Hlow (freq-cutoff)         0.1000000E-01      :
          :   Hmax (freq-cutoff)         5.0000000          :
          :   S6 in model hess.         20.0000000          :
          ...................................................

generating ANC from model Hessian ...
Using Lindh-Hessian (1995)
 Shifting diagonal of input Hessian by    7.1743815804627409E-003
 Lowest  eigenvalues of input Hessian
    0.000000    0.000000    0.000000    0.000000    0.000000    0.000000
    0.010000    0.011384    0.013677    0.019117    0.020265    0.022300
    0.023545    0.029168    0.034933    0.043274    0.053973    0.057980
 Highest eigenvalues
    1.877734    1.918880    2.195760    2.857450    5.144570   21.878124


........................................................................
.............................. CYCLE    1 ..............................
........................................................................
   1    -29.0880084 -0.290880E+02  0.147E-04    3.77       0.0  T
   2    -29.0880084 -0.284359E-10  0.922E-05    3.77     248.9  T
   3    -29.0880084  0.729017E-11  0.607E-05    3.77     377.7  T
     SCC iter.                  ...        0 min,  0.276 sec
     gradient                   ...        0 min,  0.148 sec
 * total energy  :   -28.6881158 Eh     change       -0.9866774E-09 Eh
   gradient norm :     0.0690843 Eh/α   predicted     0.0000000E+00 (-100.00%)
   displ. norm   :     0.3727647 α      lambda       -0.1378705E-01
   maximum displ.:     0.2274303 α      in ANC's #11, #7, #4, ...

........................................................................
.............................. CYCLE    2 ..............................
........................................................................
   1    -29.1320703 -0.291321E+02  0.355E-01    3.96       0.0  T
   2    -29.1322701 -0.199796E-03  0.229E-01    3.98       1.0  T
   3    -29.1322227  0.473783E-04  0.111E-01    3.97       1.0  T
   4    -29.1323331 -0.110382E-03  0.234E-02    3.97       1.0  T
   5    -29.1323403 -0.725142E-05  0.675E-03    3.97       3.4  T
   6    -29.1323406 -0.250223E-06  0.294E-03    3.98       7.8  T
   7    -29.1323406 -0.294753E-07  0.140E-03    3.97      16.4  T
   8    -29.1323406 -0.252339E-08  0.375E-04    3.97      61.2  T
   9    -29.1323406 -0.965613E-09  0.140E-04    3.97     163.5  T
     SCC iter.                  ...        0 min,  0.928 sec
     gradient                   ...        0 min,  0.150 sec
 * total energy  :   -28.6966832 Eh     change       -0.8567386E-02 Eh
   gradient norm :     0.0460311 Eh/α   predicted    -0.7854919E-02 (  -8.32%)
   displ. norm   :     0.2586781 α      lambda       -0.3116709E-02
   maximum displ.:     0.1513066 α      in ANC's #11, #2, #6, ...

........................................................................
.............................. CYCLE    3 ..............................
........................................................................
   1    -29.1539185 -0.291539E+02  0.183E-01    4.02       0.0  T
   2    -29.1540524 -0.133934E-03  0.127E-01    4.04       1.0  T
   3    -29.1540703 -0.178781E-04  0.636E-02    4.04       1.0  T
   4    -29.1540757 -0.540814E-05  0.202E-02    4.04       1.1  T
   5    -29.1540817 -0.600844E-05  0.341E-03    4.04       6.7  T
   6    -29.1540817 -0.378612E-07  0.174E-03    4.04      13.2  T
   7    -29.1540818 -0.119588E-07  0.646E-04    4.04      35.5  T
   8    -29.1540818 -0.885713E-09  0.240E-04    4.04      95.5  T
     SCC iter.                  ...        0 min,  0.867 sec
     gradient                   ...        0 min,  0.145 sec
 * total energy  :   -28.6968254 Eh     change       -0.1421583E-03 Eh
   gradient norm :     0.2069523 Eh/α   predicted    -0.1662670E-02 (1069.59%)
   displ. norm   :     0.1185953 α      lambda       -0.3167951E-02
   maximum displ.:     0.0847263 α      in ANC's #2, #11, #6, ...

........................................................................
.............................. CYCLE    4 ..............................
........................................................................
   1    -29.1567750 -0.291568E+02  0.711E-02    4.03       0.0  T
   2    -29.1567934 -0.184298E-04  0.476E-02    4.04       1.0  T
   3    -29.1567946 -0.119736E-05  0.223E-02    4.04       1.0  T
   4    -29.1567953 -0.690234E-06  0.753E-03    4.04       3.0  T
   5    -29.1567962 -0.897841E-06  0.109E-03    4.04      21.0  T
   6    -29.1567962 -0.165709E-08  0.535E-04    4.04      42.9  T
   7    -29.1567962 -0.999545E-09  0.165E-04    4.04     139.4  T
     SCC iter.                  ...        0 min,  0.804 sec
     gradient                   ...        0 min,  0.159 sec
 * total energy  :   -28.6972151 Eh     change       -0.3897192E-03 Eh
   gradient norm :     0.1450332 Eh/α   predicted    -0.1606281E-02 ( 312.16%)
   displ. norm   :     0.1486170 α      lambda       -0.3742769E-02
   maximum displ.:     0.0664606 α      in ANC's #11, #3, #6, ...

........................................................................
.............................. CYCLE    5 ..............................
........................................................................
   1    -29.1438115 -0.291438E+02  0.130E-01    4.00       0.0  T
   2    -29.1438364 -0.249528E-04  0.835E-02    3.99       1.0  T
   3    -29.1438309  0.546661E-05  0.353E-02    3.99       1.0  T
   4    -29.1438418 -0.108109E-04  0.821E-03    3.99       2.8  T
   5    -29.1438428 -0.107346E-05  0.228E-03    3.99      10.1  T
   6    -29.1438428 -0.149358E-07  0.112E-03    3.99      20.4  T
   7    -29.1438428 -0.450429E-08  0.404E-04    3.99      56.8  T
   8    -29.1438428 -0.336566E-09  0.146E-04    3.99     157.3  T
     SCC iter.                  ...        0 min,  0.822 sec
     gradient                   ...        0 min,  0.171 sec
 * total energy  :   -28.6979955 Eh     change       -0.7804203E-03 Eh
   gradient norm :     0.0135068 Eh/α   predicted    -0.9986957E-03 (  27.97%)
   displ. norm   :     0.0865776 α      lambda       -0.6917724E-03
   maximum displ.:     0.0619250 α      in ANC's #2, #4, #6, ...

........................................................................
.............................. CYCLE    6 ..............................
........................................................................
   1    -29.1473591 -0.291474E+02  0.712E-02    4.00       0.0  T
   2    -29.1473607 -0.155567E-05  0.423E-02    4.00       1.0  T
   3    -29.1473598  0.923451E-06  0.970E-03    4.00       2.4  T
   4    -29.1473610 -0.126520E-05  0.212E-03    4.00      10.8  T
   5    -29.1473611 -0.406925E-07  0.105E-03    4.00      21.8  T
   6    -29.1473611 -0.171088E-08  0.411E-04    4.00      55.8  T
   7    -29.1473611 -0.971497E-09  0.127E-04    4.00     180.2  T
     SCC iter.                  ...        0 min,  0.680 sec
     gradient                   ...        0 min,  0.155 sec
 * total energy  :   -28.6981238 Eh     change       -0.1282494E-03 Eh
   gradient norm :     0.0132551 Eh/α   predicted    -0.1279594E-03 (  -0.23%)
   displ. norm   :     0.0711400 α      lambda       -0.2488008E-03
   maximum displ.:     0.0608656 α      in ANC's #2, #4, #1, ...

........................................................................
.............................. CYCLE    7 ..............................
........................................................................
   1    -29.1483068 -0.291483E+02  0.324E-02    4.00       0.0  T
   2    -29.1483075 -0.616838E-06  0.189E-02    4.00       1.2  T
   3    -29.1483071  0.369858E-06  0.657E-03    4.00       3.5  T
   4    -29.1483076 -0.497991E-06  0.131E-03    4.00      17.5  T
   5    -29.1483076 -0.205225E-07  0.426E-04    4.00      53.9  T
   6    -29.1483076 -0.346823E-09  0.173E-04    4.00     132.5  T
     SCC iter.                  ...        0 min,  0.607 sec
     gradient                   ...        0 min,  0.172 sec
 * total energy  :   -28.6981797 Eh     change       -0.5590997E-04 Eh
   gradient norm :     0.0047140 Eh/α   predicted    -0.3385439E-04 ( -39.45%)
   displ. norm   :     0.1193132 α      lambda       -0.5168733E-03
   maximum displ.:     0.0974525 α      in ANC's #2, #4, #1, ...

........................................................................
.............................. CYCLE    8 ..............................
........................................................................
   1    -29.1482113 -0.291482E+02  0.532E-02    3.99       0.0  T
   2    -29.1482118 -0.443757E-06  0.308E-02    3.99       1.0  T
   3    -29.1482115  0.261752E-06  0.562E-03    3.99       4.1  T
   4    -29.1482119 -0.384559E-06  0.130E-03    3.99      17.7  T
   5    -29.1482119 -0.939846E-08  0.579E-04    3.99      39.6  T
   6    -29.1482119 -0.333536E-09  0.156E-04    3.99     146.6  T
     SCC iter.                  ...        0 min,  0.647 sec
     gradient                   ...        0 min,  0.143 sec
 * total energy  :   -28.6982479 Eh     change       -0.6823377E-04 Eh
   gradient norm :     0.0048834 Eh/α   predicted    -0.4649370E-04 ( -31.86%)
   displ. norm   :     0.1127714 α      lambda       -0.3828505E-03
   maximum displ.:     0.0967827 α      in ANC's #2, #4, #1, ...

........................................................................
.............................. CYCLE    9 ..............................
........................................................................
   1    -29.1479644 -0.291480E+02  0.498E-02    3.98       0.0  T
   2    -29.1479647 -0.355128E-06  0.290E-02    3.98       1.0  T
   3    -29.1479644  0.325328E-06  0.565E-03    3.98       4.1  T
   4    -29.1479648 -0.449561E-06  0.109E-03    3.98      21.0  T
   5    -29.1479649 -0.415971E-08  0.474E-04    3.98      48.4  T
   6    -29.1479649 -0.156344E-09  0.151E-04    3.98     151.6  T
     SCC iter.                  ...        0 min,  0.632 sec
     gradient                   ...        0 min,  0.163 sec
 * total energy  :   -28.6982842 Eh     change       -0.3633444E-04 Eh
   gradient norm :     0.0024199 Eh/α   predicted    -0.2543843E-04 ( -29.99%)
   displ. norm   :     0.0594549 α      lambda       -0.1313896E-03
   maximum displ.:     0.0543586 α      in ANC's #2, #4, #1, ...

........................................................................
.............................. CYCLE   10 ..............................
........................................................................
   1    -29.1479983 -0.291480E+02  0.272E-02    3.98       0.0  T
   2    -29.1479985 -0.126608E-06  0.159E-02    3.98       1.4  T
   3    -29.1479984  0.924323E-07  0.300E-03    3.98       7.7  T
   4    -29.1479985 -0.127165E-06  0.614E-04    3.98      37.4  T
   5    -29.1479985 -0.222038E-08  0.280E-04    3.98      81.8  T
     SCC iter.                  ...        0 min,  0.454 sec
     gradient                   ...        0 min,  0.143 sec
 * total energy  :   -28.6982958 Eh     change       -0.1158465E-04 Eh
   gradient norm :     0.0013017 Eh/α   predicted    -0.7827275E-05 ( -32.43%)
   displ. norm   :     0.0437293 α      lambda       -0.4451372E-04
   maximum displ.:     0.0414508 α      in ANC's #2, #3, #4, ...

........................................................................
.............................. CYCLE   11 ..............................
........................................................................
   1    -29.1481128 -0.291481E+02  0.207E-02    3.98       0.0  T
   2    -29.1481129 -0.612424E-07  0.121E-02    3.98       1.9  T
   3    -29.1481128  0.713014E-07  0.247E-03    3.98       9.3  T
   4    -29.1481129 -0.930904E-07  0.399E-04    3.98      57.4  T
   5    -29.1481129 -0.526672E-09  0.183E-04    3.98     125.2  T
     SCC iter.                  ...        0 min,  0.514 sec
     gradient                   ...        0 min,  0.153 sec
 * total energy  :   -28.6983004 Eh     change       -0.4557854E-05 Eh
   gradient norm :     0.0010055 Eh/α   predicted    -0.2384006E-05 ( -47.69%)
   displ. norm   :     0.0152409 α      lambda       -0.1046978E-04
   maximum displ.:     0.0139492 α      in ANC's #2, #3, #7, ...

........................................................................
.............................. CYCLE   12 ..............................
........................................................................
   1    -29.1480635 -0.291481E+02  0.742E-03    3.98       0.0  T
   2    -29.1480635 -0.466282E-08  0.432E-03    3.98       5.3  T
   3    -29.1480635  0.842229E-08  0.880E-04    3.98      26.1  T
   4    -29.1480635 -0.107066E-07  0.113E-04    3.98     202.8  T
     SCC iter.                  ...        0 min,  0.412 sec
     gradient                   ...        0 min,  0.145 sec
 * total energy  :   -28.6983013 Eh     change       -0.8807977E-06 Eh
   gradient norm :     0.0008089 Eh/α   predicted    -0.5096310E-06 ( -42.14%)
   displ. norm   :     0.0075714 α      lambda       -0.4612540E-05
   maximum displ.:     0.0065920 α      in ANC's #2, #3, #4, ...

   *** GEOMETRY OPTIMIZATION CONVERGED AFTER 12 ITERATIONS ***

------------------------------------------------------------------------
 total energy gain   :        -0.0101854 Eh       -6.3915 kcal/mol
 total RMSD          :         0.2109356 a0        0.1116 Å
 total power (kW/mol):        -2.2284882 (step)   -2.5144 (real)
------------------------------------------------------------------------

 ANCopt (total)                0 d,  0 h,  0 min, 10.635 sec
 optimizer setup                ...        0 min,  0.000 sec (  0.002%)
 model hessian                  ...        0 min,  0.003 sec (  0.028%)
 ANC generation                 ...        0 min,  0.001 sec (  0.006%)
 coordinate transformation      ...        0 min,  0.000 sec (  0.003%)
 single point calculation       ...        0 min, 10.452 sec ( 98.272%)
 optimization log               ...        0 min,  0.007 sec (  0.068%)
 hessian update                 ...        0 min,  0.138 sec (  1.293%)
 rational function              ...        0 min,  0.033 sec (  0.313%)

================
 final structure:
================
19
 xtb: 6.5.0 (97a52f5)
C            2.24642732861505        0.25478375558707        0.47054103558476
N            1.07755905308792       -0.26457339568322        0.91453857753977
C           -0.13188435869688       -0.10882500476894        0.19215651704219
C           -0.12958284116884       -0.14892712708524       -1.19873221821911
C            1.08952262012171       -1.05877430564855        2.12697391128026
C           -1.32625218567440        0.14774551476406        0.86069469316130
C           -2.49855307201184        0.32663440643019        0.15008157161138
C           -2.49540330134249        0.26974154608311       -1.23295869805213
C           -1.30619819915650        0.03748291145459       -1.90142523169212
H           -1.34764000603967        0.23150408330085        1.93718281247117
H            0.79100738906348       -0.32845320437347       -1.72807411319124
O            2.43431615540396        0.85919521772074       -0.55498450686939
H            1.74004864065323       -0.60397770635359        2.87372866461743
H            1.44854789426369       -2.07030628798179        1.91343088290420
H            0.08747456440302       -1.13896212705047        2.53742896386001
H           -3.41733769187197        0.52353710071027        0.68280589113734
H           -1.29026353660377       -0.00069843711070       -2.98031168924216
H           -3.41240585002201        0.41327510529991       -1.78417225828555
H            3.06429839697636        0.05838491470514        1.19168119434188

 Bond Distances (Angstroems)
 ---------------------------
C1-N2=1.3539         C1-O12=1.2051        C1-H19=1.1079        N2-C1=1.3539         N2-C3=1.4173         N2-C5=1.4494         
C3-N2=1.4173         C3-C4=1.3915         C3-C6=1.3926         C4-C3=1.3915         C4-C9=1.3831         C4-H11=1.0770        
C5-N2=1.4494         C5-H13=1.0898        C5-H14=1.0944        C5-H15=1.0858        C6-C3=1.3926         C6-C7=1.3825         
C6-H10=1.0800        C7-C6=1.3825         C7-C8=1.3842         C7-H16=1.0802        C8-C7=1.3842         C8-C9=1.3838         
C8-H18=1.0795        C9-C4=1.3831         C9-C8=1.3838         C9-H17=1.0797        H10-C6=1.0800        H11-C4=1.0770        
O12-C1=1.2051        H13-C5=1.0898        H14-C5=1.0944        H15-C5=1.0858        H16-C7=1.0802        H17-C9=1.0797        
H18-C8=1.0795        H19-C1=1.1079        
 C  H  Rav=1.0860 sigma=0.0094  Rmin=1.0770  Rmax=1.1079     9
 C  C  Rav=1.3863 sigma=0.0041  Rmin=1.3825  Rmax=1.3926     6
 N  C  Rav=1.4069 sigma=0.0397  Rmin=1.3539  Rmax=1.4494     3
 O  C  Rav=1.2051 sigma=0.0000  Rmin=1.2051  Rmax=1.2051     1

 selected bond angles (degree)
 --------------------
O12-C1-N2=127.30               H19-C1-N2=110.85               H19-C1-O12=121.85              C3-N2-C1=121.83                
C5-N2-C1=118.51                C5-N2-C3=119.58                C4-C3-N2=120.32                C6-C3-N2=120.49                
C6-C3-C4=119.12                C9-C4-C3=120.17                H11-C4-C3=119.84               H11-C4-C9=120.00               
H13-C5-N2=110.45               H14-C5-N2=110.24               H14-C5-H13=108.88              H15-C5-N2=110.43               
H15-C5-H13=108.82              H15-C5-H14=107.95              C7-C6-C3=120.29                H10-C6-C3=120.65               
H10-C6-C7=119.05               C8-C7-C6=120.42                H16-C7-C6=119.43               H16-C7-C8=120.15               
C9-C8-C7=119.44                H18-C8-C7=120.18               H18-C8-C9=120.37               C8-C9-C4=120.55                
H17-C9-C4=119.36               H17-C9-C8=120.09               

 selected dihedral angles (degree)
 ---------------------------------
C3-N2-C1-O12=358.04           C3-N2-C1-H19=177.87           C5-N2-C1-O12=174.77           C5-N2-C1-H19=354.60           
C4-C3-N2-C1= 37.16            C4-C3-N2-C5=220.47            C6-C3-N2-C1=220.15            C6-C3-N2-C5= 43.46            
C9-C4-C3-N2=181.65            C9-C4-C3-C6=358.71            H11-C4-C3-N2=  1.83           H11-C4-C3-C6=178.88           
H13-C5-N2-C1= 41.41           H13-C5-N2-C3=218.21           H14-C5-N2-C1=281.03           H14-C5-N2-C3= 97.84           
H15-C5-N2-C1=161.83           H15-C5-N2-C3=338.64           C7-C6-C3-N2=178.65            C7-C6-C3-C4=  1.60            
H10-C6-C3-N2=  0.00           H10-C6-C3-C4=182.95           C8-C7-C6-C3=359.18            C8-C7-C6-H10=177.84           
H16-C7-C6-C3=179.91           H16-C7-C6-H10=358.58          C9-C8-C7-C6=359.73            C9-C8-C7-H16=178.99           
H18-C8-C7-C6=180.21           H18-C8-C7-H16=359.46          C8-C9-C4-C3=  0.21            C8-C9-C4-H11=180.04           
H17-C9-C4-C3=180.28           H17-C9-C4-H11=  0.10          C4-C9-C8-C7=  0.58            C4-C9-C8-H18=180.10           
H17-C9-C8-C7=180.51           H17-C9-C8-H18=  0.04          
           -------------------------------------------------
          |                Final Singlepoint                |
           -------------------------------------------------

          ...................................................
          :                      SETUP                      :
          :.................................................:
          :  # basis functions                  49          :
          :  # atomic orbitals                  49          :
          :  # shells                           29          :
          :  # electrons                        52          :
          :  max. iterations                   250          :
          :  Hamiltonian                  GFN2-xTB          :
          :  restarted?                      false          :
          :  GBSA solvation                  false          :
          :  PC potential                    false          :
          :  electronic temp.          300.0000000     K    :
          :  accuracy                    1.0000000          :
          :  -> integral cutoff          0.2500000E+02      :
          :  -> integral neglect         0.1000000E-07      :
          :  -> SCF convergence          0.1000000E-05 Eh   :
          :  -> wf. convergence          0.1000000E-03 e    :
          :  Broyden damping             0.4000000          :
          ...................................................

 iter      E             dE          RMSdq      gap      omega  full diag
   1    -29.1480635 -0.291481E+02  0.593E-05    3.98       0.0  T
   2    -29.1480635 -0.986233E-11  0.343E-05    3.98     669.5  T
   3    -29.1480635 -0.305178E-11  0.199E-05    3.98    1153.1  T

   *** convergence criteria satisfied after 3 iterations ***

         #    Occupation            Energy/Eh            Energy/eV
      -------------------------------------------------------------
         1        2.0000           -0.7010138             -19.0756
       ...           ...                  ...                  ...
        20        2.0000           -0.4805223             -13.0757
        21        2.0000           -0.4416933             -12.0191
        22        2.0000           -0.4389860             -11.9454
        23        2.0000           -0.4252433             -11.5715
        24        2.0000           -0.4104423             -11.1687
        25        2.0000           -0.3966826             -10.7943
        26        2.0000           -0.3851682             -10.4810 (HOMO)
        27                         -0.2390185              -6.5040 (LUMO)
        28                         -0.2284972              -6.2177
        29                         -0.2025020              -5.5104
        30                         -0.0970939              -2.6421
        31                         -0.0097155              -0.2644
       ...                                ...                  ...
        49                          0.6706362              18.2489
      -------------------------------------------------------------
                  HL-Gap            0.1461497 Eh            3.9769 eV
             Fermi-level           -0.3120934 Eh           -8.4925 eV

 SCC (total)                   0 d,  0 h,  0 min,  0.484 sec
 SCC setup                      ...        0 min,  0.011 sec (  2.179%)
 Dispersion                     ...        0 min,  0.021 sec (  4.261%)
 classical contributions        ...        0 min,  0.010 sec (  2.138%)
 integral evaluation            ...        0 min,  0.031 sec (  6.490%)
 iterations                     ...        0 min,  0.271 sec ( 56.041%)
 molecular gradient             ...        0 min,  0.140 sec ( 28.832%)
 printout                       ...        0 min,  0.000 sec (  0.023%)

         :::::::::::::::::::::::::::::::::::::::::::::::::::::
         ::                     SUMMARY                     ::
         :::::::::::::::::::::::::::::::::::::::::::::::::::::
         :: total energy             -28.698301260059 Eh    ::
         :: gradient norm              0.000809087797 Eh/a0 ::
         :: HOMO-LUMO gap              3.976936521432 eV    ::
         ::.................................................::
         :: SCC energy               -29.148063537021 Eh    ::
         :: -> isotropic ES            0.033081479279 Eh    ::
         :: -> anisotropic ES          0.003342320909 Eh    ::
         :: -> anisotropic XC          0.013777368647 Eh    ::
         :: -> dispersion             -0.015948249457 Eh    ::
         :: repulsion energy           0.449701180527 Eh    ::
         :: add. restraining           0.000003656822 Eh    ::
         :: total charge               0.000000000000 e     ::
         :::::::::::::::::::::::::::::::::::::::::::::::::::::

           -------------------------------------------------
          |                Property Printout                |
           -------------------------------------------------

    * Orbital Energies and Occupations

         #    Occupation            Energy/Eh            Energy/eV
      -------------------------------------------------------------
         1        2.0000           -0.7010138             -19.0756
       ...           ...                  ...                  ...
        14        2.0000           -0.5124706             -13.9450
        15        2.0000           -0.5072837             -13.8039
        16        2.0000           -0.4993568             -13.5882
        17        2.0000           -0.4955713             -13.4852
        18        2.0000           -0.4864892             -13.2380
        19        2.0000           -0.4832900             -13.1510
        20        2.0000           -0.4805223             -13.0757
        21        2.0000           -0.4416933             -12.0191
        22        2.0000           -0.4389860             -11.9454
        23        2.0000           -0.4252433             -11.5715
        24        2.0000           -0.4104423             -11.1687
        25        2.0000           -0.3966826             -10.7943
        26        2.0000           -0.3851682             -10.4810 (HOMO)
        27                         -0.2390185              -6.5040 (LUMO)
        28                         -0.2284972              -6.2177
        29                         -0.2025020              -5.5104
        30                         -0.0970939              -2.6421
        31                         -0.0097155              -0.2644
        32                          0.0826449               2.2489
        33                          0.1035420               2.8175
        34                          0.1350446               3.6748
        35                          0.1468089               3.9949
        36                          0.1573475               4.2816
        37                          0.1770878               4.8188
       ...                                ...                  ...
        49                          0.6706362              18.2489
      -------------------------------------------------------------
                  HL-Gap            0.1461497 Eh            3.9769 eV
             Fermi-level           -0.3120934 Eh           -8.4925 eV

     #   Z          covCN         q      C6AA      α(0)
     1   6 C        2.714     0.248    22.841     7.823
     2   7 N        2.734    -0.080    22.806     7.093
     3   6 C        2.918     0.070    26.444     8.433
     4   6 C        2.923    -0.036    28.886     8.814
     5   6 C        3.701    -0.050    21.641     6.652
     6   6 C        2.922    -0.046    29.154     8.855
     7   6 C        2.920    -0.029    28.728     8.790
     8   6 C        2.919    -0.033    28.821     8.804
     9   6 C        2.921    -0.026    28.655     8.778
    10   1 H        0.926     0.033     2.542     2.493
    11   1 H        0.926     0.063     2.168     2.303
    12   8 O        0.857    -0.402    21.716     6.248
    13   1 H        0.925     0.057     2.240     2.340
    14   1 H        0.924     0.053     2.286     2.365
    15   1 H        0.925     0.068     2.108     2.270
    16   1 H        0.926     0.035     2.514     2.480
    17   1 H        0.926     0.040     2.444     2.445
    18   1 H        0.926     0.036     2.504     2.475
    19   1 H        0.922     0.001     3.038     2.726

 Mol. C6AA /au·bohr⁶  :       4193.259469
 Mol. C8AA /au·bohr⁸  :      98811.822033
 Mol. α(0) /au        :        102.184167


Wiberg/Mayer (AO) data.
largest (>0.10) Wiberg bond orders for each atom

 ---------------------------------------------------------------------------
     #   Z sym  total        # sym  WBO       # sym  WBO       # sym  WBO
 ---------------------------------------------------------------------------
     1   6 C    3.954 --    12 O    1.735     2 N    1.238    19 H    0.919
     2   7 N    3.534 --     1 C    1.238     3 C    1.022     5 C    0.995
                            12 O    0.195
     3   6 C    3.961 --     4 C    1.387     6 C    1.385     2 N    1.022
                             8 C    0.102
     4   6 C    3.989 --     9 C    1.446     3 C    1.387    11 H    0.966
                             7 C    0.109
     5   6 C    3.969 --     2 N    0.995    13 H    0.979    14 H    0.976
                            15 H    0.976
     6   6 C    3.991 --     7 C    1.450     3 C    1.385    10 H    0.964
                             9 C    0.109
     7   6 C    3.992 --     6 C    1.450     8 C    1.433    16 H    0.971
                             4 C    0.109
     8   6 C    3.992 --     9 C    1.438     7 C    1.433    18 H    0.971
                             3 C    0.102
     9   6 C    3.992 --     4 C    1.446     8 C    1.438    17 H    0.970
                             6 C    0.109
    10   1 H    0.999 --     6 C    0.964
    11   1 H    0.996 --     4 C    0.966
    12   8 O    2.042 --     1 C    1.735     2 N    0.195
    13   1 H    0.996 --     5 C    0.979
    14   1 H    0.997 --     5 C    0.976
    15   1 H    0.995 --     5 C    0.976
    16   1 H    0.998 --     7 C    0.971
    17   1 H    0.998 --     9 C    0.970
    18   1 H    0.999 --     8 C    0.971
    19   1 H    0.999 --     1 C    0.919
 ---------------------------------------------------------------------------

Topologies differ in total number of bonds
Writing topology from bond orders to xtbtopo.mol

molecular dipole:
                 x           y           z       tot (Debye)
 q only:       -0.798      -0.825       0.933
   full:       -0.746      -0.927       1.186       4.271
molecular quadrupole (traceless):
                xx          xy          yy          xz          yz          zz
 q only:       -4.168      -4.954      -1.392       5.714      -0.616       5.560
  q+dip:       -2.182      -6.950      -4.995       7.189       0.581       7.177
   full:       -3.711      -6.411      -2.210       7.157       0.479       5.922

           -------------------------------------------------
          |                Geometry Summary                 |
           -------------------------------------------------

      molecular mass/u    :      135.1634621
   center of mass at/Å    :       -0.0220927       0.0276502       0.0163734
  moments of inertia/u·Å² :        0.1990716E+03   0.4824435E+03   0.6342119E+03
rotational constants/cm⁻¹ :        0.8468125E-01   0.3494219E-01   0.2658044E-01

 * 18 selected distances

     #   Z          #   Z                                           value/Å
     1   6 C        2   7 N                                       1.3539273
     2   7 N        3   6 C                                       1.4173380
     3   6 C        4   6 C                                       1.3914688
     2   7 N        5   6 C                                       1.4494475 (max)
     3   6 C        6   6 C                                       1.3925827
     6   6 C        7   6 C                                       1.3824840
     7   6 C        8   6 C                                       1.3842137
     4   6 C        9   6 C                                       1.3830944
     8   6 C        9   6 C                                       1.3838355
     6   6 C       10   1 H                                       1.0799536
     4   6 C       11   1 H                                       1.0769954 (min)
     1   6 C       12   8 O                                       1.2051217
     5   6 C       13   1 H                                       1.0898013
     5   6 C       14   1 H                                       1.0943934
     5   6 C       15   1 H                                       1.0858195
     7   6 C       16   1 H                                       1.0801534
     9   6 C       17   1 H                                       1.0796796
     8   6 C       18   1 H                                       1.0795055

 * 4 distinct bonds (by element types)

   Z      Z             #   av. dist./Å        max./Å        min./Å
   1 H    6 C           8     1.0832877     1.0943934     1.0769954
   6 C    6 C           6     1.3862798     1.3925827     1.3824840
   6 C    7 N           3     1.4069043     1.4494475     1.3539273
   6 C    8 O           1     1.2051217     1.2051217     1.2051217


optimized geometry written to: xtbopt.xyz


           -------------------------------------------------
          | TOTAL ENERGY              -28.698301260059 Eh   |
          | GRADIENT NORM               0.000809087797 Eh/α |
          | HOMO-LUMO GAP               3.976936521432 eV   |
           -------------------------------------------------
########################################################################
[WARNING] Runtime exception occurred
-1- restart_readRestart: Number of electron missmatch in restart file.
########################################################################

------------------------------------------------------------------------
 * finished run on 2023/11/18 at 08:22:00.816     
------------------------------------------------------------------------
 total:
 * wall-time:     0 d,  0 h,  0 min, 12.541 sec
 *  cpu-time:     0 d,  0 h,  8 min,  9.600 sec
 * ratio c/w:    39.039 speedup
 SCF:
 * wall-time:     0 d,  0 h,  0 min,  1.251 sec
 *  cpu-time:     0 d,  0 h,  0 min, 47.650 sec
 * ratio c/w:    38.089 speedup
 ANC optimizer:
 * wall-time:     0 d,  0 h,  0 min, 11.140 sec
 *  cpu-time:     0 d,  0 h,  7 min, 16.274 sec
 * ratio c/w:    39.163 speedup

