      -----------------------------------------------------------      
     |                   =====================                   |     
     |                           x T B                           |     
     |                   =====================                   |     
     |                         S. Grimme                         |     
     |          Mulliken Center for Theoretical Chemistry        |     
     |                    University of Bonn                     |     
      -----------------------------------------------------------      

   * xtb version 6.5.0 (97a52f5) compiled by 'conda@d2599ee0d4f4' on 2022-05-15

   xtb is free software: you can redistribute it and/or modify it under
   the terms of the GNU Lesser General Public License as published by
   the Free Software Foundation, either version 3 of the License, or
   (at your option) any later version.
   
   xtb is distributed in the hope that it will be useful,
   but WITHOUT ANY WARRANTY; without even the implied warranty of
   MERCHANTABILITY or FITNESS FOR A PARTICULAR PURPOSE.  See the
   GNU Lesser General Public License for more details.
   
   Cite this work as:
   * C. Bannwarth, E. Caldeweyher, S. Ehlert, A. Hansen, P. Pracht,
     J. Seibert, S. Spicher, S. Grimme, WIREs Comput. Mol. Sci., 2020, 11,
     e01493. DOI: 10.1002/wcms.1493
   
   for GFN2-xTB:
   * C. Bannwarth, S. Ehlert and S. Grimme., J. Chem. Theory Comput., 2019,
     15, 1652-1671. DOI: 10.1021/acs.jctc.8b01176
   for GFN1-xTB:
   * S. Grimme, C. Bannwarth, P. Shushkov, J. Chem. Theory Comput., 2017,
     13, 1989-2009. DOI: 10.1021/acs.jctc.7b00118
   for GFN0-xTB:
   * P. Pracht, E. Caldeweyher, S. Ehlert, S. Grimme, ChemRxiv, 2019, preprint.
     DOI: 10.26434/chemrxiv.8326202.v1
   for GFN-FF:
   * S. Spicher and S. Grimme, Angew. Chem. Int. Ed., 2020, 59, 15665-15673.
     DOI: 10.1002/anie.202004239
   
   for ALPB and GBSA implicit solvation:
   * S. Ehlert, M. Stahn, S. Spicher, S. Grimme, J. Chem. Theory Comput.,
     2021, 17, 4250-4261. DOI: 10.1021/acs.jctc.1c00471
   
   for DFT-D4:
   * E. Caldeweyher, C. Bannwarth and S. Grimme, J. Chem. Phys., 2017,
     147, 034112. DOI: 10.1063/1.4993215
   * E. Caldeweyher, S. Ehlert, A. Hansen, H. Neugebauer, S. Spicher,
     C. Bannwarth and S. Grimme, J. Chem. Phys., 2019, 150, 154122.
     DOI: 10.1063/1.5090222
   * E. Caldeweyher, J.-M. Mewes, S. Ehlert and S. Grimme, Phys. Chem. Chem. Phys.
     2020, 22, 8499-8512. DOI: 10.1039/D0CP00502A
   
   for sTDA-xTB:
   * S. Grimme and C. Bannwarth, J. Chem. Phys., 2016, 145, 054103.
     DOI: 10.1063/1.4959605
   
   in the mass-spec context:
   * V. Asgeirsson, C. Bauer and S. Grimme, Chem. Sci., 2017, 8, 4879.
     DOI: 10.1039/c7sc00601b
   * J. Koopman and S. Grimme, ACS Omega 2019, 4, 12, 15120-15133.
     DOI: 10.1021/acsomega.9b02011
   
   for metadynamics refer to:
   * S. Grimme, J. Chem. Theory Comput., 2019, 155, 2847-2862
     DOI: 10.1021/acs.jctc.9b00143
   
   for SPH calculations refer to:
   * S. Spicher and S. Grimme, J. Chem. Theory Comput., 2021, 17, 1701-1714
     DOI: 10.1021/acs.jctc.0c01306
   
   with help from (in alphabetical order)
   P. Atkinson, C. Bannwarth, F. Bohle, G. Brandenburg, E. Caldeweyher
   M. Checinski, S. Dohm, S. Ehlert, S. Ehrlich, I. Gerasimov, C. Hölzer
   A. Katbashev, J. Koopman, C. Lavigne, S. Lehtola, F. März, M. Müller,
   F. Musil, H. Neugebauer, J. Pisarek, C. Plett, P. Pracht, F. Pultar,
   J. Seibert, P. Shushkov, S. Spicher, M. Stahn, M. Steiner, T. Strunk,
   J. Stückrath, T. Rose, and J. Unsleber
   
 * started run on 2023/11/18 at 08:19:55.838     

           -------------------------------------------------
          |                Calculation Setup                |
           -------------------------------------------------

          program call               : /home/liuchw/anaconda3/envs/xtbenv/bin/xtb --gfn 2 --chrg 0 --uhf 0 3_24_Index_0-opt-2-3-337_preQMOPTprefit_xyzformat.xyz --opt --input xtb-opt-2-3-337_constr.txt
          hostname                   : node165.bme.utexas.edu
          coordinate file            : 3_24_Index_0-opt-2-3-337_preQMOPTprefit_xyzformat.xyz
          omp threads                :                    64

   ID    Z sym.   atoms
    1    6 C      1, 3-9
    2    7 N      2
    3    1 H      10, 11, 13-19
    4    8 O      12
constraining angle 1 2 3 4 to  336.8898894°, actual value:  -23.1101106°
constraining angle 1 2 5 14 to  221.0139781°, actual value: -138.9860219°
constraining angle 12 1 2 3 to  357.9888387°, actual value:   -2.0111613°

           -------------------------------------------------
          |                 G F N 2 - x T B                 |
           -------------------------------------------------

        Reference                      10.1021/acs.jctc.8b01176
      * Hamiltonian:
        H0-scaling (s, p, d)           1.850000    2.230000    2.230000
        zeta-weighting                 0.500000
      * Dispersion:
        s8                             2.700000
        a1                             0.520000
        a2                             5.000000
        s9                             5.000000
      * Repulsion:
        kExp                           1.500000    1.000000
        rExp                           1.000000
      * Coulomb:
        alpha                          2.000000
        third order                    shell-resolved
        anisotropic                    true
        a3                             3.000000
        a5                             4.000000
        cn-shift                       1.200000
        cn-exp                         4.000000
        max-rad                        5.000000

q/qsh data taken from xtbrestart
CAMM data taken from xtbrestart

          ...................................................
          :                      SETUP                      :
          :.................................................:
          :  # basis functions                  49          :
          :  # atomic orbitals                  49          :
          :  # shells                           29          :
          :  # electrons                        52          :
          :  max. iterations                   250          :
          :  Hamiltonian                  GFN2-xTB          :
          :  restarted?                       true          :
          :  GBSA solvation                  false          :
          :  PC potential                    false          :
          :  electronic temp.          300.0000000     K    :
          :  accuracy                    1.0000000          :
          :  -> integral cutoff          0.2500000E+02      :
          :  -> integral neglect         0.1000000E-07      :
          :  -> SCF convergence          0.1000000E-05 Eh   :
          :  -> wf. convergence          0.1000000E-03 e    :
          :  Broyden damping             0.4000000          :
          ...................................................

 iter      E             dE          RMSdq      gap      omega  full diag
   1    -29.0824267 -0.290824E+02  0.190E+00    3.75       0.0  T
   2    -29.0840999 -0.167322E-02  0.112E+00    3.70       1.0  T
   3    -29.0820193  0.208068E-02  0.421E-01    3.74       1.0  T
   4    -29.0845734 -0.255415E-02  0.809E-02    3.72       1.0  T
   5    -29.0846694 -0.960146E-04  0.213E-02    3.71       1.1  T
   6    -29.0846705 -0.110069E-05  0.104E-02    3.71       2.2  T
   7    -29.0846708 -0.238555E-06  0.413E-03    3.71       5.6  T
   8    -29.0846709 -0.926207E-07  0.136E-03    3.71      16.9  T
   9    -29.0846709 -0.360733E-08  0.613E-04    3.71      37.4  T
  10    -29.0846709 -0.249868E-08  0.275E-04    3.71      83.3  T

   *** convergence criteria satisfied after 10 iterations ***

         #    Occupation            Energy/Eh            Energy/eV
      -------------------------------------------------------------
         1        2.0000           -0.6953674             -18.9219
       ...           ...                  ...                  ...
        20        2.0000           -0.4782790             -13.0146
        21        2.0000           -0.4423064             -12.0358
        22        2.0000           -0.4367198             -11.8838
        23        2.0000           -0.4249895             -11.5646
        24        2.0000           -0.4066258             -11.0649
        25        2.0000           -0.3985746             -10.8458
        26        2.0000           -0.3846400             -10.4666 (HOMO)
        27                         -0.2482597              -6.7555 (LUMO)
        28                         -0.2319085              -6.3106
        29                         -0.2155895              -5.8665
        30                         -0.1091199              -2.9693
        31                         -0.0613337              -1.6690
       ...                                ...                  ...
        49                          0.6041498              16.4398
      -------------------------------------------------------------
                  HL-Gap            0.1363803 Eh            3.7111 eV
             Fermi-level           -0.3164499 Eh           -8.6110 eV

 SCC (total)                   0 d,  0 h,  0 min,  1.330 sec
 SCC setup                      ...        0 min,  0.016 sec (  1.207%)
 Dispersion                     ...        0 min,  0.019 sec (  1.420%)
 classical contributions        ...        0 min,  0.017 sec (  1.279%)
 integral evaluation            ...        0 min,  0.036 sec (  2.676%)
 iterations                     ...        0 min,  1.101 sec ( 82.756%)
 molecular gradient             ...        0 min,  0.141 sec ( 10.624%)
 printout                       ...        0 min,  0.000 sec (  0.017%)

         :::::::::::::::::::::::::::::::::::::::::::::::::::::
         ::                     SUMMARY                     ::
         :::::::::::::::::::::::::::::::::::::::::::::::::::::
         :: total energy             -28.686856550315 Eh    ::
         :: gradient norm              0.069902806619 Eh/a0 ::
         :: HOMO-LUMO gap              3.711096712245 eV    ::
         ::.................................................::
         :: SCC energy               -29.084670856968 Eh    ::
         :: -> isotropic ES            0.032852362827 Eh    ::
         :: -> anisotropic ES          0.003615739833 Eh    ::
         :: -> anisotropic XC          0.015448767309 Eh    ::
         :: -> dispersion             -0.015543593972 Eh    ::
         :: repulsion energy           0.397760981119 Eh    ::
         :: add. restraining           0.000000000000 Eh    ::
         :: total charge               0.000000000000 e     ::
         :::::::::::::::::::::::::::::::::::::::::::::::::::::

      ----------------------------------------------------------- 
     |                   =====================                   |
     |                        A N C O P T                        |
     |                   =====================                   |
     |               Approximate Normal Coordinate               |
     |                Rational Function Optimizer                |
      ----------------------------------------------------------- 

          ...................................................
          :                      SETUP                      :
          :.................................................:
          :   optimization level            normal          :
          :   max. optcycles                   200          :
          :   ANC micro-cycles                  20          :
          :   degrees of freedom                51          :
          :.................................................:
          :   RF solver                   davidson          :
          :   write xtbopt.log                true          :
          :   linear?                        false          :
          :   energy convergence         0.5000000E-05 Eh   :
          :   grad. convergence          0.1000000E-02 Eh/α :
          :   maximium RF displ.         1.0000000          :
          :   Hlow (freq-cutoff)         0.1000000E-01      :
          :   Hmax (freq-cutoff)         5.0000000          :
          :   S6 in model hess.         20.0000000          :
          ...................................................

generating ANC from model Hessian ...
Using Lindh-Hessian (1995)
 Shifting diagonal of input Hessian by    7.1214109527157014E-003
 Lowest  eigenvalues of input Hessian
    0.000000    0.000000    0.000000    0.000000    0.000000    0.000000
    0.010000    0.011032    0.012737    0.018220    0.019852    0.021772
    0.022917    0.028974    0.034371    0.042745    0.051466    0.065659
 Highest eigenvalues
    1.882191    1.919006    2.168137    2.574064    4.044397   21.826992


........................................................................
.............................. CYCLE    1 ..............................
........................................................................
   1    -29.0846709 -0.290847E+02  0.104E-04    3.71       0.0  T
   2    -29.0846709 -0.478657E-10  0.685E-05    3.71     335.1  T
   3    -29.0846709 -0.399965E-10  0.401E-05    3.71     572.0  T
     SCC iter.                  ...        0 min,  0.261 sec
     gradient                   ...        0 min,  0.131 sec
 * total energy  :   -28.6868566 Eh     change       -0.3802541E-09 Eh
   gradient norm :     0.0699015 Eh/α   predicted     0.0000000E+00 (-100.00%)
   displ. norm   :     0.3783438 α      lambda       -0.1470674E-01
   maximum displ.:     0.2401040 α      in ANC's #11, #4, #25, ...

........................................................................
.............................. CYCLE    2 ..............................
........................................................................
   1    -29.1305858 -0.291306E+02  0.320E-01    3.89       0.0  T
   2    -29.1308511 -0.265306E-03  0.216E-01    3.91       1.0  T
   3    -29.1308692 -0.181441E-04  0.110E-01    3.91       1.0  T
   4    -29.1309281 -0.588480E-04  0.277E-02    3.91       1.0  T
   5    -29.1309385 -0.104502E-04  0.667E-03    3.91       3.4  T
   6    -29.1309388 -0.281828E-06  0.300E-03    3.91       7.6  T
   7    -29.1309389 -0.380364E-07  0.140E-03    3.91      16.4  T
   8    -29.1309389 -0.208110E-08  0.439E-04    3.91      52.3  T
   9    -29.1309389 -0.100503E-08  0.150E-04    3.91     153.4  T
     SCC iter.                  ...        0 min,  0.915 sec
     gradient                   ...        0 min,  0.134 sec
 * total energy  :   -28.6963311 Eh     change       -0.9474523E-02 Eh
   gradient norm :     0.0221019 Eh/α   predicted    -0.8406683E-02 ( -11.27%)
   displ. norm   :     0.2612119 α      lambda       -0.2875153E-02
   maximum displ.:     0.1627886 α      in ANC's #11, #7, #2, ...

........................................................................
.............................. CYCLE    3 ..............................
........................................................................
   1    -29.1510624 -0.291511E+02  0.181E-01    3.94       0.0  T
   2    -29.1512201 -0.157689E-03  0.130E-01    3.96       1.0  T
   3    -29.1512455 -0.254354E-04  0.678E-02    3.96       1.0  T
   4    -29.1512461 -0.528101E-06  0.227E-02    3.96       1.0  T
   5    -29.1512534 -0.731975E-05  0.352E-03    3.96       6.5  T
   6    -29.1512534 -0.505992E-07  0.173E-03    3.96      13.2  T
   7    -29.1512535 -0.135893E-07  0.660E-04    3.96      34.7  T
   8    -29.1512535 -0.103094E-08  0.240E-04    3.96      95.5  T
     SCC iter.                  ...        0 min,  0.824 sec
     gradient                   ...        0 min,  0.141 sec
 * total energy  :   -28.6974450 Eh     change       -0.1113955E-02 Eh
   gradient norm :     0.0566940 Eh/α   predicted    -0.1535685E-02 (  37.86%)
   displ. norm   :     0.1181881 α      lambda       -0.8358830E-03
   maximum displ.:     0.0691635 α      in ANC's #2, #3, #4, ...

........................................................................
.............................. CYCLE    4 ..............................
........................................................................
   1    -29.1497560 -0.291498E+02  0.953E-02    3.94       0.0  T
   2    -29.1497639 -0.784589E-05  0.574E-02    3.94       1.0  T
   3    -29.1497619  0.196733E-05  0.186E-02    3.94       1.2  T
   4    -29.1497646 -0.269129E-05  0.503E-03    3.94       4.6  T
   5    -29.1497650 -0.406083E-06  0.139E-03    3.94      16.5  T
   6    -29.1497650 -0.214013E-08  0.521E-04    3.94      44.1  T
   7    -29.1497650 -0.648434E-09  0.199E-04    3.94     115.2  T
     SCC iter.                  ...        0 min,  0.672 sec
     gradient                   ...        0 min,  0.159 sec
 * total energy  :   -28.6972578 Eh     change        0.1871895E-03 Eh
   gradient norm :     0.1435313 Eh/α   predicted    -0.4237861E-03 (-326.39%)
   displ. norm   :     0.0749676 α      lambda       -0.1132409E-02
   maximum displ.:     0.0382501 α      in ANC's #2, #11, #3, ...

........................................................................
.............................. CYCLE    5 ..............................
........................................................................
   1    -29.1447231 -0.291447E+02  0.569E-02    3.92       0.0  T
   2    -29.1447257 -0.257611E-05  0.358E-02    3.92       1.0  T
   3    -29.1447238  0.188700E-05  0.131E-02    3.92       1.8  T
   4    -29.1447264 -0.260672E-05  0.266E-03    3.92       8.6  T
   5    -29.1447265 -0.897332E-07  0.104E-03    3.92      22.2  T
   6    -29.1447265 -0.396313E-08  0.409E-04    3.92      56.0  T
   7    -29.1447265 -0.717115E-09  0.162E-04    3.92     141.7  T
     SCC iter.                  ...        0 min,  0.825 sec
     gradient                   ...        0 min,  0.175 sec
 * total energy  :   -28.6976715 Eh     change       -0.4136827E-03 Eh
   gradient norm :     0.0239495 Eh/α   predicted    -0.5693924E-03 (  37.64%)
   displ. norm   :     0.1008564 α      lambda       -0.3006684E-03
   maximum displ.:     0.0563880 α      in ANC's #4, #3, #6, ...

........................................................................
.............................. CYCLE    6 ..............................
........................................................................
   1    -29.1472581 -0.291473E+02  0.103E-01    3.93       0.0  T
   2    -29.1472594 -0.128761E-05  0.612E-02    3.92       1.0  T
   3    -29.1472587  0.638469E-06  0.758E-03    3.93       3.0  T
   4    -29.1472597 -0.960445E-06  0.250E-03    3.93       9.2  T
   5    -29.1472597 -0.582861E-07  0.130E-03    3.93      17.7  T
   6    -29.1472597 -0.409883E-08  0.347E-04    3.93      66.2  T
   7    -29.1472597 -0.617128E-09  0.150E-04    3.93     152.5  T
     SCC iter.                  ...        0 min,  0.850 sec
     gradient                   ...        0 min,  0.198 sec
 * total energy  :   -28.6977635 Eh     change       -0.9199814E-04 Eh
   gradient norm :     0.0129731 Eh/α   predicted    -0.1518914E-03 (  65.10%)
   displ. norm   :     0.0528688 α      lambda       -0.7589500E-04
   maximum displ.:     0.0435412 α      in ANC's #2, #3, #6, ...

........................................................................
.............................. CYCLE    7 ..............................
........................................................................
   1    -29.1472014 -0.291472E+02  0.346E-02    3.92       0.0  T
   2    -29.1472022 -0.824277E-06  0.206E-02    3.92       1.1  T
   3    -29.1472018  0.442208E-06  0.737E-03    3.92       3.1  T
   4    -29.1472023 -0.586210E-06  0.162E-03    3.92      14.1  T
   5    -29.1472024 -0.355337E-07  0.485E-04    3.92      47.3  T
   6    -29.1472024 -0.356316E-09  0.202E-04    3.92     113.8  T
     SCC iter.                  ...        0 min,  0.697 sec
     gradient                   ...        0 min,  0.146 sec
 * total energy  :   -28.6978136 Eh     change       -0.5006805E-04 Eh
   gradient norm :     0.0024343 Eh/α   predicted    -0.3805523E-04 ( -23.99%)
   displ. norm   :     0.0551357 α      lambda       -0.2843576E-04
   maximum displ.:     0.0525416 α      in ANC's #2, #10, #6, ...

........................................................................
.............................. CYCLE    8 ..............................
........................................................................
   1    -29.1470120 -0.291470E+02  0.258E-02    3.92       0.0  T
   2    -29.1470122 -0.196170E-06  0.150E-02    3.92       1.5  T
   3    -29.1470120  0.152813E-06  0.407E-03    3.92       5.6  T
   4    -29.1470122 -0.196797E-06  0.758E-04    3.92      30.3  T
   5    -29.1470122 -0.507647E-08  0.294E-04    3.92      77.9  T
     SCC iter.                  ...        0 min,  0.534 sec
     gradient                   ...        0 min,  0.182 sec
 * total energy  :   -28.6978365 Eh     change       -0.2289176E-04 Eh
   gradient norm :     0.0031433 Eh/α   predicted    -0.1426171E-04 ( -37.70%)
   displ. norm   :     0.0488892 α      lambda       -0.1887886E-04
   maximum displ.:     0.0458362 α      in ANC's #2, #4, #10, ...

........................................................................
.............................. CYCLE    9 ..............................
........................................................................
   1    -29.1470468 -0.291470E+02  0.230E-02    3.92       0.0  T
   2    -29.1470468 -0.852620E-07  0.134E-02    3.92       1.7  T
   3    -29.1470468  0.831278E-07  0.286E-03    3.92       8.0  T
   4    -29.1470469 -0.109268E-06  0.490E-04    3.92      46.9  T
   5    -29.1470469 -0.103115E-08  0.227E-04    3.92     101.2  T
     SCC iter.                  ...        0 min,  0.529 sec
     gradient                   ...        0 min,  0.185 sec
 * total energy  :   -28.6978527 Eh     change       -0.1624024E-04 Eh
   gradient norm :     0.0016200 Eh/α   predicted    -0.9465292E-05 ( -41.72%)
   displ. norm   :     0.0638459 α      lambda       -0.1273174E-04
   maximum displ.:     0.0599050 α      in ANC's #2, #4, #3, ...

........................................................................
.............................. CYCLE   10 ..............................
........................................................................
   1    -29.1471564 -0.291472E+02  0.317E-02    3.91       0.0  T
   2    -29.1471565 -0.118089E-06  0.186E-02    3.91       1.2  T
   3    -29.1471564  0.132679E-06  0.347E-03    3.91       6.6  T
   4    -29.1471565 -0.175937E-06  0.613E-04    3.91      37.4  T
   5    -29.1471565 -0.968861E-09  0.289E-04    3.91      79.4  T
     SCC iter.                  ...        0 min,  0.565 sec
     gradient                   ...        0 min,  0.199 sec
 * total energy  :   -28.6978671 Eh     change       -0.1435338E-04 Eh
   gradient norm :     0.0003962 Eh/α   predicted    -0.6379596E-05 ( -55.55%)
   displ. norm   :     0.0341349 α      lambda       -0.3824004E-05
   maximum displ.:     0.0335754 α      in ANC's #2, #4, #7, ...

........................................................................
.............................. CYCLE   11 ..............................
........................................................................
   1    -29.1471771 -0.291472E+02  0.165E-02    3.91       0.0  T
   2    -29.1471772 -0.320665E-07  0.965E-03    3.91       2.4  T
   3    -29.1471771  0.367901E-07  0.179E-03    3.91      12.8  T
   4    -29.1471772 -0.477011E-07  0.306E-04    3.91      74.9  T
   5    -29.1471772 -0.428042E-09  0.147E-04    3.91     155.5  T
     SCC iter.                  ...        0 min,  0.570 sec
     gradient                   ...        0 min,  0.171 sec
 * total energy  :   -28.6978717 Eh     change       -0.4671130E-05 Eh
   gradient norm :     0.0002162 Eh/α   predicted    -0.1917019E-05 ( -58.96%)
   displ. norm   :     0.0206395 α      lambda       -0.1545828E-05
   maximum displ.:     0.0203588 α      in ANC's #2, #1, #10, ...

   *** GEOMETRY OPTIMIZATION CONVERGED AFTER 11 ITERATIONS ***

------------------------------------------------------------------------
 total energy gain   :        -0.0110152 Eh       -6.9121 kcal/mol
 total RMSD          :         0.1745932 a0        0.0924 Å
 total power (kW/mol):        -2.6291264 (step)   -2.8049 (real)
------------------------------------------------------------------------

 ANCopt (total)                0 d,  0 h,  0 min, 10.311 sec
 optimizer setup                ...        0 min,  0.000 sec (  0.002%)
 model hessian                  ...        0 min,  0.004 sec (  0.037%)
 ANC generation                 ...        0 min,  0.001 sec (  0.007%)
 coordinate transformation      ...        0 min,  0.000 sec (  0.004%)
 single point calculation       ...        0 min, 10.130 sec ( 98.247%)
 optimization log               ...        0 min,  0.007 sec (  0.069%)
 hessian update                 ...        0 min,  0.146 sec (  1.416%)
 rational function              ...        0 min,  0.021 sec (  0.202%)

================
 final structure:
================
19
 xtb: 6.5.0 (97a52f5)
C            2.29013174186115       -0.50993912538936        0.29093842080095
N            1.07813414565763       -0.40605158455736        0.88975294870469
C           -0.12089380989595       -0.17211713403078        0.16898281503391
C           -0.09315158288439        0.42697651289679       -1.08925956949219
C            1.03514606950685       -0.34850927988921        2.33704335722744
C           -1.35304615276335       -0.56415577562578        0.68999440735501
C           -2.51930001307336       -0.34909210342610       -0.02135295132778
C           -2.48481846378997        0.25561454977778       -1.26489911848866
C           -1.26458983885039        0.63862697836933       -1.79251930227170
H           -1.42522624643747       -1.05497519999176        1.64741021614263
H            0.84485811914093        0.73162542812751       -1.51955960204353
O            2.54483051801172       -0.46110935437685       -0.88590897689153
H            1.97087603251065       -0.72270911694970        2.74709476180996
H            0.21833241978760       -0.94491437204138        2.73596314621217
H            0.89254186160994        0.68457255069520        2.66906203860677
H           -3.46151681785294       -0.66315735886440        0.40346773746966
H           -1.21804640453799        1.11040197801855       -2.76262765954951
H           -3.39783390773439        0.42299392801099       -1.81583657871889
H            3.08725532973380       -0.67529653075338        1.04283991942062

 Bond Distances (Angstroems)
 ---------------------------
C1-N2=1.3558         C1-O12=1.2051        C1-H19=1.1082        N2-C1=1.3558         N2-C3=1.4184         N2-C5=1.4491         
C3-N2=1.4184         C3-C4=1.3939         C3-C6=1.3940         C4-C3=1.3939         C4-C9=1.3826         C4-H11=1.0760        
C5-N2=1.4491         C5-H13=1.0880        C5-H14=1.0872        C5-H15=1.0945        C6-C3=1.3940         C6-C7=1.3829         
C6-H10=1.0783        C7-C6=1.3829         C7-C8=1.3832         C7-H16=1.0802        C8-C7=1.3832         C8-C9=1.3835         
C8-H18=1.0794        C9-C4=1.3826         C9-C8=1.3835         C9-H17=1.0797        H10-C6=1.0783        H11-C4=1.0760        
O12-C1=1.2051        H13-C5=1.0880        H14-C5=1.0872        H15-C5=1.0945        H16-C7=1.0802        H17-C9=1.0797        
H18-C8=1.0794        H19-C1=1.1082        
 C  H  Rav=1.0857 sigma=0.0097  Rmin=1.0760  Rmax=1.1082     9
 C  C  Rav=1.3867 sigma=0.0051  Rmin=1.3826  Rmax=1.3940     6
 N  C  Rav=1.4078 sigma=0.0388  Rmin=1.3558  Rmax=1.4491     3
 O  C  Rav=1.2051 sigma=0.0000  Rmin=1.2051  Rmax=1.2051     1

 selected bond angles (degree)
 --------------------
O12-C1-N2=128.11               H19-C1-N2=110.78               H19-C1-O12=121.11              C3-N2-C1=122.95                
C5-N2-C1=118.08                C5-N2-C3=118.42                C4-C3-N2=120.85                C6-C3-N2=120.72                
C6-C3-C4=118.41                C9-C4-C3=120.54                H11-C4-C3=120.00               H11-C4-C9=119.46               
H13-C5-N2=109.71               H14-C5-N2=111.53               H14-C5-H13=108.61              H15-C5-N2=110.14               
H15-C5-H13=108.81              H15-C5-H14=107.98              C7-C6-C3=120.63                H10-C6-C3=121.27               
H10-C6-C7=118.10               C8-C7-C6=120.62                H16-C7-C6=119.21               H16-C7-C8=120.16               
C9-C8-C7=119.07                H18-C8-C7=120.37               H18-C8-C9=120.56               C8-C9-C4=120.73                
H17-C9-C4=119.17               H17-C9-C8=120.11               

 selected dihedral angles (degree)
 ---------------------------------
C3-N2-C1-O12=357.95           C3-N2-C1-H19=179.05           C5-N2-C1-O12=186.66           C5-N2-C1-H19=  7.76           
C4-C3-N2-C1=336.84            C4-C3-N2-C5=148.11            C6-C3-N2-C1=155.37            C6-C3-N2-C5=326.63            
C9-C4-C3-N2=179.29            C9-C4-C3-C6=  0.73            H11-C4-C3-N2=359.10           H11-C4-C3-C6=180.54           
H13-C5-N2-C1=341.44           H13-C5-N2-C3=169.75           H14-C5-N2-C1=221.06           H14-C5-N2-C3= 49.36           
H15-C5-N2-C1=101.19           H15-C5-N2-C3=289.49           C7-C6-C3-N2=180.76            C7-C6-C3-C4=359.32            
H10-C6-C3-N2=359.82           H10-C6-C3-C4=178.38           C8-C7-C6-C3=  0.19            C8-C7-C6-H10=181.09           
H16-C7-C6-C3=179.92           H16-C7-C6-H10=  0.83          C9-C8-C7-C6=  0.28            C9-C8-C7-H16=180.54           
H18-C8-C7-C6=180.10           H18-C8-C7-H16=  0.37          C8-C9-C4-C3=359.72            C8-C9-C4-H11=179.91           
H17-C9-C4-C3=179.60           H17-C9-C4-H11=359.79          C4-C9-C8-C7=359.77            C4-C9-C8-H18=179.94           
H17-C9-C8-C7=179.89           H17-C9-C8-H18=  0.06          
           -------------------------------------------------
          |                Final Singlepoint                |
           -------------------------------------------------

          ...................................................
          :                      SETUP                      :
          :.................................................:
          :  # basis functions                  49          :
          :  # atomic orbitals                  49          :
          :  # shells                           29          :
          :  # electrons                        52          :
          :  max. iterations                   250          :
          :  Hamiltonian                  GFN2-xTB          :
          :  restarted?                      false          :
          :  GBSA solvation                  false          :
          :  PC potential                    false          :
          :  electronic temp.          300.0000000     K    :
          :  accuracy                    1.0000000          :
          :  -> integral cutoff          0.2500000E+02      :
          :  -> integral neglect         0.1000000E-07      :
          :  -> SCF convergence          0.1000000E-05 Eh   :
          :  -> wf. convergence          0.1000000E-03 e    :
          :  Broyden damping             0.4000000          :
          ...................................................

 iter      E             dE          RMSdq      gap      omega  full diag
   1    -29.1471772 -0.291472E+02  0.491E-05    3.91       0.0  T
   2    -29.1471772 -0.119620E-10  0.287E-05    3.91     800.2  T
   3    -29.1471772 -0.420997E-11  0.165E-05    3.91    1386.8  T

   *** convergence criteria satisfied after 3 iterations ***

         #    Occupation            Energy/Eh            Energy/eV
      -------------------------------------------------------------
         1        2.0000           -0.7031740             -19.1343
       ...           ...                  ...                  ...
        20        2.0000           -0.4787885             -13.0285
        21        2.0000           -0.4423498             -12.0370
        22        2.0000           -0.4400360             -11.9740
        23        2.0000           -0.4262911             -11.6000
        24        2.0000           -0.4090556             -11.1310
        25        2.0000           -0.3961816             -10.7806
        26        2.0000           -0.3844398             -10.4611 (HOMO)
        27                         -0.2406723              -6.5490 (LUMO)
        28                         -0.2270207              -6.1775
        29                         -0.2000276              -5.4430
        30                         -0.0943081              -2.5663
        31                         -0.0102349              -0.2785
       ...                                ...                  ...
        49                          0.6704450              18.2437
      -------------------------------------------------------------
                  HL-Gap            0.1437675 Eh            3.9121 eV
             Fermi-level           -0.3125561 Eh           -8.5051 eV

 SCC (total)                   0 d,  0 h,  0 min,  0.594 sec
 SCC setup                      ...        0 min,  0.013 sec (  2.156%)
 Dispersion                     ...        0 min,  0.022 sec (  3.693%)
 classical contributions        ...        0 min,  0.011 sec (  1.917%)
 integral evaluation            ...        0 min,  0.042 sec (  7.008%)
 iterations                     ...        0 min,  0.316 sec ( 53.197%)
 molecular gradient             ...        0 min,  0.190 sec ( 31.970%)
 printout                       ...        0 min,  0.000 sec (  0.026%)

         :::::::::::::::::::::::::::::::::::::::::::::::::::::
         ::                     SUMMARY                     ::
         :::::::::::::::::::::::::::::::::::::::::::::::::::::
         :: total energy             -28.697871745123 Eh    ::
         :: gradient norm              0.000216352347 Eh/a0 ::
         :: HOMO-LUMO gap              3.912113206782 eV    ::
         ::.................................................::
         :: SCC energy               -29.147177177574 Eh    ::
         :: -> isotropic ES            0.032535925772 Eh    ::
         :: -> anisotropic ES          0.003360754415 Eh    ::
         :: -> anisotropic XC          0.013582111236 Eh    ::
         :: -> dispersion             -0.015916741246 Eh    ::
         :: repulsion energy           0.449250038891 Eh    ::
         :: add. restraining           0.000003959265 Eh    ::
         :: total charge               0.000000000000 e     ::
         :::::::::::::::::::::::::::::::::::::::::::::::::::::

           -------------------------------------------------
          |                Property Printout                |
           -------------------------------------------------

    * Orbital Energies and Occupations

         #    Occupation            Energy/Eh            Energy/eV
      -------------------------------------------------------------
         1        2.0000           -0.7031740             -19.1343
       ...           ...                  ...                  ...
        14        2.0000           -0.5151094             -14.0168
        15        2.0000           -0.5081757             -13.8282
        16        2.0000           -0.4991631             -13.5829
        17        2.0000           -0.4943317             -13.4515
        18        2.0000           -0.4849650             -13.1966
        19        2.0000           -0.4834190             -13.1545
        20        2.0000           -0.4787885             -13.0285
        21        2.0000           -0.4423498             -12.0370
        22        2.0000           -0.4400360             -11.9740
        23        2.0000           -0.4262911             -11.6000
        24        2.0000           -0.4090556             -11.1310
        25        2.0000           -0.3961816             -10.7806
        26        2.0000           -0.3844398             -10.4611 (HOMO)
        27                         -0.2406723              -6.5490 (LUMO)
        28                         -0.2270207              -6.1775
        29                         -0.2000276              -5.4430
        30                         -0.0943081              -2.5663
        31                         -0.0102349              -0.2785
        32                          0.0690045               1.8777
        33                          0.0960505               2.6137
        34                          0.1349630               3.6725
        35                          0.1513387               4.1181
        36                          0.1573984               4.2830
        37                          0.1697157               4.6182
       ...                                ...                  ...
        49                          0.6704450              18.2437
      -------------------------------------------------------------
                  HL-Gap            0.1437675 Eh            3.9121 eV
             Fermi-level           -0.3125561 Eh           -8.5051 eV

     #   Z          covCN         q      C6AA      α(0)
     1   6 C        2.713     0.248    22.843     7.823
     2   7 N        2.733    -0.076    22.715     7.079
     3   6 C        2.914     0.068    26.468     8.436
     4   6 C        2.923    -0.042    29.033     8.836
     5   6 C        3.703    -0.050    21.628     6.649
     6   6 C        2.923    -0.048    29.198     8.861
     7   6 C        2.921    -0.030    28.741     8.792
     8   6 C        2.918    -0.034    28.846     8.807
     9   6 C        2.921    -0.027    28.675     8.781
    10   1 H        0.926     0.032     2.553     2.499
    11   1 H        0.926     0.071     2.072     2.251
    12   8 O        0.857    -0.400    21.677     6.242
    13   1 H        0.925     0.059     2.211     2.326
    14   1 H        0.925     0.064     2.148     2.292
    15   1 H        0.924     0.054     2.269     2.356
    16   1 H        0.926     0.034     2.531     2.488
    17   1 H        0.926     0.039     2.457     2.451
    18   1 H        0.926     0.035     2.522     2.483
    19   1 H        0.922     0.001     3.041     2.727

 Mol. C6AA /au·bohr⁶  :       4192.666440
 Mol. C8AA /au·bohr⁸  :      98820.637027
 Mol. α(0) /au        :        102.179435


Wiberg/Mayer (AO) data.
largest (>0.10) Wiberg bond orders for each atom

 ---------------------------------------------------------------------------
     #   Z sym  total        # sym  WBO       # sym  WBO       # sym  WBO
 ---------------------------------------------------------------------------
     1   6 C    3.954 --    12 O    1.734     2 N    1.236    19 H    0.917
     2   7 N    3.543 --     1 C    1.236     3 C    1.031     5 C    0.998
                            12 O    0.190
     3   6 C    3.959 --     6 C    1.382     4 C    1.381     2 N    1.031
                             8 C    0.101
     4   6 C    3.988 --     9 C    1.450     3 C    1.381    11 H    0.961
                             7 C    0.109
     5   6 C    3.969 --     2 N    0.998    13 H    0.977    15 H    0.976
                            14 H    0.971
     6   6 C    3.991 --     7 C    1.450     3 C    1.382    10 H    0.962
                             9 C    0.108
     7   6 C    3.992 --     6 C    1.450     8 C    1.434    16 H    0.971
                             4 C    0.109
     8   6 C    3.993 --     9 C    1.435     7 C    1.434    18 H    0.971
                             3 C    0.101
     9   6 C    3.992 --     4 C    1.450     8 C    1.435    17 H    0.970
                             6 C    0.108
    10   1 H    0.999 --     6 C    0.962
    11   1 H    0.995 --     4 C    0.961
    12   8 O    2.047 --     1 C    1.734     2 N    0.190
    13   1 H    0.996 --     5 C    0.977
    14   1 H    0.996 --     5 C    0.971
    15   1 H    0.997 --     5 C    0.976
    16   1 H    0.998 --     7 C    0.971
    17   1 H    0.998 --     9 C    0.970
    18   1 H    0.998 --     8 C    0.971
    19   1 H    0.999 --     1 C    0.917
 ---------------------------------------------------------------------------

Topologies differ in total number of bonds
Writing topology from bond orders to xtbtopo.mol

molecular dipole:
                 x           y           z       tot (Debye)
 q only:       -0.788       0.142       1.187
   full:       -0.764       0.116       1.464       4.208
molecular quadrupole (traceless):
                xx          xy          yy          xz          yz          zz
 q only:       -4.858       1.157      -0.163       7.305      -2.847       5.022
  q+dip:       -2.872       1.754      -2.016       9.338      -5.305       4.888
   full:       -4.508       1.471       0.136       9.257      -3.692       4.372

           -------------------------------------------------
          |                Geometry Summary                 |
           -------------------------------------------------

      molecular mass/u    :      135.1634621
   center of mass at/Å    :       -0.0064095      -0.1602729      -0.0347949
  moments of inertia/u·Å² :        0.1974003E+03   0.4792208E+03   0.6515487E+03
rotational constants/cm⁻¹ :        0.8539821E-01   0.3517717E-01   0.2587317E-01

 * 18 selected distances

     #   Z          #   Z                                           value/Å
     1   6 C        2   7 N                                       1.3558429
     2   7 N        3   6 C                                       1.4184158
     3   6 C        4   6 C                                       1.3938641
     2   7 N        5   6 C                                       1.4490718 (max)
     3   6 C        6   6 C                                       1.3940399
     6   6 C        7   6 C                                       1.3829013
     7   6 C        8   6 C                                       1.3832088
     4   6 C        9   6 C                                       1.3826200
     8   6 C        9   6 C                                       1.3834883
     6   6 C       10   1 H                                       1.0783130
     4   6 C       11   1 H                                       1.0760258 (min)
     1   6 C       12   8 O                                       1.2050833
     5   6 C       13   1 H                                       1.0880066
     5   6 C       14   1 H                                       1.0872078
     5   6 C       15   1 H                                       1.0944545
     7   6 C       16   1 H                                       1.0802233
     9   6 C       17   1 H                                       1.0797446
     8   6 C       18   1 H                                       1.0794190

 * 4 distinct bonds (by element types)

   Z      Z             #   av. dist./Å        max./Å        min./Å
   1 H    6 C           8     1.0829243     1.0944545     1.0760258
   6 C    6 C           6     1.3866870     1.3940399     1.3826200
   6 C    7 N           3     1.4077768     1.4490718     1.3558429
   6 C    8 O           1     1.2050833     1.2050833     1.2050833


optimized geometry written to: xtbopt.xyz


           -------------------------------------------------
          | TOTAL ENERGY              -28.697871745123 Eh   |
          | GRADIENT NORM               0.000216352347 Eh/α |
          | HOMO-LUMO GAP               3.912113206782 eV   |
           -------------------------------------------------
########################################################################
[WARNING] Runtime exception occurred
-1- restart_readRestart: Number of electron missmatch in restart file.
########################################################################

------------------------------------------------------------------------
 * finished run on 2023/11/18 at 08:20:08.280     
------------------------------------------------------------------------
 total:
 * wall-time:     0 d,  0 h,  0 min, 12.442 sec
 *  cpu-time:     0 d,  0 h,  7 min, 47.286 sec
 * ratio c/w:    37.556 speedup
 SCF:
 * wall-time:     0 d,  0 h,  0 min,  1.331 sec
 *  cpu-time:     0 d,  0 h,  0 min, 52.875 sec
 * ratio c/w:    39.740 speedup
 ANC optimizer:
 * wall-time:     0 d,  0 h,  0 min, 10.931 sec
 *  cpu-time:     0 d,  0 h,  6 min, 48.469 sec
 * ratio c/w:    37.369 speedup

