      -----------------------------------------------------------      
     |                   =====================                   |     
     |                           x T B                           |     
     |                   =====================                   |     
     |                         S. Grimme                         |     
     |          Mulliken Center for Theoretical Chemistry        |     
     |                    University of Bonn                     |     
      -----------------------------------------------------------      

   * xtb version 6.5.0 (97a52f5) compiled by 'conda@d2599ee0d4f4' on 2022-05-15

   xtb is free software: you can redistribute it and/or modify it under
   the terms of the GNU Lesser General Public License as published by
   the Free Software Foundation, either version 3 of the License, or
   (at your option) any later version.
   
   xtb is distributed in the hope that it will be useful,
   but WITHOUT ANY WARRANTY; without even the implied warranty of
   MERCHANTABILITY or FITNESS FOR A PARTICULAR PURPOSE.  See the
   GNU Lesser General Public License for more details.
   
   Cite this work as:
   * C. Bannwarth, E. Caldeweyher, S. Ehlert, A. Hansen, P. Pracht,
     J. Seibert, S. Spicher, S. Grimme, WIREs Comput. Mol. Sci., 2020, 11,
     e01493. DOI: 10.1002/wcms.1493
   
   for GFN2-xTB:
   * C. Bannwarth, S. Ehlert and S. Grimme., J. Chem. Theory Comput., 2019,
     15, 1652-1671. DOI: 10.1021/acs.jctc.8b01176
   for GFN1-xTB:
   * S. Grimme, C. Bannwarth, P. Shushkov, J. Chem. Theory Comput., 2017,
     13, 1989-2009. DOI: 10.1021/acs.jctc.7b00118
   for GFN0-xTB:
   * P. Pracht, E. Caldeweyher, S. Ehlert, S. Grimme, ChemRxiv, 2019, preprint.
     DOI: 10.26434/chemrxiv.8326202.v1
   for GFN-FF:
   * S. Spicher and S. Grimme, Angew. Chem. Int. Ed., 2020, 59, 15665-15673.
     DOI: 10.1002/anie.202004239
   
   for ALPB and GBSA implicit solvation:
   * S. Ehlert, M. Stahn, S. Spicher, S. Grimme, J. Chem. Theory Comput.,
     2021, 17, 4250-4261. DOI: 10.1021/acs.jctc.1c00471
   
   for DFT-D4:
   * E. Caldeweyher, C. Bannwarth and S. Grimme, J. Chem. Phys., 2017,
     147, 034112. DOI: 10.1063/1.4993215
   * E. Caldeweyher, S. Ehlert, A. Hansen, H. Neugebauer, S. Spicher,
     C. Bannwarth and S. Grimme, J. Chem. Phys., 2019, 150, 154122.
     DOI: 10.1063/1.5090222
   * E. Caldeweyher, J.-M. Mewes, S. Ehlert and S. Grimme, Phys. Chem. Chem. Phys.
     2020, 22, 8499-8512. DOI: 10.1039/D0CP00502A
   
   for sTDA-xTB:
   * S. Grimme and C. Bannwarth, J. Chem. Phys., 2016, 145, 054103.
     DOI: 10.1063/1.4959605
   
   in the mass-spec context:
   * V. Asgeirsson, C. Bauer and S. Grimme, Chem. Sci., 2017, 8, 4879.
     DOI: 10.1039/c7sc00601b
   * J. Koopman and S. Grimme, ACS Omega 2019, 4, 12, 15120-15133.
     DOI: 10.1021/acsomega.9b02011
   
   for metadynamics refer to:
   * S. Grimme, J. Chem. Theory Comput., 2019, 155, 2847-2862
     DOI: 10.1021/acs.jctc.9b00143
   
   for SPH calculations refer to:
   * S. Spicher and S. Grimme, J. Chem. Theory Comput., 2021, 17, 1701-1714
     DOI: 10.1021/acs.jctc.0c01306
   
   with help from (in alphabetical order)
   P. Atkinson, C. Bannwarth, F. Bohle, G. Brandenburg, E. Caldeweyher
   M. Checinski, S. Dohm, S. Ehlert, S. Ehrlich, I. Gerasimov, C. Hölzer
   A. Katbashev, J. Koopman, C. Lavigne, S. Lehtola, F. März, M. Müller,
   F. Musil, H. Neugebauer, J. Pisarek, C. Plett, P. Pracht, F. Pultar,
   J. Seibert, P. Shushkov, S. Spicher, M. Stahn, M. Steiner, T. Strunk,
   J. Stückrath, T. Rose, and J. Unsleber
   
 * started run on 2023/11/18 at 08:17:42.835     

           -------------------------------------------------
          |                Calculation Setup                |
           -------------------------------------------------

          program call               : /home/liuchw/anaconda3/envs/xtbenv/bin/xtb --gfn 2 --chrg 0 --uhf 0 3_24_Index_0-opt-2-3-037_preQMOPTprefit_xyzformat.xyz --opt --input xtb-opt-2-3-037_constr.txt
          hostname                   : node165.bme.utexas.edu
          coordinate file            : 3_24_Index_0-opt-2-3-037_preQMOPTprefit_xyzformat.xyz
          omp threads                :                    64

   ID    Z sym.   atoms
    1    6 C      1, 3-9
    2    7 N      2
    3    1 H      10, 11, 13-19
    4    8 O      12
constraining angle 1 2 3 4 to   37.0794230°, actual value:   37.0794230°
constraining angle 1 2 5 14 to  220.9872362°, actual value: -139.0127638°
constraining angle 12 1 2 3 to  357.9977145°, actual value:   -2.0022855°

           -------------------------------------------------
          |                 G F N 2 - x T B                 |
           -------------------------------------------------

        Reference                      10.1021/acs.jctc.8b01176
      * Hamiltonian:
        H0-scaling (s, p, d)           1.850000    2.230000    2.230000
        zeta-weighting                 0.500000
      * Dispersion:
        s8                             2.700000
        a1                             0.520000
        a2                             5.000000
        s9                             5.000000
      * Repulsion:
        kExp                           1.500000    1.000000
        rExp                           1.000000
      * Coulomb:
        alpha                          2.000000
        third order                    shell-resolved
        anisotropic                    true
        a3                             3.000000
        a5                             4.000000
        cn-shift                       1.200000
        cn-exp                         4.000000
        max-rad                        5.000000


          ...................................................
          :                      SETUP                      :
          :.................................................:
          :  # basis functions                  49          :
          :  # atomic orbitals                  49          :
          :  # shells                           29          :
          :  # electrons                        52          :
          :  max. iterations                   250          :
          :  Hamiltonian                  GFN2-xTB          :
          :  restarted?                      false          :
          :  GBSA solvation                  false          :
          :  PC potential                    false          :
          :  electronic temp.          300.0000000     K    :
          :  accuracy                    1.0000000          :
          :  -> integral cutoff          0.2500000E+02      :
          :  -> integral neglect         0.1000000E-07      :
          :  -> SCF convergence          0.1000000E-05 Eh   :
          :  -> wf. convergence          0.1000000E-03 e    :
          :  Broyden damping             0.4000000          :
          ...................................................

 iter      E             dE          RMSdq      gap      omega  full diag
   1    -29.0309535 -0.290310E+02  0.481E+00    3.57       0.0  T
   2    -29.0831352 -0.521818E-01  0.277E+00    3.85       1.0  T
   3    -29.0831052  0.300610E-04  0.139E+00    3.79       1.0  T
   4    -29.0884514 -0.534623E-02  0.326E-01    3.77       1.0  T
   5    -29.0897112 -0.125976E-02  0.972E-02    3.80       1.0  T
   6    -29.0897810 -0.698409E-04  0.450E-02    3.81       1.0  T
   7    -29.0897895 -0.851701E-05  0.209E-02    3.80       1.1  T
   8    -29.0897901 -0.562983E-06  0.598E-03    3.81       3.8  T
   9    -29.0897903 -0.225838E-06  0.305E-03    3.81       7.5  T
  10    -29.0897904 -0.117755E-06  0.115E-03    3.81      20.0  T
  11    -29.0897904 -0.516178E-08  0.464E-04    3.81      49.5  T
  12    -29.0897904 -0.632173E-09  0.159E-04    3.81     144.4  T

   *** convergence criteria satisfied after 12 iterations ***

         #    Occupation            Energy/Eh            Energy/eV
      -------------------------------------------------------------
         1        2.0000           -0.6940684             -18.8866
       ...           ...                  ...                  ...
        20        2.0000           -0.4777773             -13.0010
        21        2.0000           -0.4417623             -12.0210
        22        2.0000           -0.4365541             -11.8792
        23        2.0000           -0.4220479             -11.4845
        24        2.0000           -0.4075230             -11.0893
        25        2.0000           -0.3987674             -10.8510
        26        2.0000           -0.3859554             -10.5024 (HOMO)
        27                         -0.2461012              -6.6968 (LUMO)
        28                         -0.2325521              -6.3281
        29                         -0.2161865              -5.8827
        30                         -0.1100457              -2.9945
        31                         -0.0541543              -1.4736
       ...                                ...                  ...
        49                          0.6052675              16.4702
      -------------------------------------------------------------
                  HL-Gap            0.1398542 Eh            3.8056 eV
             Fermi-level           -0.3160283 Eh           -8.5996 eV

 SCC (total)                   0 d,  0 h,  0 min,  1.747 sec
 SCC setup                      ...        0 min,  0.019 sec (  1.062%)
 Dispersion                     ...        0 min,  0.055 sec (  3.124%)
 classical contributions        ...        0 min,  0.024 sec (  1.384%)
 integral evaluation            ...        0 min,  0.066 sec (  3.794%)
 iterations                     ...        0 min,  1.414 sec ( 80.928%)
 molecular gradient             ...        0 min,  0.169 sec (  9.676%)
 printout                       ...        0 min,  0.000 sec (  0.012%)

         :::::::::::::::::::::::::::::::::::::::::::::::::::::
         ::                     SUMMARY                     ::
         :::::::::::::::::::::::::::::::::::::::::::::::::::::
         :: total energy             -28.689838253824 Eh    ::
         :: gradient norm              0.068121850214 Eh/a0 ::
         :: HOMO-LUMO gap              3.805627233031 eV    ::
         ::.................................................::
         :: SCC energy               -29.089790445840 Eh    ::
         :: -> isotropic ES            0.033299526320 Eh    ::
         :: -> anisotropic ES          0.003613540943 Eh    ::
         :: -> anisotropic XC          0.015507337476 Eh    ::
         :: -> dispersion             -0.015599898338 Eh    ::
         :: repulsion energy           0.399893630267 Eh    ::
         :: add. restraining           0.000000000000 Eh    ::
         :: total charge               0.000000000000 e     ::
         :::::::::::::::::::::::::::::::::::::::::::::::::::::

      ----------------------------------------------------------- 
     |                   =====================                   |
     |                        A N C O P T                        |
     |                   =====================                   |
     |               Approximate Normal Coordinate               |
     |                Rational Function Optimizer                |
      ----------------------------------------------------------- 

          ...................................................
          :                      SETUP                      :
          :.................................................:
          :   optimization level            normal          :
          :   max. optcycles                   200          :
          :   ANC micro-cycles                  20          :
          :   degrees of freedom                51          :
          :.................................................:
          :   RF solver                   davidson          :
          :   write xtbopt.log                true          :
          :   linear?                        false          :
          :   energy convergence         0.5000000E-05 Eh   :
          :   grad. convergence          0.1000000E-02 Eh/α :
          :   maximium RF displ.         1.0000000          :
          :   Hlow (freq-cutoff)         0.1000000E-01      :
          :   Hmax (freq-cutoff)         5.0000000          :
          :   S6 in model hess.         20.0000000          :
          ...................................................

generating ANC from model Hessian ...
Using Lindh-Hessian (1995)
 Shifting diagonal of input Hessian by    7.1850630366130392E-003
 Lowest  eigenvalues of input Hessian
    0.000000    0.000000    0.000000    0.000000    0.000000    0.000000
    0.010000    0.011326    0.013649    0.018960    0.020140    0.022167
    0.023734    0.029117    0.034765    0.043498    0.053560    0.065222
 Highest eigenvalues
    1.876520    1.922061    2.200981    2.733863    3.912997   21.410714


........................................................................
.............................. CYCLE    1 ..............................
........................................................................
   1    -29.0897904 -0.290898E+02  0.573E-05    3.81       0.0  T
   2    -29.0897904 -0.301270E-11  0.335E-05    3.81     684.4  T
   3    -29.0897904  0.231637E-11  0.192E-05    3.81    1193.7  T
     SCC iter.                  ...        0 min,  0.390 sec
     gradient                   ...        0 min,  0.176 sec
 * total energy  :   -28.6898383 Eh     change       -0.3051923E-09 Eh
   gradient norm :     0.0681218 Eh/α   predicted     0.0000000E+00 (-100.00%)
   displ. norm   :     0.3476362 α      lambda       -0.1322470E-01
   maximum displ.:     0.2271738 α      in ANC's #11, #7, #25, ...

........................................................................
.............................. CYCLE    2 ..............................
........................................................................
   1    -29.1345633 -0.291346E+02  0.292E-01    3.97       0.0  T
   2    -29.1347718 -0.208557E-03  0.196E-01    3.99       1.0  T
   3    -29.1347802 -0.838468E-05  0.991E-02    3.99       1.0  T
   4    -29.1348326 -0.524092E-04  0.240E-02    3.99       1.0  T
   5    -29.1348403 -0.770183E-05  0.590E-03    3.99       3.9  T
   6    -29.1348406 -0.228029E-06  0.257E-03    3.99       8.9  T
   7    -29.1348406 -0.264060E-07  0.125E-03    3.99      18.3  T
   8    -29.1348406 -0.162030E-08  0.384E-04    3.99      59.7  T
   9    -29.1348406 -0.857259E-09  0.129E-04    3.99     177.8  T
     SCC iter.                  ...        0 min,  1.055 sec
     gradient                   ...        0 min,  0.164 sec
 * total energy  :   -28.6983305 Eh     change       -0.8492252E-02 Eh
   gradient norm :     0.0248756 Eh/α   predicted    -0.7412706E-02 ( -12.71%)
   displ. norm   :     0.2820923 α      lambda       -0.2782262E-02
   maximum displ.:     0.1569916 α      in ANC's #11, #2, #6, ...

........................................................................
.............................. CYCLE    3 ..............................
........................................................................
   1    -29.1540060 -0.291540E+02  0.185E-01    4.03       0.0  T
   2    -29.1541420 -0.136004E-03  0.126E-01    4.05       1.0  T
   3    -29.1541589 -0.169591E-04  0.634E-02    4.05       1.0  T
   4    -29.1541648 -0.584814E-05  0.203E-02    4.05       1.1  T
   5    -29.1541707 -0.591759E-05  0.331E-03    4.05       6.9  T
   6    -29.1541707 -0.399742E-07  0.165E-03    4.05      13.9  T
   7    -29.1541707 -0.111887E-07  0.668E-04    4.05      34.3  T
   8    -29.1541707 -0.920885E-09  0.232E-04    4.05      98.7  T
     SCC iter.                  ...        0 min,  1.044 sec
     gradient                   ...        0 min,  0.202 sec
 * total energy  :   -28.6994413 Eh     change       -0.1110758E-02 Eh
   gradient norm :     0.0887612 Eh/α   predicted    -0.1501889E-02 (  35.21%)
   displ. norm   :     0.1905236 α      lambda       -0.1484708E-02
   maximum displ.:     0.1551177 α      in ANC's #2, #11, #7, ...

........................................................................
.............................. CYCLE    4 ..............................
........................................................................
   1    -29.1567161 -0.291567E+02  0.949E-02    4.03       0.0  T
   2    -29.1567436 -0.274955E-04  0.622E-02    4.04       1.0  T
   3    -29.1567447 -0.106244E-05  0.293E-02    4.04       1.0  T
   4    -29.1567471 -0.244952E-05  0.906E-03    4.04       2.5  T
   5    -29.1567484 -0.125117E-05  0.141E-03    4.04      16.3  T
   6    -29.1567484 -0.436006E-08  0.653E-04    4.04      35.1  T
   7    -29.1567484 -0.148764E-08  0.256E-04    4.04      89.5  T
     SCC iter.                  ...        0 min,  0.930 sec
     gradient                   ...        0 min,  0.210 sec
 * total energy  :   -28.6990131 Eh     change        0.4281282E-03 Eh
   gradient norm :     0.1919507 Eh/α   predicted    -0.7693115E-03 (-279.69%)
   displ. norm   :     0.0978385 α      lambda       -0.2027303E-02
   maximum displ.:     0.0487804 α      in ANC's #2, #11, #3, ...

........................................................................
.............................. CYCLE    5 ..............................
........................................................................
   1    -29.1494047 -0.291494E+02  0.735E-02    4.01       0.0  T
   2    -29.1494142 -0.940624E-05  0.469E-02    4.01       1.0  T
   3    -29.1494129  0.129268E-05  0.205E-02    4.01       1.1  T
   4    -29.1494161 -0.323865E-05  0.507E-03    4.01       4.5  T
   5    -29.1494165 -0.396289E-06  0.136E-03    4.01      16.9  T
   6    -29.1494165 -0.541437E-08  0.637E-04    4.01      36.0  T
   7    -29.1494165 -0.169357E-08  0.227E-04    4.01     101.0  T
     SCC iter.                  ...        0 min,  0.781 sec
     gradient                   ...        0 min,  0.229 sec
 * total energy  :   -28.7000346 Eh     change       -0.1021470E-02 Eh
   gradient norm :     0.0070908 Eh/α   predicted    -0.1023357E-02 (   0.18%)
   displ. norm   :     0.1206977 α      lambda       -0.2520159E-03
   maximum displ.:     0.0961257 α      in ANC's #2, #4, #7, ...

........................................................................
.............................. CYCLE    6 ..............................
........................................................................
   1    -29.1498516 -0.291499E+02  0.904E-02    4.01       0.0  T
   2    -29.1498524 -0.827684E-06  0.539E-02    4.00       1.0  T
   3    -29.1498515  0.880646E-06  0.721E-03    4.00       3.2  T
   4    -29.1498527 -0.115710E-05  0.200E-03    4.00      11.5  T
   5    -29.1498527 -0.326645E-07  0.105E-03    4.00      21.8  T
   6    -29.1498527 -0.158601E-08  0.216E-04    4.00     106.3  T
   7    -29.1498527 -0.141206E-09  0.115E-04    4.00     199.5  T
     SCC iter.                  ...        0 min,  0.873 sec
     gradient                   ...        0 min,  0.223 sec
 * total energy  :   -28.7001868 Eh     change       -0.1521764E-03 Eh
   gradient norm :     0.0100645 Eh/α   predicted    -0.1278491E-03 ( -15.99%)
   displ. norm   :     0.1135621 α      lambda       -0.1230654E-03
   maximum displ.:     0.1034609 α      in ANC's #2, #4, #1, ...

........................................................................
.............................. CYCLE    7 ..............................
........................................................................
   1    -29.1498954 -0.291499E+02  0.479E-02    4.00       0.0  T
   2    -29.1498960 -0.571131E-06  0.279E-02    4.00       1.0  T
   3    -29.1498957  0.325743E-06  0.620E-03    4.00       3.7  T
   4    -29.1498961 -0.458835E-06  0.129E-03    4.00      17.8  T
   5    -29.1498961 -0.793410E-08  0.511E-04    4.00      44.9  T
   6    -29.1498961 -0.507701E-09  0.201E-04    4.00     114.2  T
     SCC iter.                  ...        0 min,  0.803 sec
     gradient                   ...        0 min,  0.202 sec
 * total energy  :   -28.7002909 Eh     change       -0.1040797E-03 Eh
   gradient norm :     0.0056896 Eh/α   predicted    -0.6232787E-04 ( -40.12%)
   displ. norm   :     0.1211840 α      lambda       -0.1038897E-03
   maximum displ.:     0.1110994 α      in ANC's #2, #4, #1, ...

........................................................................
.............................. CYCLE    8 ..............................
........................................................................
   1    -29.1502184 -0.291502E+02  0.516E-02    3.99       0.0  T
   2    -29.1502191 -0.720916E-06  0.301E-02    3.99       1.0  T
   3    -29.1502186  0.482222E-06  0.708E-03    3.99       3.2  T
   4    -29.1502193 -0.648948E-06  0.140E-03    3.99      16.4  T
   5    -29.1502193 -0.106360E-07  0.536E-04    3.99      42.8  T
   6    -29.1502193 -0.291038E-09  0.221E-04    3.99     103.8  T
     SCC iter.                  ...        0 min,  0.735 sec
     gradient                   ...        0 min,  0.215 sec
 * total energy  :   -28.7003716 Eh     change       -0.8074570E-04 Eh
   gradient norm :     0.0021589 Eh/α   predicted    -0.5270866E-04 ( -34.72%)
   displ. norm   :     0.0942992 α      lambda       -0.4834776E-04
   maximum displ.:     0.0883034 α      in ANC's #2, #4, #10, ...

........................................................................
.............................. CYCLE    9 ..............................
........................................................................
   1    -29.1503263 -0.291503E+02  0.417E-02    3.98       0.0  T
   2    -29.1503267 -0.408462E-06  0.243E-02    3.98       1.0  T
   3    -29.1503263  0.387680E-06  0.598E-03    3.98       3.8  T
   4    -29.1503268 -0.503062E-06  0.100E-03    3.98      22.9  T
   5    -29.1503268 -0.482747E-08  0.400E-04    3.98      57.4  T
   6    -29.1503268 -0.215373E-09  0.174E-04    3.98     131.9  T
     SCC iter.                  ...        0 min,  0.728 sec
     gradient                   ...        0 min,  0.240 sec
 * total energy  :   -28.7004091 Eh     change       -0.3751623E-04 Eh
   gradient norm :     0.0026820 Eh/α   predicted    -0.2439464E-04 ( -34.98%)
   displ. norm   :     0.0576326 α      lambda       -0.1953783E-04
   maximum displ.:     0.0553896 α      in ANC's #2, #3, #4, ...

........................................................................
.............................. CYCLE   10 ..............................
........................................................................
   1    -29.1504040 -0.291504E+02  0.265E-02    3.98       0.0  T
   2    -29.1504041 -0.133514E-06  0.155E-02    3.98       1.5  T
   3    -29.1504040  0.138405E-06  0.347E-03    3.98       6.6  T
   4    -29.1504041 -0.177367E-06  0.563E-04    3.98      40.7  T
   5    -29.1504041 -0.159149E-08  0.233E-04    3.98      98.3  T
     SCC iter.                  ...        0 min,  0.612 sec
     gradient                   ...        0 min,  0.204 sec
 * total energy  :   -28.7004242 Eh     change       -0.1507943E-04 Eh
   gradient norm :     0.0011126 Eh/α   predicted    -0.9806113E-05 ( -34.97%)
   displ. norm   :     0.0574450 α      lambda       -0.9270912E-05
   maximum displ.:     0.0539952 α      in ANC's #2, #6, #3, ...

........................................................................
.............................. CYCLE   11 ..............................
........................................................................
   1    -29.1504244 -0.291504E+02  0.284E-02    3.98       0.0  T
   2    -29.1504245 -0.110636E-06  0.166E-02    3.98       1.4  T
   3    -29.1504243  0.147397E-06  0.357E-03    3.98       6.4  T
   4    -29.1504245 -0.188480E-06  0.497E-04    3.98      46.2  T
   5    -29.1504245 -0.914046E-09  0.225E-04    3.98     101.8  T
     SCC iter.                  ...        0 min,  0.621 sec
     gradient                   ...        0 min,  0.164 sec
 * total energy  :   -28.7004316 Eh     change       -0.7347854E-05 Eh
   gradient norm :     0.0025564 Eh/α   predicted    -0.4643082E-05 ( -36.81%)
   displ. norm   :     0.0196009 α      lambda       -0.4704813E-05
   maximum displ.:     0.0179642 α      in ANC's #2, #1, #3, ...

........................................................................
.............................. CYCLE   12 ..............................
........................................................................
   1    -29.1504153 -0.291504E+02  0.959E-03    3.98       0.0  T
   2    -29.1504153 -0.924177E-08  0.562E-03    3.98       4.1  T
   3    -29.1504153  0.116898E-07  0.866E-04    3.98      26.5  T
   4    -29.1504153 -0.148455E-07  0.150E-04    3.98     152.9  T
     SCC iter.                  ...        0 min,  0.471 sec
     gradient                   ...        0 min,  0.168 sec
 * total energy  :   -28.7004343 Eh     change       -0.2733285E-05 Eh
   gradient norm :     0.0004265 Eh/α   predicted    -0.2354780E-05 ( -13.85%)
   displ. norm   :     0.0129820 α      lambda       -0.4993944E-06
   maximum displ.:     0.0118580 α      in ANC's #2, #1, #5, ...

   *** GEOMETRY OPTIMIZATION CONVERGED AFTER 12 ITERATIONS ***

------------------------------------------------------------------------
 total energy gain   :        -0.0105960 Eh       -6.6491 kcal/mol
 total RMSD          :         0.2571402 a0        0.1361 Å
 total power (kW/mol):        -2.3183229 (step)   -2.0819 (real)
------------------------------------------------------------------------

 ANCopt (total)                0 d,  0 h,  0 min, 13.363 sec
 optimizer setup                ...        0 min,  0.000 sec (  0.003%)
 model hessian                  ...        0 min,  0.004 sec (  0.033%)
 ANC generation                 ...        0 min,  0.001 sec (  0.007%)
 coordinate transformation      ...        0 min,  0.000 sec (  0.003%)
 single point calculation       ...        0 min, 13.136 sec ( 98.304%)
 optimization log               ...        0 min,  0.001 sec (  0.011%)
 hessian update                 ...        0 min,  0.170 sec (  1.269%)
 rational function              ...        0 min,  0.047 sec (  0.355%)

================
 final structure:
================
19
 xtb: 6.5.0 (97a52f5)
C            2.26723350651066        0.27126449673705        0.49535887565059
N            1.09415231087206       -0.27222224463424        0.89820604644642
C           -0.10739792758848       -0.09492640161723        0.17202268758395
C           -0.09268574691353       -0.07301707892769       -1.21990263224340
C            1.02677501369038       -0.97854109458077        2.15884273255039
C           -1.32261947120087        0.02954625695393        0.83996008119805
C           -2.49685614052943        0.18479676258460        0.12553324892391
C           -2.47802607674529        0.21572907440537       -1.25768792467932
C           -1.27149361977907        0.08758045382317       -1.92418131244119
H           -1.36200621521191        0.01846076259482        1.91786444554401
H            0.84088320123741       -0.17220806607787       -1.74729212258494
O            2.46585713022138        0.92043339248140       -0.49995472746270
H            2.03082958546559       -1.27965823469275        2.45529781742937
H            0.41534572600129       -1.87426164422325        2.04484396260390
H            0.60861825227387       -0.35519637232535        2.95323653698730
H           -3.43161683240155        0.28394885746246        0.65765482978505
H           -1.24503643340707        0.10488890272080       -3.00340024718477
H           -3.39686879502585        0.33735416704779       -1.81114866669279
H            3.07859453253050        0.04481400026783        1.21533137858613

 Bond Distances (Angstroems)
 ---------------------------
C1-N2=1.3542         C1-O12=1.2048        C1-H19=1.1081        N2-C1=1.3542         N2-C3=1.4151         N2-C5=1.4466         
C3-N2=1.4151         C3-C4=1.3922         C3-C6=1.3923         C4-C3=1.3922         C4-C9=1.3825         C4-H11=1.0768        
C5-N2=1.4466         C5-H13=1.0893        C5-H14=1.0905        C5-H15=1.0929        C6-C3=1.3923         C6-C7=1.3832         
C6-H10=1.0787        C7-C6=1.3832         C7-C8=1.3837         C7-H16=1.0802        C8-C7=1.3837         C8-C9=1.3843         
C8-H18=1.0795        C9-C4=1.3825         C9-C8=1.3843         C9-H17=1.0797        H10-C6=1.0787        H11-C4=1.0768        
O12-C1=1.2048        H13-C5=1.0893        H14-C5=1.0905        H15-C5=1.0929        H16-C7=1.0802        H17-C9=1.0797        
H18-C8=1.0795        H19-C1=1.1081        
 C  H  Rav=1.0862 sigma=0.0096  Rmin=1.0768  Rmax=1.1081     9
 C  C  Rav=1.3864 sigma=0.0042  Rmin=1.3825  Rmax=1.3923     6
 N  C  Rav=1.4053 sigma=0.0384  Rmin=1.3542  Rmax=1.4466     3
 O  C  Rav=1.2048 sigma=0.0000  Rmin=1.2048  Rmax=1.2048     1

 selected bond angles (degree)
 --------------------
O12-C1-N2=127.22               H19-C1-N2=111.04               H19-C1-O12=121.75              C3-N2-C1=122.18                
C5-N2-C1=119.71                C5-N2-C3=117.96                C4-C3-N2=120.40                C6-C3-N2=120.41                
C6-C3-C4=119.18                C9-C4-C3=120.14                H11-C4-C3=119.83               H11-C4-C9=120.03               
H13-C5-N2=109.22               H14-C5-N2=109.64               H14-C5-H13=108.55              H15-C5-N2=111.89               
H15-C5-H13=108.21              H15-C5-H14=109.27              C7-C6-C3=120.21                H10-C6-C3=120.69               
H10-C6-C7=119.10               C8-C7-C6=120.48                H16-C7-C6=119.37               H16-C7-C8=120.14               
C9-C8-C7=119.41                H18-C8-C7=120.23               H18-C8-C9=120.36               C8-C9-C4=120.57                
H17-C9-C4=119.35               H17-C9-C8=120.07               

 selected dihedral angles (degree)
 ---------------------------------
C3-N2-C1-O12=358.01           C3-N2-C1-H19=178.12           C5-N2-C1-O12=182.62           C5-N2-C1-H19=  2.72           
C4-C3-N2-C1= 37.07            C4-C3-N2-C5=212.54            C6-C3-N2-C1=215.62            C6-C3-N2-C5= 31.09            
C9-C4-C3-N2=179.37            C9-C4-C3-C6=  0.81            H11-C4-C3-N2=358.80           H11-C4-C3-C6=180.23           
H13-C5-N2-C1=339.79           H13-C5-N2-C3=164.20           H14-C5-N2-C1=220.96           H14-C5-N2-C3= 45.38           
H15-C5-N2-C1= 99.57           H15-C5-N2-C3=283.99           C7-C6-C3-N2=180.87            C7-C6-C3-C4=359.43            
H10-C6-C3-N2=  1.60           H10-C6-C3-C4=180.17           C8-C7-C6-C3=  0.12            C8-C7-C6-H10=179.39           
H16-C7-C6-C3=180.23           H16-C7-C6-H10=359.51          C9-C8-C7-C6=  0.10            C9-C8-C7-H16=179.98           
H18-C8-C7-C6=180.02           H18-C8-C7-H16=359.90          C8-C9-C4-C3=359.40            C8-C9-C4-H11=179.98           
H17-C9-C4-C3=179.87           H17-C9-C4-H11=  0.44          C4-C9-C8-C7=  0.14            C4-C9-C8-H18=180.22           
H17-C9-C8-C7=179.67           H17-C9-C8-H18=359.76          
           -------------------------------------------------
          |                Final Singlepoint                |
           -------------------------------------------------

          ...................................................
          :                      SETUP                      :
          :.................................................:
          :  # basis functions                  49          :
          :  # atomic orbitals                  49          :
          :  # shells                           29          :
          :  # electrons                        52          :
          :  max. iterations                   250          :
          :  Hamiltonian                  GFN2-xTB          :
          :  restarted?                      false          :
          :  GBSA solvation                  false          :
          :  PC potential                    false          :
          :  electronic temp.          300.0000000     K    :
          :  accuracy                    1.0000000          :
          :  -> integral cutoff          0.2500000E+02      :
          :  -> integral neglect         0.1000000E-07      :
          :  -> SCF convergence          0.1000000E-05 Eh   :
          :  -> wf. convergence          0.1000000E-03 e    :
          :  Broyden damping             0.4000000          :
          ...................................................

 iter      E             dE          RMSdq      gap      omega  full diag
   1    -29.1504153 -0.291504E+02  0.676E-05    3.98       0.0  T
   2    -29.1504153 -0.675016E-11  0.393E-05    3.98     584.4  T
   3    -29.1504153  0.108358E-11  0.212E-05    3.98    1081.2  T

   *** convergence criteria satisfied after 3 iterations ***

         #    Occupation            Energy/Eh            Energy/eV
      -------------------------------------------------------------
         1        2.0000           -0.7023976             -19.1132
       ...           ...                  ...                  ...
        20        2.0000           -0.4801643             -13.0659
        21        2.0000           -0.4407919             -11.9946
        22        2.0000           -0.4398310             -11.9684
        23        2.0000           -0.4248675             -11.5612
        24        2.0000           -0.4098071             -11.1514
        25        2.0000           -0.3976370             -10.8203
        26        2.0000           -0.3855960             -10.4926 (HOMO)
        27                         -0.2394482              -6.5157 (LUMO)
        28                         -0.2274763              -6.1899
        29                         -0.2004738              -5.4552
        30                         -0.0945618              -2.5732
        31                         -0.0063224              -0.1720
       ...                                ...                  ...
        49                          0.6702887              18.2395
      -------------------------------------------------------------
                  HL-Gap            0.1461478 Eh            3.9769 eV
             Fermi-level           -0.3125221 Eh           -8.5042 eV

 SCC (total)                   0 d,  0 h,  0 min,  0.611 sec
 SCC setup                      ...        0 min,  0.016 sec (  2.590%)
 Dispersion                     ...        0 min,  0.043 sec (  7.001%)
 classical contributions        ...        0 min,  0.016 sec (  2.689%)
 integral evaluation            ...        0 min,  0.045 sec (  7.423%)
 iterations                     ...        0 min,  0.346 sec ( 56.678%)
 molecular gradient             ...        0 min,  0.144 sec ( 23.541%)
 printout                       ...        0 min,  0.000 sec (  0.018%)

         :::::::::::::::::::::::::::::::::::::::::::::::::::::
         ::                     SUMMARY                     ::
         :::::::::::::::::::::::::::::::::::::::::::::::::::::
         :: total energy             -28.700434284498 Eh    ::
         :: gradient norm              0.000426481066 Eh/a0 ::
         :: HOMO-LUMO gap              3.976884094286 eV    ::
         ::.................................................::
         :: SCC energy               -29.150415309188 Eh    ::
         :: -> isotropic ES            0.032847983365 Eh    ::
         :: -> anisotropic ES          0.003388349206 Eh    ::
         :: -> anisotropic XC          0.013744878399 Eh    ::
         :: -> dispersion             -0.015978833838 Eh    ::
         :: repulsion energy           0.449925707786 Eh    ::
         :: add. restraining           0.000000649077 Eh    ::
         :: total charge              -0.000000000000 e     ::
         :::::::::::::::::::::::::::::::::::::::::::::::::::::

           -------------------------------------------------
          |                Property Printout                |
           -------------------------------------------------

    * Orbital Energies and Occupations

         #    Occupation            Energy/Eh            Energy/eV
      -------------------------------------------------------------
         1        2.0000           -0.7023976             -19.1132
       ...           ...                  ...                  ...
        14        2.0000           -0.5134702             -13.9722
        15        2.0000           -0.5080009             -13.8234
        16        2.0000           -0.4985908             -13.5673
        17        2.0000           -0.4945994             -13.4587
        18        2.0000           -0.4858404             -13.2204
        19        2.0000           -0.4834320             -13.1549
        20        2.0000           -0.4801643             -13.0659
        21        2.0000           -0.4407919             -11.9946
        22        2.0000           -0.4398310             -11.9684
        23        2.0000           -0.4248675             -11.5612
        24        2.0000           -0.4098071             -11.1514
        25        2.0000           -0.3976370             -10.8203
        26        2.0000           -0.3855960             -10.4926 (HOMO)
        27                         -0.2394482              -6.5157 (LUMO)
        28                         -0.2274763              -6.1899
        29                         -0.2004738              -5.4552
        30                         -0.0945618              -2.5732
        31                         -0.0063224              -0.1720
        32                          0.0708716               1.9285
        33                          0.1091334               2.9697
        34                          0.1318112               3.5868
        35                          0.1490020               4.0545
        36                          0.1584058               4.3104
        37                          0.1688897               4.5957
       ...                                ...                  ...
        49                          0.6702887              18.2395
      -------------------------------------------------------------
                  HL-Gap            0.1461478 Eh            3.9769 eV
             Fermi-level           -0.3125221 Eh           -8.5042 eV

     #   Z          covCN         q      C6AA      α(0)
     1   6 C        2.712     0.248    22.838     7.823
     2   7 N        2.734    -0.077    22.736     7.082
     3   6 C        2.920     0.069    26.456     8.435
     4   6 C        2.922    -0.037    28.929     8.820
     5   6 C        3.701    -0.048    21.600     6.646
     6   6 C        2.922    -0.049    29.212     8.863
     7   6 C        2.921    -0.029    28.735     8.790
     8   6 C        2.918    -0.034    28.838     8.806
     9   6 C        2.921    -0.027    28.665     8.780
    10   1 H        0.926     0.035     2.521     2.483
    11   1 H        0.926     0.063     2.159     2.298
    12   8 O        0.857    -0.400    21.682     6.243
    13   1 H        0.925     0.059     2.216     2.328
    14   1 H        0.924     0.062     2.173     2.305
    15   1 H        0.924     0.056     2.251     2.346
    16   1 H        0.926     0.034     2.524     2.485
    17   1 H        0.926     0.040     2.453     2.449
    18   1 H        0.926     0.035     2.516     2.480
    19   1 H        0.922     0.001     3.050     2.731

 Mol. C6AA /au·bohr⁶  :       4193.846769
 Mol. C8AA /au·bohr⁸  :      98824.361326
 Mol. α(0) /au        :        102.194049


Wiberg/Mayer (AO) data.
largest (>0.10) Wiberg bond orders for each atom

 ---------------------------------------------------------------------------
     #   Z sym  total        # sym  WBO       # sym  WBO       # sym  WBO
 ---------------------------------------------------------------------------
     1   6 C    3.954 --    12 O    1.736     2 N    1.235    19 H    0.917
     2   7 N    3.542 --     1 C    1.235     3 C    1.029     5 C    0.999
                            12 O    0.193
     3   6 C    3.960 --     6 C    1.384     4 C    1.383     2 N    1.029
                             8 C    0.101
     4   6 C    3.989 --     9 C    1.450     3 C    1.383    11 H    0.965
                             7 C    0.109
     5   6 C    3.970 --     2 N    0.999    14 H    0.979    13 H    0.977
                            15 H    0.973
     6   6 C    3.991 --     7 C    1.448     3 C    1.384    10 H    0.967
                             9 C    0.108
     7   6 C    3.992 --     6 C    1.448     8 C    1.436    16 H    0.971
                             4 C    0.109
     8   6 C    3.992 --     7 C    1.436     9 C    1.434    18 H    0.971
                             3 C    0.101
     9   6 C    3.992 --     4 C    1.450     8 C    1.434    17 H    0.970
                             6 C    0.108
    10   1 H    0.999 --     6 C    0.967
    11   1 H    0.996 --     4 C    0.965
    12   8 O    2.045 --     1 C    1.736     2 N    0.193
    13   1 H    0.996 --     5 C    0.977
    14   1 H    0.996 --     5 C    0.979
    15   1 H    0.997 --     5 C    0.973
    16   1 H    0.998 --     7 C    0.971
    17   1 H    0.998 --     9 C    0.970
    18   1 H    0.999 --     8 C    0.971
    19   1 H    0.999 --     1 C    0.917
 ---------------------------------------------------------------------------

Topologies differ in total number of bonds
Writing topology from bond orders to xtbtopo.mol

molecular dipole:
                 x           y           z       tot (Debye)
 q only:       -0.770      -0.848       0.921
   full:       -0.729      -0.941       1.184       4.267
molecular quadrupole (traceless):
                xx          xy          yy          xz          yz          zz
 q only:       -4.321      -5.082      -1.553       5.500      -0.764       5.874
  q+dip:       -2.293      -6.753      -5.322       6.955       0.120       7.615
   full:       -3.872      -6.428      -2.537       6.948       0.300       6.409

           -------------------------------------------------
          |                Geometry Summary                 |
           -------------------------------------------------

      molecular mass/u    :      135.1634621
   center of mass at/Å    :       -0.0107424       0.0274037       0.0146067
  moments of inertia/u·Å² :        0.1988169E+03   0.4779381E+03   0.6393742E+03
rotational constants/cm⁻¹ :        0.8478975E-01   0.3527158E-01   0.2636583E-01

 * 18 selected distances

     #   Z          #   Z                                           value/Å
     1   6 C        2   7 N                                       1.3541726
     2   7 N        3   6 C                                       1.4150970
     3   6 C        4   6 C                                       1.3921756
     2   7 N        5   6 C                                       1.4465930 (max)
     3   6 C        6   6 C                                       1.3922635
     6   6 C        7   6 C                                       1.3832355
     7   6 C        8   6 C                                       1.3836953
     4   6 C        9   6 C                                       1.3825297
     8   6 C        9   6 C                                       1.3843253
     6   6 C       10   1 H                                       1.0786808
     4   6 C       11   1 H                                       1.0768146 (min)
     1   6 C       12   8 O                                       1.2047909
     5   6 C       13   1 H                                       1.0893498
     5   6 C       14   1 H                                       1.0904848
     5   6 C       15   1 H                                       1.0929206
     7   6 C       16   1 H                                       1.0801677
     9   6 C       17   1 H                                       1.0796820
     8   6 C       18   1 H                                       1.0795293

 * 4 distinct bonds (by element types)

   Z      Z             #   av. dist./Å        max./Å        min./Å
   1 H    6 C           8     1.0834537     1.0929206     1.0768146
   6 C    6 C           6     1.3863708     1.3922635     1.3825297
   6 C    7 N           3     1.4052875     1.4465930     1.3541726
   6 C    8 O           1     1.2047909     1.2047909     1.2047909


optimized geometry written to: xtbopt.xyz


           -------------------------------------------------
          | TOTAL ENERGY              -28.700434284498 Eh   |
          | GRADIENT NORM               0.000426481066 Eh/α |
          | HOMO-LUMO GAP               3.976884094286 eV   |
           -------------------------------------------------

------------------------------------------------------------------------
 * finished run on 2023/11/18 at 08:17:58.787     
------------------------------------------------------------------------
 total:
 * wall-time:     0 d,  0 h,  0 min, 15.952 sec
 *  cpu-time:     0 d,  0 h,  9 min,  4.550 sec
 * ratio c/w:    34.136 speedup
 SCF:
 * wall-time:     0 d,  0 h,  0 min,  1.747 sec
 *  cpu-time:     0 d,  0 h,  1 min,  4.380 sec
 * ratio c/w:    36.845 speedup
 ANC optimizer:
 * wall-time:     0 d,  0 h,  0 min, 13.992 sec
 *  cpu-time:     0 d,  0 h,  7 min, 54.345 sec
 * ratio c/w:    33.902 speedup

