19
 energy: -28.700434284498 gnorm: 0.000426481066 xtb: 6.5.0 (97a52f5)
C            2.26723350651066        0.27126449673705        0.49535887565059
N            1.09415231087206       -0.27222224463424        0.89820604644642
C           -0.10739792758848       -0.09492640161723        0.17202268758395
C           -0.09268574691353       -0.07301707892769       -1.21990263224340
C            1.02677501369038       -0.97854109458077        2.15884273255039
C           -1.32261947120087        0.02954625695393        0.83996008119805
C           -2.49685614052943        0.18479676258460        0.12553324892391
C           -2.47802607674529        0.21572907440537       -1.25768792467932
C           -1.27149361977907        0.08758045382317       -1.92418131244119
H           -1.36200621521191        0.01846076259482        1.91786444554401
H            0.84088320123741       -0.17220806607787       -1.74729212258494
O            2.46585713022138        0.92043339248140       -0.49995472746270
H            2.03082958546559       -1.27965823469275        2.45529781742937
H            0.41534572600129       -1.87426164422325        2.04484396260390
H            0.60861825227387       -0.35519637232535        2.95323653698730
H           -3.43161683240155        0.28394885746246        0.65765482978505
H           -1.24503643340707        0.10488890272080       -3.00340024718477
H           -3.39686879502585        0.33735416704779       -1.81114866669279
H            3.07859453253050        0.04481400026783        1.21533137858613
