
    -----------------------------------------------------------------------
          Psi4: An Open-Source Ab Initio Electronic Structure Package
                               Psi4 1.6 release

                         Git: Rev {HEAD} 77475b5 


    D. G. A. Smith, L. A. Burns, A. C. Simmonett, R. M. Parrish,
    M. C. Schieber, R. Galvelis, P. Kraus, H. Kruse, R. Di Remigio,
    A. Alenaizan, A. M. James, S. Lehtola, J. P. Misiewicz, M. Scheurer,
    R. A. Shaw, J. B. Schriber, Y. Xie, Z. L. Glick, D. A. Sirianni,
    J. S. O'Brien, J. M. Waldrop, A. Kumar, E. G. Hohenstein,
    B. P. Pritchard, B. R. Brooks, H. F. Schaefer III, A. Yu. Sokolov,
    K. Patkowski, A. E. DePrince III, U. Bozkaya, R. A. King,
    F. A. Evangelista, J. M. Turney, T. D. Crawford, C. D. Sherrill,
    J. Chem. Phys. 152(18) 184108 (2020). https://doi.org/10.1063/5.0006002

                            Additional Code Authors
    E. T. Seidl, C. L. Janssen, E. F. Valeev, M. L. Leininger,
    J. F. Gonthier, R. M. Richard, H. R. McAlexander, M. Saitow, X. Wang,
    P. Verma, M. H. Lechner, and A. Jiang

             Previous Authors, Complete List of Code Contributors,
                       and Citations for Specific Modules
    https://github.com/psi4/psi4/blob/master/codemeta.json
    https://github.com/psi4/psi4/graphs/contributors
    http://psicode.org/psi4manual/master/introduction.html#citing-psifour

    -----------------------------------------------------------------------


    Psi4 started on: Saturday, 18 November 2023 08:26AM

    Process ID: 1125787
    Host:       node165.bme.utexas.edu
    PSIDATADIR: /home/liuchw/anaconda3/envs/poltype2022/share/psi4
    Memory:     500.0 MiB
    Threads:    1
    
  ==> Input File <==

--------------------------------------------------------------------------
molecule { 
0 1
 C    1.987443    0.780149    0.988517
 N    1.091473   -0.222795    0.950731
 C   -0.120164   -0.067626    0.208230
 C   -0.205456   -0.572844   -1.080629
 C    1.232570   -1.438919    1.714033
 C   -1.200335    0.593203    0.773283
 C   -2.370797    0.737570    0.049368
 C   -2.462426    0.225163   -1.233346
 C   -1.379172   -0.426433   -1.798297
 H   -1.115206    0.999169    1.770098
 H    0.648783   -1.069553   -1.516209
 O    1.887672    1.832920    0.409501
 H    2.268325   -1.559507    2.026889
 H    0.938218   -2.292960    1.101893
 H    0.593199   -1.418586    2.602401
 H   -3.211765    1.254295    0.487260
 H   -1.445960   -0.817041   -2.802838
 H   -3.376717    0.339686   -1.796340
 H    2.863999    0.522899    1.616037
}
memory 20GB
set_num_threads(5)
psi4_io.set_default_path("/scratch/liuchw/Psi4-3_24_Index_0-farH_in17")
set freeze_core True
E, wfn = energy('wb97x-d/6-311+G*',return_wfn=True)
oeprop(wfn,"WIBERG_LOWDIN_INDICES")
clean()
--------------------------------------------------------------------------

  Memory set to  18.626 GiB by Python driver.
  Threads set to 5 by Python driver.

Scratch directory: /scratch/liuchw/Psi4-3_24_Index_0-farH_in17/

*** tstart() called on node165.bme.utexas.edu
*** at Sat Nov 18 08:26:24 2023

   => Loading Basis Set <=

    Name: 6-311+G*
    Role: ORBITAL
    Keyword: BASIS
    atoms 1, 3-9       entry C          line   130 file /home/liuchw/anaconda3/envs/poltype2022/share/psi4/basis/6-311pgs.gbs 
    atoms 2            entry N          line   151 file /home/liuchw/anaconda3/envs/poltype2022/share/psi4/basis/6-311pgs.gbs 
    atoms 10-11, 13-19 entry H          line    47 file /home/liuchw/anaconda3/envs/poltype2022/share/psi4/basis/6-311pgs.gbs 
    atoms 12           entry O          line   172 file /home/liuchw/anaconda3/envs/poltype2022/share/psi4/basis/6-311pgs.gbs 

   => WB97X-D: Empirical Dispersion <=

    Chai and Head-Gordon Dispersion Correction
    Chai, J.-D.; Head-Gordon, M. (2010), J. Chem. Phys., 132: 6615-6620

        s6 =       1.000000


         ---------------------------------------------------------
                                   SCF
               by Justin Turney, Rob Parrish, Andy Simmonett
                          and Daniel G. A. Smith
                              RKS Reference
                        5 Threads,  19073 MiB Core
         ---------------------------------------------------------

  ==> Geometry <==

    Molecular point group: c1
    Full point group: C1

    Geometry (in Angstrom), charge = 0, multiplicity = 1:

       Center              X                  Y                   Z               Mass       
    ------------   -----------------  -----------------  -----------------  -----------------
         C            2.065880390245     0.631427949571     0.849080313293    12.000000000000
         N            1.169910390245    -0.371516050429     0.811294313293    14.003074004430
         C           -0.041726609755    -0.216347050429     0.068793313293    12.000000000000
         C           -0.127018609755    -0.721565050429    -1.220065686707    12.000000000000
         C            1.311007390245    -1.587640050429     1.574596313293    12.000000000000
         C           -1.121897609755     0.444481949571     0.633846313293    12.000000000000
         C           -2.292359609755     0.588848949571    -0.090068686707    12.000000000000
         C           -2.383988609755     0.076441949571    -1.372782686707    12.000000000000
         C           -1.300734609755    -0.575154050429    -1.937733686707    12.000000000000
         H           -1.036768609755     0.850447949571     1.630661313293     1.007825032230
         H            0.727220390245    -1.218274050429    -1.655645686707     1.007825032230
         O            1.966109390245     1.684198949571     0.270064313293    15.994914619570
         H            2.346762390245    -1.708228050429     1.887452313293     1.007825032230
         H            1.016655390245    -2.441681050429     0.962456313293     1.007825032230
         H            0.671636390245    -1.567307050429     2.462964313293     1.007825032230
         H           -3.133327609755     1.105573949571     0.347823313293     1.007825032230
         H           -1.367522609755    -0.965762050429    -2.942274686707     1.007825032230
         H           -3.298279609755     0.190964949571    -1.935776686707     1.007825032230
         H            2.942436390245     0.374177949571     1.476600313293     1.007825032230

  Running in c1 symmetry.

  Rotational constants: A =      0.08340  B =      0.03181  C =      0.03013 [cm^-1]
  Rotational constants: A =   2500.32472  B =    953.75219  C =    903.25315 [MHz]
  Nuclear repulsion =  499.134849554720176

  Charge       = 0
  Multiplicity = 1
  Electrons    = 72
  Nalpha       = 36
  Nbeta        = 36

  ==> Algorithm <==

  SCF Algorithm Type is DF.
  DIIS enabled.
  MOM disabled.
  Fractional occupation disabled.
  Guess Type is SAD.
  Energy threshold   = 1.00e-06
  Density threshold  = 1.00e-06
  Integral threshold = 1.00e-12

  ==> Primary Basis <==

  Basis Set: 6-311+G*
    Blend: 6-311+G*
    Number of shells: 127
    Number of basis functions: 247
    Number of Cartesian functions: 257
    Spherical Harmonics?: true
    Max angular momentum: 2

  ==> DFT Potential <==

   => LibXC <=

    Version 5.1.5
    S. Lehtola, C. Steigemann, M. J. Oliveira, and M. A. Marques, SoftwareX 7, 1 (2018) (10.1016/j.softx.2017.11.002)

   => Composite Functional: WB97X-D <= 

    wB97X-D Hyb-GGA Exchange-Correlation Functional

    J.-D. Chai and M. Head-Gordon, Phys. Chem. Chem. Phys. 10, 6615 (2008) (10.1039/B810189B)

    Deriv               =              1
    GGA                 =           TRUE
    Meta                =          FALSE

    Exchange Hybrid     =           TRUE
    MP2 Hybrid          =          FALSE

   => Exchange-Correlation Functionals <=

    1.0000   wB97X-D range-separated functional

   => Exact (HF) Exchange <=

    0.7780            HF,LR [omega = 0.2000]
    0.2220               HF 

   => LibXC Density Thresholds  <==

    XC_HYB_GGA_XC_WB97X_D:  1.00E-14 

   => Molecular Quadrature <=

    Radial Scheme          =       TREUTLER
    Pruning Scheme         =           NONE
    Nuclear Scheme         =       TREUTLER

    Blocking Scheme        =         OCTREE
    BS radius alpha        =              1
    Pruning alpha          =              1
    Radial Points          =             75
    Spherical Points       =            302
    Total Points           =         401391
    Total Blocks           =           2989
    Max Points             =            256
    Max Functions          =            228
    Weights Tolerance      =       1.00E-15

   => Loading Basis Set <=

    Name: (6-311+G* AUX)
    Role: JKFIT
    Keyword: DF_BASIS_SCF
    atoms 1, 3-9       entry C          line   200 file /home/liuchw/anaconda3/envs/poltype2022/share/psi4/basis/heavy-aug-cc-pvtz-jkfit.gbs 
    atoms 2            entry N          line   262 file /home/liuchw/anaconda3/envs/poltype2022/share/psi4/basis/heavy-aug-cc-pvtz-jkfit.gbs 
    atoms 10-11, 13-19 entry H          line   116 file /home/liuchw/anaconda3/envs/poltype2022/share/psi4/basis/heavy-aug-cc-pvtz-jkfit.gbs 
    atoms 12           entry O          line   324 file /home/liuchw/anaconda3/envs/poltype2022/share/psi4/basis/heavy-aug-cc-pvtz-jkfit.gbs 

  ==> Integral Setup <==

  DFHelper Memory: AOs need 1.711 GiB; user supplied 11.963 GiB. Using in-core AOs.

  ==> MemDFJK: Density-Fitted J/K Matrices <==

    J tasked:                   Yes
    K tasked:                   Yes
    wK tasked:                  Yes
    Omega:                2.000E-01
    OpenMP threads:               5
    Memory [MiB]:             12250
    Algorithm:                 Core
    Schwarz Cutoff:           1E-12
    Mask sparsity (%):       5.7729
    Fitting Condition:        1E-10

   => Auxiliary Basis Set <=

  Basis Set: (6-311+G* AUX)
    Blend: HEAVY-AUG-CC-PVTZ-JKFIT
    Number of shells: 390
    Number of basis functions: 1310
    Number of Cartesian functions: 1625
    Spherical Harmonics?: true
    Max angular momentum: 4

  Cached 100.0% of DFT collocation blocks in 2.007 [GiB].

  Minimum eigenvalue in the overlap matrix is 1.2817404298E-06.
  Reciprocal condition number of the overlap matrix is 9.3377434156E-08.
    Using symmetric orthogonalization.

  ==> Pre-Iterations <==

  SCF Guess: Superposition of Atomic Densities via on-the-fly atomic UHF (no occupation information).

   -------------------------
    Irrep   Nso     Nmo    
   -------------------------
     A        247     247 
   -------------------------
    Total     247     247
   -------------------------

  ==> Iterations <==

                           Total Energy        Delta E     RMS |[F,P]|

   @DF-RKS iter SAD:  -439.64258803589894   -4.39643e+02   0.00000e+00 
   @DF-RKS iter   1:  -439.73940826411899   -9.68202e-02   3.95207e-03 DIIS/ADIIS
   @DF-RKS iter   2:  -439.86806556786081   -1.28657e-01   3.65950e-03 DIIS/ADIIS
   @DF-RKS iter   3:  -440.18222481276661   -3.14159e-01   8.47927e-04 DIIS/ADIIS
   @DF-RKS iter   4:  -440.19690071550400   -1.46759e-02   2.17883e-04 DIIS/ADIIS
   @DF-RKS iter   5:  -440.19797919723885   -1.07848e-03   6.92360e-05 DIIS
   @DF-RKS iter   6:  -440.19809471987577   -1.15523e-04   2.13389e-05 DIIS
   @DF-RKS iter   7:  -440.19810665127631   -1.19314e-05   4.49817e-06 DIIS
   @DF-RKS iter   8:  -440.19810736353367   -7.12257e-07   1.77380e-06 DIIS
   @DF-RKS iter   9:  -440.19810748984861   -1.26315e-07   5.29380e-07 DIIS
  Energy and wave function converged.


  ==> Post-Iterations <==

   Electrons on quadrature grid:
      Ntotal   =   71.9999923210 ; deviation = -7.679e-06 

    Orbital Energies [Eh]
    ---------------------

    Doubly Occupied:                                                      

       1A    -19.212387     2A    -14.472984     3A    -10.382077  
       4A    -10.333452     5A    -10.330197     6A    -10.297159  
       7A    -10.296792     8A    -10.296138     9A    -10.295801  
      10A    -10.294891    11A     -1.149375    12A     -1.062286  
      13A     -0.969610    14A     -0.864605    15A     -0.862601  
      16A     -0.819333    17A     -0.747678    18A     -0.718693  
      19A     -0.672011    20A     -0.614631    21A     -0.609661  
      22A     -0.578698    23A     -0.571852    24A     -0.541968  
      25A     -0.534642    26A     -0.521012    27A     -0.507732  
      28A     -0.497762    29A     -0.478840    30A     -0.468362  
      31A     -0.450868    32A     -0.442251    33A     -0.345044  
      34A     -0.343424    35A     -0.341715    36A     -0.334103  

    Virtual:                                                              

      37A      0.045762    38A      0.049040    39A      0.053620  
      40A      0.067692    41A      0.070478    42A      0.083932  
      43A      0.085117    44A      0.088006    45A      0.101699  
      46A      0.106397    47A      0.114648    48A      0.118250  
      49A      0.128566    50A      0.134659    51A      0.138503  
      52A      0.146980    53A      0.156211    54A      0.163876  
      55A      0.172944    56A      0.176657    57A      0.186763  
      58A      0.193520    59A      0.198256    60A      0.202093  
      61A      0.215521    62A      0.218574    63A      0.221869  
      64A      0.224107    65A      0.227463    66A      0.239565  
      67A      0.243318    68A      0.248094    69A      0.258442  
      70A      0.261085    71A      0.266774    72A      0.281428  
      73A      0.281967    74A      0.284590    75A      0.287406  
      76A      0.291196    77A      0.297441    78A      0.306279  
      79A      0.310600    80A      0.320327    81A      0.323462  
      82A      0.328953    83A      0.348525    84A      0.350482  
      85A      0.369382    86A      0.370629    87A      0.384030  
      88A      0.391947    89A      0.395260    90A      0.415446  
      91A      0.424457    92A      0.434641    93A      0.440417  
      94A      0.465903    95A      0.478779    96A      0.509683  
      97A      0.525819    98A      0.534102    99A      0.551871  
     100A      0.570592   101A      0.585085   102A      0.603087  
     103A      0.609463   104A      0.610545   105A      0.624938  
     106A      0.638640   107A      0.642637   108A      0.648467  
     109A      0.669882   110A      0.676841   111A      0.687956  
     112A      0.701732   113A      0.715066   114A      0.723631  
     115A      0.739675   116A      0.753095   117A      0.773543  
     118A      0.776989   119A      0.780439   120A      0.789106  
     121A      0.794865   122A      0.800246   123A      0.812395  
     124A      0.823398   125A      0.840362   126A      0.861401  
     127A      0.894262   128A      0.916501   129A      0.918386  
     130A      0.939560   131A      0.941193   132A      0.965974  
     133A      0.976928   134A      0.979135   135A      0.995313  
     136A      1.010659   137A      1.019954   138A      1.043327  
     139A      1.093197   140A      1.102773   141A      1.118691  
     142A      1.157754   143A      1.206694   144A      1.236687  
     145A      1.240504   146A      1.248215   147A      1.270855  
     148A      1.281907   149A      1.297646   150A      1.318518  
     151A      1.337885   152A      1.398252   153A      1.416036  
     154A      1.479236   155A      1.497375   156A      1.539697  
     157A      1.561383   158A      1.602016   159A      1.613262  
     160A      1.645737   161A      1.656772   162A      1.684568  
     163A      1.691720   164A      1.714214   165A      1.761370  
     166A      1.787599   167A      1.826124   168A      1.831713  
     169A      1.866717   170A      1.874992   171A      1.887928  
     172A      1.910534   173A      1.948700   174A      1.986639  
     175A      2.001256   176A      2.025388   177A      2.052284  
     178A      2.082377   179A      2.121547   180A      2.135984  
     181A      2.182313   182A      2.266936   183A      2.322643  
     184A      2.356449   185A      2.361362   186A      2.395103  
     187A      2.466181   188A      2.491030   189A      2.493768  
     190A      2.506515   191A      2.520060   192A      2.559167  
     193A      2.597683   194A      2.653141   195A      2.675182  
     196A      2.760483   197A      2.774371   198A      2.789071  
     199A      2.810863   200A      2.862457   201A      2.872496  
     202A      2.909576   203A      2.952894   204A      2.969779  
     205A      2.992737   206A      3.006831   207A      3.021386  
     208A      3.055812   209A      3.103150   210A      3.194047  
     211A      3.246521   212A      3.282156   213A      3.323782  
     214A      3.407397   215A      3.415774   216A      3.425410  
     217A      3.443955   218A      3.451066   219A      3.468577  
     220A      3.482656   221A      3.500480   222A      3.587727  
     223A      3.654100   224A      3.705753   225A      3.723698  
     226A      3.780468   227A      3.919335   228A      4.021051  
     229A      4.059861   230A      4.121784   231A      4.159612  
     232A      4.898011   233A      4.902420   234A      5.055210  
     235A      5.176290   236A      5.307206   237A      5.876193  
     238A     23.486903   239A     23.713396   240A     23.991396  
     241A     24.006798   242A     24.018588   243A     24.198007  
     244A     24.205299   245A     24.314909   246A     35.702921  
     247A     50.141607  

    Final Occupation by Irrep:
              A 
    DOCC [    36 ]

  @DF-RKS Final Energy:  -440.19810748984861

   => Energetics <=

    Nuclear Repulsion Energy =            499.1348495547201765
    One-Electron Energy =               -1584.9785158318263711
    Two-Electron Energy =                 688.6020109784964234
    DFT Exchange-Correlation Energy =     -42.9462170312468601
    Empirical Dispersion Energy =          -0.0102351599920044
    VV10 Nonlocal Energy =                  0.0000000000000000
    Total Energy =                       -440.1981074898486668

Computation Completed


Properties will be evaluated at   0.000000,   0.000000,   0.000000 [a0]

Properties computed using the SCF density matrix


 Multipole Moments:

 ------------------------------------------------------------------------------------
     Multipole            Electronic (a.u.)      Nuclear  (a.u.)        Total (a.u.)
 ------------------------------------------------------------------------------------

 L = 1.  Multiply by 2.5417464519 to convert [e a0] to [Debye]
 Dipole X            :          0.5751798           -1.0544046           -0.4792249
 Dipole Y            :          3.5998773           -5.0344962           -1.4346188
 Dipole Z            :         -1.6181977            2.0934926            0.4752949
 Magnitude           :                                                    1.5854630

 ------------------------------------------------------------------------------------

*** tstop() called on node165.bme.utexas.edu at Sat Nov 18 08:26:42 2023
Module time:
	user time   =      68.53 seconds =       1.14 minutes
	system time =       3.79 seconds =       0.06 minutes
	total time  =         18 seconds =       0.30 minutes
Total time:
	user time   =      68.53 seconds =       1.14 minutes
	system time =       3.79 seconds =       0.06 minutes
	total time  =         18 seconds =       0.30 minutes


Properties will be evaluated at   0.000000,   0.000000,   0.000000 [a0]
OEProp: No title given, name of density matrix used for the following properties is 'SCF density'


  Wiberg Bond Indices using Orthogonal Lowdin Orbitals:

  Irrep: 1 Size: 19 x 19

                 1                   2                   3                   4                   5

    1     0.00000000000000     1.43865097829132     0.11413038070914     0.03263525188131     0.13091633646017
    2     1.43865097829132     0.00000000000000     1.08205918816887     0.12055630697747     1.17691098211712
    3     0.11413038070914     1.08205918816887     0.00000000000000     1.42244798618834     0.11379187387460
    4     0.03263525188131     0.12055630697747     1.42244798618834     0.00000000000000     0.03680816653727
    5     0.13091633646017     1.17691098211712     0.11379187387460     0.03680816653727     0.00000000000000
    6     0.03646582067580     0.11896060919605     1.42171498222550     0.13093016878125     0.03429186100110
    7     0.00448214430270     0.01549607007591     0.13889760922385     0.14614379402122     0.00391714759631
    8     0.00445258049725     0.00882947417479     0.13952431215281     0.14066232306143     0.00511748679239
    9     0.00420375172004     0.01556716366967     0.13877845532391     1.52084993688389     0.00450680060546
   10     0.00600994884497     0.01765753399773     0.05698504210595     0.00928303955146     0.00455400041916
   11     0.00460159234691     0.01809394504938     0.05709122343492     0.81024192102494     0.00539732490398
   12     2.30478341685009     0.26782559838265     0.06164729584596     0.01941782552965     0.03265288222199
   13     0.02270131197448     0.04896908061506     0.01073879896497     0.00154585554436     0.88696979953855
   14     0.01244150661775     0.05002567180266     0.01659109047575     0.00783634234970     0.88083619073780
   15     0.01544864376616     0.05200574421374     0.01184026393822     0.00194132586292     0.88536100742144
   16     0.00036639507761     0.00091038486361     0.01079902481274     0.00246368014905     0.00025754879756
   17     0.00037427220182     0.00089673217641     0.01082295325893     0.06105434748690     0.00023658319404
   18     0.00005526401330     0.00021488351243     0.00307410566735     0.01140876459633     0.00006063126372
   19     0.78601857071315     0.07099102699030     0.01557281005974     0.00276462247138     0.02440375340089

                 6                   7                   8                   9                  10

    1     0.03646582067580     0.00448214430270     0.00445258049725     0.00420375172004     0.00600994884497
    2     0.11896060919605     0.01549607007591     0.00882947417479     0.01556716366967     0.01765753399773
    3     1.42171498222550     0.13889760922385     0.13952431215281     0.13877845532391     0.05698504210595
    4     0.13093016878125     0.14614379402122     0.14066232306143     1.52084993688389     0.00928303955146
    5     0.03429186100110     0.00391714759631     0.00511748679239     0.00450680060546     0.00455400041916
    6     0.00000000000000     1.51876223291495     0.14061783965561     0.14575570452557     0.80947834986296
    7     1.51876223291495     0.00000000000000     1.52164269100159     0.13952772549365     0.05626723060005
    8     0.14061783965561     1.52164269100159     0.00000000000000     1.52014306711140     0.01078549855181
    9     0.14575570452557     0.13952772549365     1.52014306711140     0.00000000000000     0.00240802004803
   10     0.80947834986296     0.05626723060005     0.01078549855181     0.00240802004803     0.00000000000000
   11     0.00937425816561     0.00242922837423     0.01082964556369     0.05647524011592     0.00037841925180
   12     0.02553075545865     0.00410005124694     0.00234604249436     0.00321306459059     0.00144231112790
   13     0.00165942425242     0.00026530059162     0.00054128832588     0.00021247424363     0.00001166886183
   14     0.00363624436855     0.00038627645392     0.00045949024535     0.00082929224732     0.00000742291069
   15     0.00500042620392     0.00044179219513     0.00019334371180     0.00029882476219     0.00022641942768
   16     0.06097633655754     0.83167383323145     0.05983405690094     0.01139055369690     0.00530963025238
   17     0.00247965482194     0.01137873650908     0.05978691805213     0.83174434487120     0.00024951498349
   18     0.01141125999146     0.05975153714544     0.83342198446782     0.05976754956342     0.00022067462078
   19     0.00322925906172     0.00056653246355     0.00040022343050     0.00054803153123     0.00023724568123

                11                  12                  13                  14                  15

    1     0.00460159234691     2.30478341685009     0.02270131197448     0.01244150661775     0.01544864376616
    2     0.01809394504938     0.26782559838265     0.04896908061506     0.05002567180266     0.05200574421374
    3     0.05709122343492     0.06164729584596     0.01073879896497     0.01659109047575     0.01184026393822
    4     0.81024192102494     0.01941782552965     0.00154585554436     0.00783634234970     0.00194132586292
    5     0.00539732490398     0.03265288222199     0.88696979953855     0.88083619073780     0.88536100742144
    6     0.00937425816561     0.02553075545865     0.00165942425242     0.00363624436855     0.00500042620392
    7     0.00242922837423     0.00410005124694     0.00026530059162     0.00038627645392     0.00044179219513
    8     0.01082964556369     0.00234604249436     0.00054128832588     0.00045949024535     0.00019334371180
    9     0.05647524011592     0.00321306459059     0.00021247424363     0.00082929224732     0.00029882476219
   10     0.00037841925180     0.00144231112790     0.00001166886183     0.00000742291069     0.00022641942768
   11     0.00000000000000     0.00074085814918     0.00007369643215     0.00033131050616     0.00001805196221
   12     0.00074085814918     0.00000000000000     0.00260404955584     0.00346392851003     0.00480100850654
   13     0.00007369643215     0.00260404955584     0.00000000000000     0.00931630264613     0.00852072661985
   14     0.00033131050616     0.00346392851003     0.00931630264613     0.00000000000000     0.00724818615437
   15     0.00001805196221     0.00480100850654     0.00852072661985     0.00724818615437     0.00000000000000
   16     0.00025140028485     0.00014860528758     0.00000768015399     0.00000974524709     0.00004005027434
   17     0.00531799546313     0.00011496148028     0.00000401903075     0.00004645389022     0.00000824563479
   18     0.00022057977431     0.00002588258056     0.00001270629507     0.00000925070036     0.00001019612958
   19     0.00013838848524     0.08329673244455     0.00407368023451     0.00019151882364     0.00012333544755

                16                  17                  18                  19

    1     0.00036639507761     0.00037427220182     0.00005526401330     0.78601857071315
    2     0.00091038486361     0.00089673217641     0.00021488351243     0.07099102699030
    3     0.01079902481274     0.01082295325893     0.00307410566735     0.01557281005974
    4     0.00246368014905     0.06105434748690     0.01140876459633     0.00276462247138
    5     0.00025754879756     0.00023658319404     0.00006063126372     0.02440375340089
    6     0.06097633655754     0.00247965482194     0.01141125999146     0.00322925906172
    7     0.83167383323145     0.01137873650908     0.05975153714544     0.00056653246355
    8     0.05983405690094     0.05978691805213     0.83342198446782     0.00040022343050
    9     0.01139055369690     0.83174434487120     0.05976754956342     0.00054803153123
   10     0.00530963025238     0.00024951498349     0.00022067462078     0.00023724568123
   11     0.00025140028485     0.00531799546313     0.00022057977431     0.00013838848524
   12     0.00014860528758     0.00011496148028     0.00002588258056     0.08329673244455
   13     0.00000768015399     0.00000401903075     0.00001270629507     0.00407368023451
   14     0.00000974524709     0.00004645389022     0.00000925070036     0.00019151882364
   15     0.00004005027434     0.00000824563479     0.00001019612958     0.00012333544755
   16     0.00000000000000     0.00025544489290     0.00541844069840     0.00000959145134
   17     0.00025544489290     0.00000000000000     0.00541825261641     0.00001378181713
   18     0.00541844069840     0.00541825261641     0.00000000000000     0.00001984251522
   19     0.00000959145134     0.00001378181713     0.00001984251522     0.00000000000000



  Atomic Valences: 

 #  #
 Irrep: 1
      1:    4.918738166943964
      2:    4.504621374275163
      3:    4.826507396431524
      4:    4.478991658898840
      5:    4.226990376883542
      6:    4.480275187720596
      7:    4.456129933441601
      8:    4.459588266191552
      9:    4.456220001004040
     10:    0.981511971099907
     11:    0.982005079288620
     12:    2.818155270263341
     13:    0.998227863881081
     14:    0.993666224687486
     15:    0.993527592232436
     16:    0.990122402630253
     17:    0.990203212381553
     18:    0.990521806151930
     19:    0.992598947022871


    Psi4 stopped on: Saturday, 18 November 2023 08:26AM
    Psi4 wall time for execution: 0:00:19.00

*** Psi4 exiting successfully. Buy a developer a beer!
