
    -----------------------------------------------------------------------
          Psi4: An Open-Source Ab Initio Electronic Structure Package
                               Psi4 1.6 release

                         Git: Rev {HEAD} 77475b5 


    D. G. A. Smith, L. A. Burns, A. C. Simmonett, R. M. Parrish,
    M. C. Schieber, R. Galvelis, P. Kraus, H. Kruse, R. Di Remigio,
    A. Alenaizan, A. M. James, S. Lehtola, J. P. Misiewicz, M. Scheurer,
    R. A. Shaw, J. B. Schriber, Y. Xie, Z. L. Glick, D. A. Sirianni,
    J. S. O'Brien, J. M. Waldrop, A. Kumar, E. G. Hohenstein,
    B. P. Pritchard, B. R. Brooks, H. F. Schaefer III, A. Yu. Sokolov,
    K. Patkowski, A. E. DePrince III, U. Bozkaya, R. A. King,
    F. A. Evangelista, J. M. Turney, T. D. Crawford, C. D. Sherrill,
    J. Chem. Phys. 152(18) 184108 (2020). https://doi.org/10.1063/5.0006002

                            Additional Code Authors
    E. T. Seidl, C. L. Janssen, E. F. Valeev, M. L. Leininger,
    J. F. Gonthier, R. M. Richard, H. R. McAlexander, M. Saitow, X. Wang,
    P. Verma, M. H. Lechner, and A. Jiang

             Previous Authors, Complete List of Code Contributors,
                       and Citations for Specific Modules
    https://github.com/psi4/psi4/blob/master/codemeta.json
    https://github.com/psi4/psi4/graphs/contributors
    http://psicode.org/psi4manual/master/introduction.html#citing-psifour

    -----------------------------------------------------------------------


    Psi4 started on: Saturday, 18 November 2023 08:31AM

    Process ID: 1127881
    Host:       node165.bme.utexas.edu
    PSIDATADIR: /home/liuchw/anaconda3/envs/poltype2022/share/psi4
    Memory:     500.0 MiB
    Threads:    1
    
  ==> Input File <==

--------------------------------------------------------------------------
molecule { 
0 1
 C    2.238525    0.325827    0.524993
 N    1.082372   -0.270526    0.902980
 C   -0.115945   -0.124177    0.167391
 C   -0.086750   -0.073732   -1.223255
 C    1.056560   -0.980996    2.166483
 C   -1.336657   -0.000628    0.826646
 C   -2.506512    0.145289    0.103742
 C   -2.475530    0.184519   -1.279248
 C   -1.261498    0.079905   -1.936091
 H   -1.380010    0.002102    1.905271
 H    0.853019   -0.154989   -1.742784
 O    2.425211    1.003051   -0.453891
 H    1.909474   -1.657888    2.226688
 H    0.140172   -1.561248    2.238727
 H    1.098088   -0.290430    3.013800
 H   -3.446079    0.238793    0.628276
 H   -1.225339    0.114866   -3.014580
 H   -3.390646    0.302017   -1.839730
 H    3.045228    0.117027    1.255167
}
memory 20GB
set_num_threads(5)
psi4_io.set_default_path("/scratch/liuchw/Psi4-3_24_Index_0-farH_in17")
set freeze_core True
E, wfn = energy('wb97x-d/6-311+G*',return_wfn=True)
oeprop(wfn,"WIBERG_LOWDIN_INDICES")
clean()
--------------------------------------------------------------------------

  Memory set to  18.626 GiB by Python driver.
  Threads set to 5 by Python driver.

Scratch directory: /scratch/liuchw/Psi4-3_24_Index_0-farH_in17/

*** tstart() called on node165.bme.utexas.edu
*** at Sat Nov 18 08:31:54 2023

   => Loading Basis Set <=

    Name: 6-311+G*
    Role: ORBITAL
    Keyword: BASIS
    atoms 1, 3-9       entry C          line   130 file /home/liuchw/anaconda3/envs/poltype2022/share/psi4/basis/6-311pgs.gbs 
    atoms 2            entry N          line   151 file /home/liuchw/anaconda3/envs/poltype2022/share/psi4/basis/6-311pgs.gbs 
    atoms 10-11, 13-19 entry H          line    47 file /home/liuchw/anaconda3/envs/poltype2022/share/psi4/basis/6-311pgs.gbs 
    atoms 12           entry O          line   172 file /home/liuchw/anaconda3/envs/poltype2022/share/psi4/basis/6-311pgs.gbs 

   => WB97X-D: Empirical Dispersion <=

    Chai and Head-Gordon Dispersion Correction
    Chai, J.-D.; Head-Gordon, M. (2010), J. Chem. Phys., 132: 6615-6620

        s6 =       1.000000


         ---------------------------------------------------------
                                   SCF
               by Justin Turney, Rob Parrish, Andy Simmonett
                          and Daniel G. A. Smith
                              RKS Reference
                        5 Threads,  19073 MiB Core
         ---------------------------------------------------------

  ==> Geometry <==

    Molecular point group: c1
    Full point group: C1

    Geometry (in Angstrom), charge = 0, multiplicity = 1:

       Center              X                  Y                   Z               Mass       
    ------------   -----------------  -----------------  -----------------  -----------------
         C            2.255708502359     0.296099538170     0.507965596326    12.000000000000
         N            1.099555502359    -0.300253461830     0.885952596326    14.003074004430
         C           -0.098761497641    -0.153904461830     0.150363596326    12.000000000000
         C           -0.069566497641    -0.103459461830    -1.240282403674    12.000000000000
         C            1.073743502359    -1.010723461830     2.149455596326    12.000000000000
         C           -1.319473497641    -0.030355461830     0.809618596326    12.000000000000
         C           -2.489328497641     0.115561538170     0.086714596326    12.000000000000
         C           -2.458346497641     0.154791538170    -1.296275403674    12.000000000000
         C           -1.244314497641     0.050177538170    -1.953118403674    12.000000000000
         H           -1.362826497641    -0.027625461830     1.888243596326     1.007825032230
         H            0.870202502359    -0.184716461830    -1.759811403674     1.007825032230
         O            2.442394502359     0.973323538170    -0.470918403674    15.994914619570
         H            1.926657502359    -1.687615461830     2.209660596326     1.007825032230
         H            0.157355502359    -1.590975461830     2.221699596326     1.007825032230
         H            1.115271502359    -0.320157461830     2.996772596326     1.007825032230
         H           -3.428895497641     0.209065538170     0.611248596326     1.007825032230
         H           -1.208155497641     0.085138538170    -3.031607403674     1.007825032230
         H           -3.373462497641     0.272289538170    -1.856757403674     1.007825032230
         H            3.062411502359     0.087299538170     1.238139596326     1.007825032230

  Running in c1 symmetry.

  Rotational constants: A =      0.08485  B =      0.03519  C =      0.02641 [cm^-1]
  Rotational constants: A =   2543.82310  B =   1054.82145  C =    791.83949 [MHz]
  Nuclear repulsion =  499.512154477118656

  Charge       = 0
  Multiplicity = 1
  Electrons    = 72
  Nalpha       = 36
  Nbeta        = 36

  ==> Algorithm <==

  SCF Algorithm Type is DF.
  DIIS enabled.
  MOM disabled.
  Fractional occupation disabled.
  Guess Type is SAD.
  Energy threshold   = 1.00e-06
  Density threshold  = 1.00e-06
  Integral threshold = 1.00e-12

  ==> Primary Basis <==

  Basis Set: 6-311+G*
    Blend: 6-311+G*
    Number of shells: 127
    Number of basis functions: 247
    Number of Cartesian functions: 257
    Spherical Harmonics?: true
    Max angular momentum: 2

  ==> DFT Potential <==

   => LibXC <=

    Version 5.1.5
    S. Lehtola, C. Steigemann, M. J. Oliveira, and M. A. Marques, SoftwareX 7, 1 (2018) (10.1016/j.softx.2017.11.002)

   => Composite Functional: WB97X-D <= 

    wB97X-D Hyb-GGA Exchange-Correlation Functional

    J.-D. Chai and M. Head-Gordon, Phys. Chem. Chem. Phys. 10, 6615 (2008) (10.1039/B810189B)

    Deriv               =              1
    GGA                 =           TRUE
    Meta                =          FALSE

    Exchange Hybrid     =           TRUE
    MP2 Hybrid          =          FALSE

   => Exchange-Correlation Functionals <=

    1.0000   wB97X-D range-separated functional

   => Exact (HF) Exchange <=

    0.7780            HF,LR [omega = 0.2000]
    0.2220               HF 

   => LibXC Density Thresholds  <==

    XC_HYB_GGA_XC_WB97X_D:  1.00E-14 

   => Molecular Quadrature <=

    Radial Scheme          =       TREUTLER
    Pruning Scheme         =           NONE
    Nuclear Scheme         =       TREUTLER

    Blocking Scheme        =         OCTREE
    BS radius alpha        =              1
    Pruning alpha          =              1
    Radial Points          =             75
    Spherical Points       =            302
    Total Points           =         400922
    Total Blocks           =           2988
    Max Points             =            256
    Max Functions          =            229
    Weights Tolerance      =       1.00E-15

   => Loading Basis Set <=

    Name: (6-311+G* AUX)
    Role: JKFIT
    Keyword: DF_BASIS_SCF
    atoms 1, 3-9       entry C          line   200 file /home/liuchw/anaconda3/envs/poltype2022/share/psi4/basis/heavy-aug-cc-pvtz-jkfit.gbs 
    atoms 2            entry N          line   262 file /home/liuchw/anaconda3/envs/poltype2022/share/psi4/basis/heavy-aug-cc-pvtz-jkfit.gbs 
    atoms 10-11, 13-19 entry H          line   116 file /home/liuchw/anaconda3/envs/poltype2022/share/psi4/basis/heavy-aug-cc-pvtz-jkfit.gbs 
    atoms 12           entry O          line   324 file /home/liuchw/anaconda3/envs/poltype2022/share/psi4/basis/heavy-aug-cc-pvtz-jkfit.gbs 

  ==> Integral Setup <==

  DFHelper Memory: AOs need 1.701 GiB; user supplied 11.961 GiB. Using in-core AOs.

  ==> MemDFJK: Density-Fitted J/K Matrices <==

    J tasked:                   Yes
    K tasked:                   Yes
    wK tasked:                  Yes
    Omega:                2.000E-01
    OpenMP threads:               5
    Memory [MiB]:             12247
    Algorithm:                 Core
    Schwarz Cutoff:           1E-12
    Mask sparsity (%):       6.2942
    Fitting Condition:        1E-10

   => Auxiliary Basis Set <=

  Basis Set: (6-311+G* AUX)
    Blend: HEAVY-AUG-CC-PVTZ-JKFIT
    Number of shells: 390
    Number of basis functions: 1310
    Number of Cartesian functions: 1625
    Spherical Harmonics?: true
    Max angular momentum: 4

  Cached 100.0% of DFT collocation blocks in 2.009 [GiB].

  Minimum eigenvalue in the overlap matrix is 2.2467314176E-06.
  Reciprocal condition number of the overlap matrix is 1.6405354649E-07.
    Using symmetric orthogonalization.

  ==> Pre-Iterations <==

  SCF Guess: Superposition of Atomic Densities via on-the-fly atomic UHF (no occupation information).

   -------------------------
    Irrep   Nso     Nmo    
   -------------------------
     A        247     247 
   -------------------------
    Total     247     247
   -------------------------

  ==> Iterations <==

                           Total Energy        Delta E     RMS |[F,P]|

   @DF-RKS iter SAD:  -439.71453297638107   -4.39715e+02   0.00000e+00 
   @DF-RKS iter   1:  -439.74400216560349   -2.94692e-02   3.91989e-03 DIIS/ADIIS
   @DF-RKS iter   2:  -439.88324014224088   -1.39238e-01   3.55740e-03 DIIS/ADIIS
   @DF-RKS iter   3:  -440.18256874187182   -2.99329e-01   8.26148e-04 DIIS/ADIIS
   @DF-RKS iter   4:  -440.19648042377730   -1.39117e-02   2.23080e-04 DIIS/ADIIS
   @DF-RKS iter   5:  -440.19764154043855   -1.16112e-03   6.28389e-05 DIIS
   @DF-RKS iter   6:  -440.19773903732812   -9.74969e-05   2.07038e-05 DIIS
   @DF-RKS iter   7:  -440.19775014392434   -1.11066e-05   4.45081e-06 DIIS
   @DF-RKS iter   8:  -440.19775094679642   -8.02872e-07   1.88777e-06 DIIS
   @DF-RKS iter   9:  -440.19775111470824   -1.67912e-07   5.56047e-07 DIIS
  Energy and wave function converged.


  ==> Post-Iterations <==

   Electrons on quadrature grid:
      Ntotal   =   72.0000427444 ; deviation = 4.274e-05 

    Orbital Energies [Eh]
    ---------------------

    Doubly Occupied:                                                      

       1A    -19.223115     2A    -14.483105     3A    -10.389836  
       4A    -10.337460     5A    -10.333642     6A    -10.294941  
       7A    -10.292999     8A    -10.289851     9A    -10.287518  
      10A    -10.286847    11A     -1.158311    12A     -1.070813  
      13A     -0.966075    14A     -0.865546    15A     -0.859620  
      16A     -0.821792    17A     -0.751749    18A     -0.711933  
      19A     -0.671995    20A     -0.616553    21A     -0.608899  
      22A     -0.576393    23A     -0.575223    24A     -0.545829  
      25A     -0.536861    26A     -0.516245    27A     -0.509442  
      28A     -0.501844    29A     -0.488025    30A     -0.466300  
      31A     -0.450742    32A     -0.437642    33A     -0.379875  
      34A     -0.353340    35A     -0.335075    36A     -0.306093  

    Virtual:                                                              

      37A      0.041577    38A      0.052222    39A      0.055993  
      40A      0.068502    41A      0.076077    42A      0.081133  
      43A      0.089576    44A      0.092505    45A      0.097405  
      46A      0.107727    47A      0.118662    48A      0.122355  
      49A      0.124927    50A      0.131219    51A      0.146562  
      52A      0.150291    53A      0.158276    54A      0.160504  
      55A      0.174172    56A      0.177632    57A      0.191233  
      58A      0.197986    59A      0.199849    60A      0.210107  
      61A      0.212310    62A      0.218642    63A      0.222309  
      64A      0.230226    65A      0.233003    66A      0.247637  
      67A      0.248696    68A      0.254833    69A      0.256623  
      70A      0.261824    71A      0.268005    72A      0.271508  
      73A      0.280072    74A      0.282936    75A      0.287001  
      76A      0.294319    77A      0.298031    78A      0.305811  
      79A      0.306650    80A      0.311105    81A      0.316685  
      82A      0.332564    83A      0.343697    84A      0.347965  
      85A      0.353945    86A      0.364770    87A      0.384585  
      88A      0.391317    89A      0.393670    90A      0.407548  
      91A      0.414473    92A      0.418207    93A      0.430066  
      94A      0.433510    95A      0.463237    96A      0.488430  
      97A      0.512955    98A      0.534214    99A      0.557514  
     100A      0.569268   101A      0.596478   102A      0.597568  
     103A      0.607300   104A      0.616607   105A      0.622744  
     106A      0.626056   107A      0.643147   108A      0.657514  
     109A      0.674367   110A      0.685531   111A      0.693660  
     112A      0.699932   113A      0.713573   114A      0.729829  
     115A      0.733480   116A      0.743408   117A      0.759940  
     118A      0.778356   119A      0.782216   120A      0.789392  
     121A      0.800153   122A      0.804979   123A      0.823961  
     124A      0.832424   125A      0.847650   126A      0.861984  
     127A      0.885910   128A      0.916059   129A      0.920427  
     130A      0.939437   131A      0.947575   132A      0.961662  
     133A      0.963539   134A      0.967174   135A      0.981665  
     136A      1.002687   137A      1.030100   138A      1.051087  
     139A      1.072632   140A      1.106471   141A      1.132121  
     142A      1.144034   143A      1.187192   144A      1.218228  
     145A      1.244923   146A      1.258375   147A      1.274704  
     148A      1.287110   149A      1.304233   150A      1.326371  
     151A      1.348921   152A      1.366633   153A      1.418979  
     154A      1.451008   155A      1.472918   156A      1.506750  
     157A      1.582034   158A      1.608565   159A      1.626526  
     160A      1.657103   161A      1.664511   162A      1.675730  
     163A      1.690294   164A      1.711768   165A      1.732366  
     166A      1.772087   167A      1.829537   168A      1.853272  
     169A      1.863126   170A      1.875493   171A      1.890108  
     172A      1.904724   173A      1.933530   174A      1.950446  
     175A      2.019411   176A      2.027791   177A      2.047021  
     178A      2.090569   179A      2.107347   180A      2.117698  
     181A      2.236342   182A      2.249652   183A      2.301329  
     184A      2.373321   185A      2.389301   186A      2.391807  
     187A      2.432823   188A      2.484416   189A      2.493953  
     190A      2.503632   191A      2.519089   192A      2.568624  
     193A      2.603885   194A      2.641651   195A      2.667689  
     196A      2.686101   197A      2.771419   198A      2.783198  
     199A      2.819648   200A      2.865152   201A      2.882449  
     202A      2.918536   203A      2.935307   204A      2.963664  
     205A      2.999343   206A      3.011323   207A      3.036996  
     208A      3.045414   209A      3.095143   210A      3.184408  
     211A      3.249716   212A      3.294696   213A      3.333811  
     214A      3.393390   215A      3.414614   216A      3.417811  
     217A      3.432392   218A      3.456414   219A      3.471679  
     220A      3.485109   221A      3.499989   222A      3.595251  
     223A      3.640561   224A      3.695567   225A      3.737948  
     226A      3.774472   227A      3.904754   228A      4.002384  
     229A      4.041612   230A      4.129747   231A      4.157357  
     232A      4.880135   233A      4.904276   234A      5.085258  
     235A      5.176638   236A      5.304537   237A      5.869254  
     238A     23.482831   239A     23.688441   240A     23.990236  
     241A     23.997294   242A     24.027968   243A     24.185410  
     244A     24.212086   245A     24.315967   246A     35.685226  
     247A     50.131625  

    Final Occupation by Irrep:
              A 
    DOCC [    36 ]

  @DF-RKS Final Energy:  -440.19775111470824

   => Energetics <=

    Nuclear Repulsion Energy =            499.5121544771186564
    One-Electron Energy =               -1585.6472781810434753
    Two-Electron Energy =                 688.8998222867094228
    DFT Exchange-Correlation Energy =     -42.9523730171261562
    Empirical Dispersion Energy =          -0.0100766803666042
    VV10 Nonlocal Energy =                  0.0000000000000000
    Total Energy =                       -440.1977511147081259

Computation Completed


Properties will be evaluated at   0.000000,   0.000000,   0.000000 [a0]

Properties computed using the SCF density matrix


 Multipole Moments:

 ------------------------------------------------------------------------------------
     Multipole            Electronic (a.u.)      Nuclear  (a.u.)        Total (a.u.)
 ------------------------------------------------------------------------------------

 L = 1.  Multiply by 2.5417464519 to convert [e a0] to [Debye]
 Dipole X            :          1.5206133           -2.0927410           -0.5721277
 Dipole Y            :          2.0824807           -2.9543208           -0.8718401
 Dipole Z            :         -3.1402877            4.2302652            1.0899775
 Magnitude           :                                                    1.5084715

 ------------------------------------------------------------------------------------

*** tstop() called on node165.bme.utexas.edu at Sat Nov 18 08:32:06 2023
Module time:
	user time   =      52.38 seconds =       0.87 minutes
	system time =       2.75 seconds =       0.05 minutes
	total time  =         12 seconds =       0.20 minutes
Total time:
	user time   =      52.38 seconds =       0.87 minutes
	system time =       2.75 seconds =       0.05 minutes
	total time  =         12 seconds =       0.20 minutes


Properties will be evaluated at   0.000000,   0.000000,   0.000000 [a0]
OEProp: No title given, name of density matrix used for the following properties is 'SCF density'


  Wiberg Bond Indices using Orthogonal Lowdin Orbitals:

  Irrep: 1 Size: 19 x 19

                 1                   2                   3                   4                   5

    1     0.00000000000000     1.40907984583385     0.10726836977869     0.04899172352010     0.13488883488637
    2     1.40907984583385     0.00000000000000     1.13092778707156     0.11929193441948     1.16428944704635
    3     0.10726836977869     1.13092778707156     0.00000000000000     1.39715412972022     0.10627624984596
    4     0.04899172352010     0.11929193441948     1.39715412972022     0.00000000000000     0.02033130943488
    5     0.13488883488637     1.16428944704635     0.10627624984596     0.02033130943488     0.00000000000000
    6     0.03004509446904     0.12066726032185     1.40602579289702     0.12842830169417     0.05706880997942
    7     0.00388119530623     0.01577383105916     0.13689983954039     0.14327047009271     0.00671807933466
    8     0.00800427757439     0.01298746229756     0.13505435498659     0.13993394905155     0.00344698819144
    9     0.00530123836378     0.01613735063195     0.13820353189608     1.52314924770653     0.00339020159894
   10     0.00169524821797     0.01532734215360     0.05558430336406     0.00952346576136     0.01629296593158
   11     0.01052656442319     0.01475373584596     0.05412676209036     0.79843362148810     0.00123929725623
   12     2.31496593996953     0.24901506817579     0.05056637437019     0.07190525341791     0.03103987182430
   13     0.02059496821313     0.04890034582096     0.00893086740895     0.00105452619539     0.88860625954289
   14     0.01039676886914     0.04424346376540     0.01893332641562     0.00187613409388     0.87754997346421
   15     0.01714331012695     0.05112936553083     0.00821463893266     0.00102008431366     0.88853879493892
   16     0.00042743212304     0.00089453049861     0.01083149739763     0.00256154680924     0.00025594615930
   17     0.00025646971601     0.00082702341986     0.01090645911240     0.06103225771501     0.00042842866860
   18     0.00007929479110     0.00023537279692     0.00288456218422     0.01117040599594     0.00012369247769
   19     0.78392434442559     0.07013438866625     0.01444558222746     0.00436465164150     0.02772697080174

                 6                   7                   8                   9                  10

    1     0.03004509446904     0.00388119530623     0.00800427757439     0.00530123836378     0.00169524821797
    2     0.12066726032185     0.01577383105916     0.01298746229756     0.01613735063195     0.01532734215360
    3     1.40602579289702     0.13689983954039     0.13505435498659     0.13820353189608     0.05558430336406
    4     0.12842830169417     0.14327047009271     0.13993394905155     1.52314924770653     0.00952346576136
    5     0.05706880997942     0.00671807933466     0.00344698819144     0.00339020159894     0.01629296593158
    6     0.00000000000000     1.52197375355311     0.14004756244711     0.14300127100559     0.81011212390556
    7     1.52197375355311     0.00000000000000     1.52148835341546     0.14035385243233     0.05653565177588
    8     0.14004756244711     1.52148835341546     0.00000000000000     1.51614140268475     0.01064516997585
    9     0.14300127100559     0.14035385243233     1.51614140268475     0.00000000000000     0.00244931139003
   10     0.81011212390556     0.05653565177588     0.01064516997585     0.00244931139003     0.00000000000000
   11     0.00920769936650     0.00239473492764     0.01046305625634     0.05629563528085     0.00041043676706
   12     0.01055112631210     0.00280730177147     0.00544302160589     0.00861513726352     0.00020659670691
   13     0.00235785484765     0.00032701077735     0.00044448975193     0.00021615689244     0.00034156342524
   14     0.01770719994645     0.00166420334181     0.00050877468949     0.00057915870773     0.00262699246717
   15     0.00467574667805     0.00023028848715     0.00029507152534     0.00032057600853     0.00061025138300
   16     0.06137945679254     0.83167362598676     0.05946059844292     0.01149774433925     0.00565213785286
   17     0.00254488297218     0.01149399189794     0.05964427152368     0.83130583357980     0.00023481547285
   18     0.01130909011954     0.06023727500970     0.83351722862699     0.05993466434810     0.00020502866379
   19     0.00203627024234     0.00057050051785     0.00026150734525     0.00056894131546     0.00007877130387

                11                  12                  13                  14                  15

    1     0.01052656442319     2.31496593996953     0.02059496821313     0.01039676886914     0.01714331012695
    2     0.01475373584596     0.24901506817579     0.04890034582096     0.04424346376540     0.05112936553083
    3     0.05412676209036     0.05056637437019     0.00893086740895     0.01893332641562     0.00821463893266
    4     0.79843362148810     0.07190525341791     0.00105452619539     0.00187613409388     0.00102008431366
    5     0.00123929725623     0.03103987182430     0.88860625954289     0.87754997346421     0.88853879493892
    6     0.00920769936650     0.01055112631210     0.00235785484765     0.01770719994645     0.00467574667805
    7     0.00239473492764     0.00280730177147     0.00032701077735     0.00166420334181     0.00023028848715
    8     0.01046305625634     0.00544302160589     0.00044448975193     0.00050877468949     0.00029507152534
    9     0.05629563528085     0.00861513726352     0.00021615689244     0.00057915870773     0.00032057600853
   10     0.00041043676706     0.00020659670691     0.00034156342524     0.00262699246717     0.00061025138300
   11     0.00000000000000     0.01954794221154     0.00002328298180     0.00005984287167     0.00007891213143
   12     0.01954794221154     0.00000000000000     0.00261839636187     0.00191568927138     0.00337395166620
   13     0.00002328298180     0.00261839636187     0.00000000000000     0.00987893049832     0.00813817829664
   14     0.00005984287167     0.00191568927138     0.00987893049832     0.00000000000000     0.00819787859912
   15     0.00007891213143     0.00337395166620     0.00813817829664     0.00819787859912     0.00000000000000
   16     0.00020566598754     0.00009190116492     0.00001826338625     0.00002868477125     0.00004216610521
   17     0.00555605215577     0.00025248484218     0.00000565125225     0.00006415081052     0.00000900030259
   18     0.00022683075461     0.00010683445497     0.00000625829811     0.00002267890532     0.00003160746825
   19     0.00017938012034     0.08276125634121     0.00266097498789     0.00070631811127     0.00098320209457

                16                  17                  18                  19

    1     0.00042743212304     0.00025646971601     0.00007929479110     0.78392434442559
    2     0.00089453049861     0.00082702341986     0.00023537279692     0.07013438866625
    3     0.01083149739763     0.01090645911240     0.00288456218422     0.01444558222746
    4     0.00256154680924     0.06103225771501     0.01117040599594     0.00436465164150
    5     0.00025594615930     0.00042842866860     0.00012369247769     0.02772697080174
    6     0.06137945679254     0.00254488297218     0.01130909011954     0.00203627024234
    7     0.83167362598676     0.01149399189794     0.06023727500970     0.00057050051785
    8     0.05946059844292     0.05964427152368     0.83351722862699     0.00026150734525
    9     0.01149774433925     0.83130583357980     0.05993466434810     0.00056894131546
   10     0.00565213785286     0.00023481547285     0.00020502866379     0.00007877130387
   11     0.00020566598754     0.00555605215577     0.00022683075461     0.00017938012034
   12     0.00009190116492     0.00025248484218     0.00010683445497     0.08276125634121
   13     0.00001826338625     0.00000565125225     0.00000625829811     0.00266097498789
   14     0.00002868477125     0.00006415081052     0.00002267890532     0.00070631811127
   15     0.00004216610521     0.00000900030259     0.00003160746825     0.00098320209457
   16     0.00000000000000     0.00026790360896     0.00536552207653     0.00002367188114
   17     0.00026790360896     0.00000000000000     0.00532565115705     0.00000793027618
   18     0.00536552207653     0.00532565115705     0.00000000000000     0.00003260100867
   19     0.00002367188114     0.00000793027618     0.00003260100867     0.00000000000000



  Atomic Valences: 

 #  #
 Irrep: 1
      1:    4.907470920608091
      2:    4.484615555355941
      3:    4.793234429240075
      4:    4.483493013071631
      5:    4.228212121383488
      6:    4.479139297550211
      7:    4.458293959227596
      8:    4.457787540392531
      9:    4.457461255445677
     10:    0.988532176518664
     11:    0.983729452916934
     12:    2.855784147731879
     13:    0.995123978939035
     14:    0.996960169599774
     15:    0.993033024589095
     16:    0.990678295383945
     17:    0.990163258483833
     18:    0.990814599137482
     19:    0.991467263308566


    Psi4 stopped on: Saturday, 18 November 2023 08:32AM
    Psi4 wall time for execution: 0:00:11.99

*** Psi4 exiting successfully. Buy a developer a beer!
