19
 energy: -28.689377167615 gnorm: 0.067140171238 xtb: 6.5.0 (97a52f5)
C            2.21707972000000        0.62740873000000        0.73302717000000
N            1.05091583000000       -0.07878039000000        1.05134733000000
C           -0.13940651000000       -0.05032011000000        0.20792571000000
C           -0.04953243000000       -0.02356229000000       -1.20767995000000
C            1.10373887000000       -1.05485085000000        2.16789583000000
C           -1.42833088000000       -0.00130649000000        0.80213414000000
C           -2.57596236000000        0.02638752000000       -0.00177063000000
C           -2.47694574000000        0.02769841000000       -1.39729869000000
C           -1.21046461000000        0.00384928000000       -1.99097955000000
H           -1.54482986000000        0.01610306000000        1.87772533000000
H            0.91481645000000       -0.02281541000000       -1.69658905000000
O            2.41269734000000        1.31116748000000       -0.26963258000000
H            0.21384533000000       -1.68335229000000        2.19024424000000
H            1.18584198000000       -0.53366826000000        3.12238284000000
H            1.96675130000000       -1.71310766000000        2.05836035000000
H           -3.55814669000000        0.05309344000000        0.47438244000000
H           -1.11640365000000        0.01548052000000       -3.07839158000000
H           -3.37602219000000        0.05288336000000       -2.01613330000000
H            3.03403810000000        0.42647695000000        1.44363495000000
19
 energy: -28.697704640257 gnorm: 0.028171790843 xtb: 6.5.0 (97a52f5)
C            2.18340842523290        0.57740050531309        0.70043870597993
N            1.04047055554212       -0.10735823442334        1.01540980148107
C           -0.13972258626976       -0.05592695026761        0.20236134619298
C           -0.04782637730778       -0.01028274280546       -1.19020684845849
C            1.09393508618206       -1.03683197672230        2.14574163412109
C           -1.40577369237716       -0.01433465976669        0.79566184707282
C           -2.54647232437708        0.02201579405372        0.00602849215138
C           -2.45108309670085        0.02907009311872       -1.37693641545444
C           -1.19681018384670        0.01728886836545       -1.96665254462831
H           -1.51174507859067        0.00111821459797        1.87038281426579
H            0.91706929478449       -0.01906606204738       -1.67112109821187
O            2.37092333981870        1.26564514833730       -0.27444040332697
H            0.19787984722067       -1.65253344255680        2.15547457993925
H            1.16592794914620       -0.50297277436262        3.09590324116658
H            1.95920324042079       -1.69469983807638        2.04371040918526
H           -3.52077306845261        0.05268420447228        0.47967530893337
H           -1.10600645414201        0.02285233608337       -3.04605792152128
H           -3.34467727881367        0.05179997745157       -1.98902519440692
H            2.96575240253033        0.45291653923511        1.47423724551875
19
 energy: -28.698577460394 gnorm: 0.121162826107 xtb: 6.5.0 (97a52f5)
C            2.15324807611289        0.57526375090761        0.68946189222076
N            1.03276062984161       -0.11297811603835        0.99887711503918
C           -0.13247803102172       -0.06714276658795        0.19767845968864
C           -0.03813384021077       -0.01950181572451       -1.18590051565000
C            1.07301300283070       -1.01367414419897        2.13664811228914
C           -1.38543418379801       -0.03475347745141        0.79639925777753
C           -2.52550085869407        0.01368146363168        0.01696878989264
C           -2.43214410672981        0.03323025826242       -1.36244289807401
C           -1.18404926817756        0.02385092992064       -1.95683095040864
H           -1.47924959997269       -0.02915467690314        1.87235413857220
H            0.92835762644298       -0.01707453542941       -1.66054915153090
O            2.33813183443246        1.26047989911229       -0.28060492877923
H            0.17989237035740       -1.63262557749071        2.13379224618425
H            1.12516958088114       -0.46827134047666        3.08223427822942
H            1.94580752760266       -1.66583616964334        2.05609759337239
H           -3.49439343501495        0.04240452873268        0.49264031485655
H           -1.09738079796082        0.04613751500947       -3.03226003461069
H           -3.32457780873963        0.05937311566654       -1.96824236622600
H            2.94064128181820        0.40537615870116        1.44426364715679
19
 energy: -28.698068183580 gnorm: 0.204436844749 xtb: 6.5.0 (97a52f5)
C            2.14831785664377        0.55770946241197        0.67005265813435
N            1.03334810392915       -0.12303135912767        0.98547788835879
C           -0.12526764292946       -0.07820381127344        0.19055956013463
C           -0.03236311225247       -0.01779426722185       -1.18991686526644
C            1.05847471871505       -1.00020209457457        2.13618373509701
C           -1.37279530182724       -0.05142219609768        0.79774433001934
C           -2.51528702675198        0.00419685063018        0.02540630207508
C           -2.42422989958306        0.03790247723264       -1.35402256856289
C           -1.17965243170973        0.03443004198693       -1.95571883093833
H           -1.45608534994596       -0.05801303033143        1.87504972969373
H            0.93496984885647       -0.01290893994130       -1.66192817330566
O            2.33025367493034        1.25386064971805       -0.29295786851093
H            0.16740029674317       -1.62331845474790        2.12785285083417
H            1.08936351266706       -0.43685427661482        3.07338218844434
H            1.93579775581330       -1.64921403830013        2.08499316672125
H           -3.48090622068163        0.02752777746693        0.50457279147640
H           -1.09750451913778        0.06962112272293       -3.02981491258348
H           -3.31780470764515        0.06968897184771       -1.95479071644521
H            2.92765044416616        0.39481011421349        1.43845973462387
19
 energy: -28.699282620934 gnorm: 0.010842965144 xtb: 6.5.0 (97a52f5)
C            2.16591470537222        0.55165559839450        0.66787481726183
N            1.04459716059725       -0.13689960906419        0.98060191758218
C           -0.12496627066956       -0.07940325654678        0.18832487309381
C           -0.03579162669168       -0.01190107842530       -1.19769225025360
C            1.06082146794431       -1.00583156362943        2.14373001501142
C           -1.37675314666555       -0.05298395663684        0.79719405964958
C           -2.52186967945812        0.00199743571953        0.02386326239683
C           -2.43241971556153        0.03949257819849       -1.35773518379362
C           -1.18689956643132        0.03862220594567       -1.96222519375325
H           -1.46029750415003       -0.05978237635558        1.87437929791187
H            0.93047003717575       -0.01321116010011       -1.67321463686300
O            2.34721891530646        1.25463307337240       -0.29541555742901
H            0.17190992050323       -1.63165063510473        2.13719953822973
H            1.08510083216808       -0.43343029477536        3.07624696822094
H            1.93958716182900       -1.65495180284094        2.10572902854683
H           -3.48852130178551        0.02461988179233        0.50494869613980
H           -1.10616839097674        0.07211568840990       -3.03821211939528
H           -3.32820060188806        0.07594848751223       -1.95849923639658
H            2.93994760338177        0.41974578413426        1.45348670383954
19
 energy: -28.699445128395 gnorm: 0.010890099551 xtb: 6.5.0 (97a52f5)
C            2.16754171171243        0.55104194453048        0.66994603684420
N            1.04659833311616       -0.14122168214994        0.97779021659690
C           -0.12299946669204       -0.08423167788965        0.18448243315721
C           -0.03666075121175       -0.01252498626739       -1.20191807493661
C            1.05762441112126       -0.99679295217810        2.15062084589958
C           -1.37468945411888       -0.06264587896261        0.79431374069034
C           -2.52094821064695       -0.00390524479464        0.02327151754921
C           -2.43363193726480        0.04290097951667       -1.35779221668910
C           -1.18930627058149        0.04440201114684       -1.96404379008296
H           -1.45632579591487       -0.07383305169747        1.87125734671234
H            0.92899322895417       -0.00958294451308       -1.67853858153578
O            2.34823989283054        1.25609478271005       -0.29066845703066
H            0.17548480403421       -1.63209193189925        2.14007115694219
H            1.06867637507713       -0.41399286232931        3.07695324851482
H            1.94300054233932       -1.63799501962305        2.13071228753258
H           -3.48689054018100        0.01402901240408        0.50614419020917
H           -1.11105212124891        0.08587481989278       -3.04013433638205
H           -3.33072600769572        0.08382672588551       -1.95679093385941
H            2.95075125637119        0.38943295621814        1.43490836986806
19
 energy: -28.699586813904 gnorm: 0.009084315582 xtb: 6.5.0 (97a52f5)
C            2.17213647377260        0.53959205258454        0.66396359455847
N            1.05156532714085       -0.15486002832093        0.96896903343026
C           -0.11992636118763       -0.09175691599607        0.17927904624859
C           -0.03725644592978       -0.00925267917152       -1.20710335204840
C            1.05169675112443       -0.98777942681505        2.15754167616005
C           -1.37085057485953       -0.07439457226705        0.79161146674046
C           -2.51901627874201       -0.01028135530561        0.02408801413069
C           -2.43478417899569        0.04698379731392       -1.35656154372284
C           -1.19196806141891        0.05320074658927       -1.96569752916965
H           -1.44944530961558       -0.09177722818641        1.86841261390353
H            0.92765976430287       -0.00202414201003       -1.68525621947093
O            2.35098711436464        1.25189611719856       -0.29126214617744
H            0.17922961443647       -1.63642352196020        2.14369666415025
H            1.04490129251730       -0.38841750364934        3.07350996795481
H            1.94607039189220       -1.61737968517218        2.16413361276828
H           -3.48374027395833        0.00308924525128        0.50959474497007
H           -1.11700695677468        0.10343240815800       -3.04171504902959
H           -3.33359077773175        0.09256529723535       -1.95293878843016
H            2.95701848966254        0.37237239452354        1.42631919303359
19
 energy: -28.699716208999 gnorm: 0.001816845317 xtb: 6.5.0 (97a52f5)
C            2.17780998888677        0.52266515455250        0.65432305624966
N            1.05750921446746       -0.17382056516134        0.95852464172003
C           -0.11688193962591       -0.10066212994929        0.17421686405581
C           -0.03786921368594       -0.00380908562973       -1.21177938308979
C            1.04477021864621       -0.97667745371175        2.16657121100787
C           -1.36712086094632       -0.08939435912761        0.78873635723891
C           -2.51699113173591       -0.01870189068912        0.02446742732891
C           -2.43611126015694        0.05192835840985       -1.35565039939496
C           -1.19433329273751        0.06540267613855       -1.96690415857584
H           -1.44441095356635       -0.11629867023627        1.86520344043730
H            0.92587116841285        0.00883242128472       -1.69240237927492
O            2.35284722936934        1.24433911196014       -0.29455975666208
H            0.18516760482268       -1.64192572675865        2.15284444713821
H            1.01773816733935       -0.35576449234710        3.06715739784057
H            1.94951842852632       -1.58960994864190        2.20455430100479
H           -3.48041600010983       -0.00962822292931        0.51272079997166
H           -1.12212026622884        0.12690575628093       -3.04255458898799
H           -3.33636709688612        0.10312936920675       -1.94952548472049
H            2.96506999520869        0.35187469734870        1.41464120671239
19
 energy: -28.699782633592 gnorm: 0.003253365741 xtb: 6.5.0 (97a52f5)
C            2.18286032694509        0.50390528087607        0.64347994658430
N            1.06287572551107       -0.19401343114298        0.94799227127080
C           -0.11445745623268       -0.11040627766271        0.16984603249271
C           -0.03866236140725       -0.00012897198802       -1.21540094069675
C            1.03942911487917       -0.96342537159953        2.17671381678445
C           -1.36394793655836       -0.10740036988171        0.78583092129364
C           -2.51505478261099       -0.02822087904651        0.02397206354973
C           -2.43733902395447        0.05949250608349       -1.35538304430153
C           -1.19612382538847        0.07974562480328       -1.96773162710623
H           -1.44247723315478       -0.14781645850045        1.86182826924926
H            0.92336462381852        0.01873393464926       -1.69919002382622
O            2.35363475926192        1.23391560165392       -0.29968860581619
H            0.19143538053177       -1.64243130821693        2.16865955503147
H            0.99296015588837       -0.31810752077126        3.05865087987591
H            1.95248362606499       -1.55976041878323        2.24622016716005
H           -3.47740758586032       -0.02688931427532        0.51463000709449
H           -1.12530229047850        0.15584003558031       -3.04262433320224
H           -3.33843036838101        0.11768329589787       -1.94716349249972
H            2.97383915112600        0.32806904232452        1.39994313706212
19
 energy: -28.699791823560 gnorm: 0.001698143788 xtb: 6.5.0 (97a52f5)
C            2.18289083201869        0.50185360957159        0.64176282181182
N            1.06322139810817       -0.19640652066093        0.94753052310282
C           -0.11436721361906       -0.11190768505586        0.16982673630004
C           -0.03871559664759       -0.00085883109812       -1.21535038483774
C            1.03978948799016       -0.96098199891453        2.17866262452839
C           -1.36403382749090       -0.11147091381119        0.78532830188524
C           -2.51502012202133       -0.03100284566653        0.02334018172883
C           -2.43732562563238        0.06163465074404       -1.35558042252732
C           -1.19596560430674        0.08263593070566       -1.96764469392420
H           -1.44392926006376       -0.15460275992876        1.86099937653013
H            0.92298476366050        0.01713301369116       -1.69960400440624
O            2.35281336973088        1.23204015739425       -0.30133224410898
H            0.19175495113578       -1.63975085199310        2.17408543494014
H            0.99215520522227       -0.31182905269117        3.05717643318449
H            1.95251468535061       -1.55592655504167        2.25082146192611
H           -3.47740454373579       -0.03141647925794        0.51385910104574
H           -1.12463365737304        0.16155714587271       -3.04217820413809
H           -3.33826512327254        0.12360318073321       -1.94723054322508
H            2.97521588094613        0.32448180540726        1.39611250018396
19
 energy: -28.699797094855 gnorm: 0.002062506502 xtb: 6.5.0 (97a52f5)
C            2.18295050453788        0.49873140654749        0.63995446469129
N            1.06318388039244       -0.19968875723098        0.94612248032777
C           -0.11479604741692       -0.11464494213996        0.16930863017349
C           -0.03931747272436       -0.00308382099994       -1.21586490754440
C            1.04183715668260       -0.95754086382177        2.18149823887139
C           -1.36453752279345       -0.11710244135803        0.78432424678631
C           -2.51540399396622       -0.03373314617536        0.02215071330605
C           -2.43769647106734        0.06608261600077       -1.35601381419684
C           -1.19621222966520        0.08642976598544       -1.96792308640688
H           -1.44644403892214       -0.16484472274419        1.85961184230973
H            0.92198303600781        0.01330347735197       -1.70077693662358
O            2.35279195956440        1.22929028633474       -0.30293723386067
H            0.19297943403131       -1.63572734036889        2.18217413688544
H            0.99220572475122       -0.30249938065085        3.05520093504189
H            1.95459273486337       -1.55140649562849        2.25740452948099
H           -3.47789602077765       -0.03829226554637        0.51244576455695
H           -1.12399316660344        0.16952276703271       -3.04190830323103
H           -3.33841147048402        0.13310607309123       -1.94726430607490
H            2.97586400358979        0.32088278432056        1.39307760550705
19
 energy: -28.699797852324 gnorm: 0.000840384536 xtb: 6.5.0 (97a52f5)
C            2.18261609295219        0.49842947455852        0.63898242851218
N            1.06332800996912       -0.20034975890797        0.94599259838512
C           -0.11475304626764       -0.11530373081391        0.16939979241685
C           -0.03917525416360       -0.00350268182216       -1.21582045376605
C            1.04169008934611       -0.95717822337336        2.18217518549769
C           -1.36451257699777       -0.11806233488574        0.78431330630849
C           -2.51532179461644       -0.03410453309241        0.02207971857612
C           -2.43747559971590        0.06676034089949       -1.35597891831184
C           -1.19595444054104        0.08687584881054       -1.96787614426607
H           -1.44645747441388       -0.16649676980541        1.85957361416057
H            0.92224320179466        0.01274636751685       -1.70061013417294
O            2.35173317169035        1.22903081088055       -0.30401556595114
H            0.19301761301988       -1.63582988594414        2.18302308432960
H            0.99180708659046       -0.30137595139045        3.05562337998040
H            1.95478137491150       -1.55092865336129        2.25851375324255
H           -3.47783468089463       -0.03865219338204        0.51226364669695
H           -1.12367472573288        0.17067090015476       -3.04185108575558
H           -3.33813700205950        0.13479841942561       -1.94719318178019
H            2.97575995512909        0.32125755453264        1.39198997589736
