
    -----------------------------------------------------------------------
          Psi4: An Open-Source Ab Initio Electronic Structure Package
                               Psi4 1.3.2 release

                         Git: Rev {HEAD} ecbda83 


    R. M. Parrish, L. A. Burns, D. G. A. Smith, A. C. Simmonett,
    A. E. DePrince III, E. G. Hohenstein, U. Bozkaya, A. Yu. Sokolov,
    R. Di Remigio, R. M. Richard, J. F. Gonthier, A. M. James,
    H. R. McAlexander, A. Kumar, M. Saitow, X. Wang, B. P. Pritchard,
    P. Verma, H. F. Schaefer III, K. Patkowski, R. A. King, E. F. Valeev,
    F. A. Evangelista, J. M. Turney, T. D. Crawford, and C. D. Sherrill,
    J. Chem. Theory Comput. 13(7) pp 3185--3197 (2017).
    (doi: 10.1021/acs.jctc.7b00174)


                         Additional Contributions by
    P. Kraus, H. Kruse, M. H. Lechner, M. C. Schieber, R. A. Shaw,
    A. Alenaizan, R. Galvelis, Z. L. Glick, S. Lehtola, and J. P. Misiewicz

    -----------------------------------------------------------------------


    Psi4 started on: Thursday, 04 November 2021 08:27PM

    Process ID: 66388
    Host:       node44.bme.utexas.edu
    PSIDATADIR: /home/bdw2292/miniconda3/envs/amoebamdpoltype/share/psi4
    Memory:     500.0 MiB
    Threads:    1
    
  ==> Input File <==

--------------------------------------------------------------------------
molecule { 
0 1
 C   -1.072100   -0.839100   -0.048900
 C   -1.245900    0.527000   -0.009600
 C    1.078700    0.826500    0.048600
 C   -0.177500    1.397800    0.040300
 C    1.246200   -0.540500    0.009100
 C    0.180800   -1.413300   -0.040700
 H   -1.929300   -1.477000   -0.087000
 H   -2.249300    0.962200   -0.016900
 H   -0.324900    2.471300    0.070900
 H    2.246100   -0.937200    0.017600
 H    0.315000   -2.496600   -0.072000
 H    1.932300    1.518800    0.088400
}
set {
  geom_maxiter 400
  g_convergence GAU
  dynamic_level 1
}
memory 8.333333333333334GB
set_num_threads(1)
psi4_io.set_default_path("/scratch/bdw2292/Psi4-21_Index_0-farH_in17")
for _ in range(1):
  try:
    set opt_coordinates both
    optimize('mp2/6-31G*')
    break
  except OptimizationConvergenceError:
    break
  else:
    try:
      set opt_coordinates cartesian
      optimize('mp2/6-31G*')
      break
    except OptimizationConvergenceError:
      pass
clean()
--------------------------------------------------------------------------

  Memory set to   7.761 GiB by Python driver.
  Threads set to 1 by Python driver.
gradient() will perform analytic gradient computation.
    SCF Algorithm Type (re)set to DF.

*** tstart() called on node44.bme.utexas.edu
*** at Thu Nov  4 20:27:45 2021

   => Loading Basis Set <=

    Name: 6-31G*
    Role: ORBITAL
    Keyword: BASIS
    atoms 1-6  entry C          line   111 file /home/bdw2292/miniconda3/envs/amoebamdpoltype/share/psi4/basis/6-31gs.gbs 
    atoms 7-12 entry H          line    44 file /home/bdw2292/miniconda3/envs/amoebamdpoltype/share/psi4/basis/6-31gs.gbs 


         ---------------------------------------------------------
                                   SCF
               by Justin Turney, Rob Parrish, Andy Simmonett
                          and Daniel G. A. Smith
                              RHF Reference
                        1 Threads,   7947 MiB Core
         ---------------------------------------------------------

  ==> Geometry <==

    Molecular point group: c1
    Full point group: C1

    Geometry (in Angstrom), charge = 0, multiplicity = 1:

       Center              X                  Y                   Z               Mass       
    ------------   -----------------  -----------------  -----------------  -----------------
         C           -1.073537864861    -0.833239742040    -0.048728408734    12.000000000000
         C           -1.247337864861     0.532860257960    -0.009428408734    12.000000000000
         C            1.077262135139     0.832360257960     0.048771591266    12.000000000000
         C           -0.178937864861     1.403660257960     0.040471591266    12.000000000000
         C            1.244762135139    -0.534639742040     0.009271591266    12.000000000000
         C            0.179362135139    -1.407439742040    -0.040528408734    12.000000000000
         H           -1.930737864861    -1.471139742040    -0.086828408734     1.007825032230
         H           -2.250737864861     0.968060257960    -0.016728408734     1.007825032230
         H           -0.326337864861     2.477160257960     0.071071591266     1.007825032230
         H            2.244662135139    -0.931339742040     0.017771591266     1.007825032230
         H            0.313562135139    -2.490739742040    -0.071828408734     1.007825032230
         H            1.930862135139     1.524660257960     0.088571591266     1.007825032230

  Running in c1 symmetry.

  Rotational constants: A =      0.20144  B =      0.18770  C =      0.09717 [cm^-1]
  Rotational constants: A =   6039.14080  B =   5627.18313  C =   2912.94425 [MHz]
  Nuclear repulsion =  205.537334006745937

  Charge       = 0
  Multiplicity = 1
  Electrons    = 42
  Nalpha       = 21
  Nbeta        = 21

  ==> Algorithm <==

  SCF Algorithm Type is DF.
  DIIS enabled.
  MOM disabled.
  Fractional occupation disabled.
  Guess Type is SAD.
  Energy threshold   = 1.00e-10
  Density threshold  = 1.00e-10
  Integral threshold = 0.00e+00

  ==> Primary Basis <==

  Basis Set: 6-31G*
    Blend: 6-31G*
    Number of shells: 48
    Number of basis function: 102
    Number of Cartesian functions: 102
    Spherical Harmonics?: false
    Max angular momentum: 2

   => Loading Basis Set <=

    Name: (6-31G* AUX)
    Role: JKFIT
    Keyword: DF_BASIS_SCF
    atoms 1-6  entry C          line   121 file /home/bdw2292/miniconda3/envs/amoebamdpoltype/share/psi4/basis/cc-pvdz-jkfit.gbs 
    atoms 7-12 entry H          line    51 file /home/bdw2292/miniconda3/envs/amoebamdpoltype/share/psi4/basis/cc-pvdz-jkfit.gbs 

  ==> Pre-Iterations <==

   -------------------------------------------------------
    Irrep   Nso     Nmo     Nalpha   Nbeta   Ndocc  Nsocc
   -------------------------------------------------------
     A        102     102       0       0       0       0
   -------------------------------------------------------
    Total     102     102      21      21      21       0
   -------------------------------------------------------

  ==> Integral Setup <==

  DFHelper Memory: AOs need 0.055 GiB; user supplied 5.821 GiB. Using in-core AOs.

  ==> MemDFJK: Density-Fitted J/K Matrices <==

    J tasked:                   Yes
    K tasked:                   Yes
    wK tasked:                   No
    OpenMP threads:               1
    Memory [MiB]:              5960
    Algorithm:                 Core
    Schwarz Cutoff:           1E-12
    Mask sparsity (%):       0.3076
    Fitting Condition:        1E-10

   => Auxiliary Basis Set <=

  Basis Set: (6-31G* AUX)
    Blend: CC-PVDZ-JKFIT
    Number of shells: 198
    Number of basis function: 636
    Number of Cartesian functions: 636
    Spherical Harmonics?: false
    Max angular momentum: 3

  Minimum eigenvalue in the overlap matrix is 4.6804324784E-04.
  Using Symmetric Orthogonalization.

  SCF Guess: Superposition of Atomic Densities via on-the-fly atomic UHF.

  ==> Iterations <==

                           Total Energy        Delta E     RMS |[F,P]|

   @DF-RHF iter SAD:  -230.13538933812342   -2.30135e+02   0.00000e+00 
   @DF-RHF iter   1:  -230.60043027871103   -4.65041e-01   3.71797e-03 DIIS
   @DF-RHF iter   2:  -230.68529765020224   -8.48674e-02   1.53635e-03 DIIS
   @DF-RHF iter   3:  -230.69759707993023   -1.22994e-02   3.16037e-04 DIIS
   @DF-RHF iter   4:  -230.69848036707998   -8.83287e-04   3.45036e-05 DIIS
   @DF-RHF iter   5:  -230.69849096092381   -1.05938e-05   1.25365e-05 DIIS
   @DF-RHF iter   6:  -230.69849194051858   -9.79595e-07   2.73594e-06 DIIS
   @DF-RHF iter   7:  -230.69849201681558   -7.62970e-08   8.60866e-07 DIIS
   @DF-RHF iter   8:  -230.69849203544291   -1.86273e-08   4.84747e-07 DIIS
   @DF-RHF iter   9:  -230.69849204110818   -5.66527e-09   2.37076e-07 DIIS
   @DF-RHF iter  10:  -230.69849204266848   -1.56030e-09   2.29666e-08 DIIS
   @DF-RHF iter  11:  -230.69849204267749   -9.00968e-12   5.90079e-09 DIIS
   @DF-RHF iter  12:  -230.69849204267746    2.84217e-14   3.36028e-09 DIIS
   @DF-RHF iter  13:  -230.69849204267757   -1.13687e-13   5.48149e-10 DIIS
   @DF-RHF iter  14:  -230.69849204267729    2.84217e-13   2.65372e-10 DIIS
   @DF-RHF iter  15:  -230.69849204267712    1.70530e-13   5.73863e-11 DIIS
  Energy and wave function converged.


  ==> Post-Iterations <==

    Orbital Energies [Eh]
    ---------------------

    Doubly Occupied:                                                      

       1A    -11.230574     2A    -11.229199     3A    -11.228122  
       4A    -11.226979     5A    -11.226116     6A    -11.225038  
       7A     -1.153470     8A     -1.017647     9A     -1.008849  
      10A     -0.820383    11A     -0.818587    12A     -0.706937  
      13A     -0.634215    14A     -0.618675    15A     -0.589666  
      16A     -0.573473    17A     -0.502032    18A     -0.498463  
      19A     -0.476884    20A     -0.334799    21A     -0.330274  

    Virtual:                                                              

      22A      0.148358    23A      0.154469    24A      0.231758  
      25A      0.289204    26A      0.294370    27A      0.331809  
      28A      0.334712    29A      0.338913    30A      0.375157  
      31A      0.474600    32A      0.478219    33A      0.498629  
      34A      0.511503    35A      0.655202    36A      0.741030  
      37A      0.753660    38A      0.786888    39A      0.791385  
      40A      0.798067    41A      0.828692    42A      0.829491  
      43A      0.841308    44A      0.848751    45A      0.856203  
      46A      0.866119    47A      0.913780    48A      0.916392  
      49A      0.999953    50A      1.102085    51A      1.105875  
      52A      1.114490    53A      1.118570    54A      1.134038  
      55A      1.188507    56A      1.202461    57A      1.205486  
      58A      1.259129    59A      1.308374    60A      1.316121  
      61A      1.386630    62A      1.416872    63A      1.476666  
      64A      1.519854    65A      1.655570    66A      1.680021  
      67A      1.720768    68A      1.765104    69A      1.786249  
      70A      1.788892    71A      1.811628    72A      2.055271  
      73A      2.107936    74A      2.162279    75A      2.181297  
      76A      2.298203    77A      2.335903    78A      2.409134  
      79A      2.440694    80A      2.465442    81A      2.490523  
      82A      2.499673    83A      2.509068    84A      2.636210  
      85A      2.652050    86A      2.698871    87A      2.889789  
      88A      2.890176    89A      3.037999    90A      3.093043  
      91A      3.098002    92A      3.100256    93A      3.122219  
      94A      3.123744    95A      3.423016    96A      3.840941  
      97A      4.531802    98A      4.548273    99A      4.551513  
     100A      4.758205   101A      4.768351   102A      5.111685  

    Final Occupation by Irrep:
              A 
    DOCC [    21 ]

  @DF-RHF Final Energy:  -230.69849204267712

   => Energetics <=

    Nuclear Repulsion Energy =            205.5373340067459367
    One-Electron Energy =                -717.5708900944287052
    Two-Electron Energy =                 281.3350640450056517
    Total Energy =                       -230.6984920426771168

Computation Completed


Properties will be evaluated at   0.000000,   0.000000,   0.000000 [a0]

Properties computed using the SCF density matrix

  Nuclear Dipole Moment: [e a0]
     X:    -0.0176      Y:     0.0719      Z:     0.0019

  Electronic Dipole Moment: [e a0]
     X:     0.0114      Y:    -0.0696      Z:    -0.0020

  Dipole Moment: [e a0]
     X:    -0.0062      Y:     0.0022      Z:    -0.0001     Total:     0.0066

  Dipole Moment: [D]
     X:    -0.0157      Y:     0.0057      Z:    -0.0001     Total:     0.0167


*** tstop() called on node44.bme.utexas.edu at Thu Nov  4 20:27:48 2021
Module time:
	user time   =       3.14 seconds =       0.05 minutes
	system time =       0.10 seconds =       0.00 minutes
	total time  =          3 seconds =       0.05 minutes
Total time:
	user time   =       3.14 seconds =       0.05 minutes
	system time =       0.10 seconds =       0.00 minutes
	total time  =          3 seconds =       0.05 minutes

*** tstart() called on node44.bme.utexas.edu
*** at Thu Nov  4 20:27:48 2021


  //>>>>>>>>>>>>>>>>>>>>>>>>>>>>>>>>>>>//
  //               DFMP2               //
  //<<<<<<<<<<<<<<<<<<<<<<<<<<<<<<<<<<<//

   => Loading Basis Set <=

    Name: (6-31G* AUX)
    Role: RIFIT
    Keyword: DF_BASIS_MP2
    atoms 1-6  entry C          line   159 file /home/bdw2292/miniconda3/envs/amoebamdpoltype/share/psi4/basis/cc-pvdz-ri.gbs 
    atoms 7-12 entry H          line    19 file /home/bdw2292/miniconda3/envs/amoebamdpoltype/share/psi4/basis/cc-pvdz-ri.gbs 

	 --------------------------------------------------------
	                          DF-MP2                         
	      2nd-Order Density-Fitted Moller-Plesset Theory     
	              RMP2 Wavefunction,   1 Threads             
	                                                         
	        Rob Parrish, Justin Turney, Andy Simmonett,      
	           Ed Hohenstein, and C. David Sherrill          
	 --------------------------------------------------------

   => Auxiliary Basis Set <=

  Basis Set: (6-31G* AUX)
    Blend: CC-PVDZ-RI
    Number of shells: 144
    Number of basis function: 420
    Number of Cartesian functions: 486
    Spherical Harmonics?: true
    Max angular momentum: 3

	 --------------------------------------------------------
	                 NBF =   102, NAUX =   420
	 --------------------------------------------------------
	   CLASS    FOCC     OCC    AOCC    AVIR     VIR    FVIR
	   PAIRS       0      21      21      81      81       0
	 --------------------------------------------------------

  DFHelper Memory: AOs need 0.055 GiB; user supplied 5.821 GiB. Using in-core AOs.


         ------------------------------------------------------------
                                     CPHF                           
                                  Rob Parrish                       
         ------------------------------------------------------------

  ==> Geometry <==

    Molecular point group: c1
    Full point group: C1

    Geometry (in Angstrom), charge = 0, multiplicity = 1:

       Center              X                  Y                   Z               Mass       
    ------------   -----------------  -----------------  -----------------  -----------------
         C           -1.073537864861    -0.833239742040    -0.048728408734    12.000000000000
         C           -1.247337864861     0.532860257960    -0.009428408734    12.000000000000
         C            1.077262135139     0.832360257960     0.048771591266    12.000000000000
         C           -0.178937864861     1.403660257960     0.040471591266    12.000000000000
         C            1.244762135139    -0.534639742040     0.009271591266    12.000000000000
         C            0.179362135139    -1.407439742040    -0.040528408734    12.000000000000
         H           -1.930737864861    -1.471139742040    -0.086828408734     1.007825032230
         H           -2.250737864861     0.968060257960    -0.016728408734     1.007825032230
         H           -0.326337864861     2.477160257960     0.071071591266     1.007825032230
         H            2.244662135139    -0.931339742040     0.017771591266     1.007825032230
         H            0.313562135139    -2.490739742040    -0.071828408734     1.007825032230
         H            1.930862135139     1.524660257960     0.088571591266     1.007825032230

  Nuclear repulsion =  205.537334006745937
  Reference energy  = -230.698492042677117

  ==> Basis Set <==

  Basis Set: 6-31G*
    Blend: 6-31G*
    Number of shells: 48
    Number of basis function: 102
    Number of Cartesian functions: 102
    Spherical Harmonics?: false
    Max angular momentum: 2

  ==> CGRSolver (by Rob Parrish) <==

   Number of roots    =         1
   Preconditioning    =    JACOBI
   Convergence cutoff =     1E-06
   Maximum iterations =       100

  ==> CPHFRHamiltonian (by Rob Parrish) <== 

  ==> MemDFJK: Density-Fitted J/K Matrices <==

    J tasked:                   Yes
    K tasked:                   Yes
    wK tasked:                   No
    OpenMP threads:               1
    Memory [MiB]:              5960
    Algorithm:                 Core
    Schwarz Cutoff:           1E-12
    Mask sparsity (%):       0.3076
    Fitting Condition:        1E-10

   => Auxiliary Basis Set <=

  Basis Set: (6-31G* AUX)
    Blend: CC-PVDZ-JKFIT
    Number of shells: 198
    Number of basis function: 636
    Number of Cartesian functions: 636
    Spherical Harmonics?: false
    Max angular momentum: 3

  ==> CPHF Iterations <==

  => Iterations <=

             Iter  Converged  Remaining    Residual
  CGR           1          0          1   8.434E-02
  CGR           2          0          1   9.919E-03
  CGR           3          0          1   2.021E-03
  CGR           4          0          1   6.015E-04
  CGR           5          0          1   3.099E-04
  CGR           6          0          1   1.177E-04
  CGR           7          0          1   4.093E-05
  CGR           8          0          1   7.209E-06
  CGR           9          0          1   1.543E-06
  CGR          10          1          0   4.247E-07

    CGRSolver converged.

  ==> DFCorrGrad: Density-Fitted Correlated Gradients <==

    OpenMP threads:              1
    Integrals threads:           1
    Memory [GiB]:            5.821
    Schwarz Cutoff:          0E+00
    Fitting Condition:       1E-10

   => Auxiliary Basis Set <=

  Basis Set: (6-31G* AUX)
    Blend: CC-PVDZ-JKFIT
    Number of shells: 198
    Number of basis function: 636
    Number of Cartesian functions: 636
    Spherical Harmonics?: false
    Max angular momentum: 3

	-----------------------------------------------------------
	 ==================> DF-MP2 Energies <==================== 
	-----------------------------------------------------------
	 Reference Energy          =    -230.6984920426771168 [Eh]
	 Singles Energy            =      -0.0000000000000000 [Eh]
	 Same-Spin Energy          =      -0.2062937856299578 [Eh]
	 Opposite-Spin Energy      =      -0.5767773476383299 [Eh]
	 Correlation Energy        =      -0.7830711332682877 [Eh]
	 Total Energy              =    -231.4815631759454106 [Eh]
	-----------------------------------------------------------
	 ================> DF-SCS-MP2 Energies <================== 
	-----------------------------------------------------------
	 SCS Same-Spin Scale       =       0.3333333333333333 [-]
	 SCS Opposite-Spin Scale   =       1.2000000000000000 [-]
	 SCS Same-Spin Energy      =      -0.0687645952099859 [Eh]
	 SCS Opposite-Spin Energy  =      -0.6921328171659958 [Eh]
	 SCS Correlation Energy    =      -0.7608974123759817 [Eh]
	 SCS Total Energy          =    -231.4593894550530990 [Eh]
	-----------------------------------------------------------


  -Total Gradient:
     Atom            X                  Y                   Z
    ------   -----------------  -----------------  -----------------
       1        0.011411786936     0.010737888386     0.000579933638
       2        0.025653330950    -0.017829430448    -0.000031485533
       3       -0.018305421567    -0.027737236954    -0.001266850982
       4        0.000534208903     0.004037450308     0.000151103228
       5       -0.022210945370     0.008747014215    -0.000195686851
       6        0.000285865764     0.001732565805     0.000066143629
       7        0.012633582536     0.006644710738     0.000473117480
       8       -0.001125316304     0.006068373728     0.000170278141
       9       -0.000655956000    -0.001097065176    -0.000052890217
      10       -0.009031791472     0.002686331748    -0.000103434043
      11       -0.000248476452    -0.004748888653    -0.000156531063
      12        0.001059132077     0.010758286304     0.000366302573


*** tstop() called on node44.bme.utexas.edu at Thu Nov  4 20:27:56 2021
Module time:
	user time   =       7.59 seconds =       0.13 minutes
	system time =       0.18 seconds =       0.00 minutes
	total time  =          8 seconds =       0.13 minutes
Total time:
	user time   =      10.73 seconds =       0.18 minutes
	system time =       0.28 seconds =       0.00 minutes
	total time  =         11 seconds =       0.18 minutes

			-----------------------------------------
			 OPTKING 2.0: for geometry optimizations 
			  - R.A. King,  Bethel University        
			-----------------------------------------
	At level 1: Red. Int., RFO, no backsteps, dynamic trust

	Internal coordinates to be generated automatically.
	Detected frag 1 with atoms:  1 2 3 4 5 6 7 8 9 10 11 12
	---Fragment 1 Bond Connectivity---
	 1 : 2 6 7
	 2 : 1 4 8
	 3 : 4 5 12
	 4 : 2 3 9
	 5 : 3 6 10
	 6 : 1 5 11
	 7 : 1
	 8 : 2
	 9 : 4
	 10 : 5
	 11 : 6
	 12 : 3

	---Fragment 1 Geometry and Gradient---
	 C          -2.0286925499       -1.5745949093       -0.0920833470
	 C          -2.3571269505        1.0069599507       -0.0178171103
	 C           2.0357304007        1.5729329253        0.0921649502
	 C          -0.3381435581        2.6525334607        0.0764802234
	 C           2.3522595268       -1.0103226882        0.0175207682
	 C           0.3389453127       -2.6596756505       -0.0765875928
	 H          -3.6485657846       -2.7800512047       -0.1640819124
	 H          -4.2532781448        1.8293687605       -0.0316121110
	 H          -0.6166891890        4.6811544564        0.1343058428
	 H           4.2417966796       -1.7599770422        0.0335834403
	 H           0.5925465587       -4.7068159622       -0.1357360205
	 H           3.6488006214        2.8811903219        0.1673760500
	             0.0114117869        0.0107378884        0.0005799336
	             0.0256533310       -0.0178294304       -0.0000314855
	            -0.0183054216       -0.0277372370       -0.0012668510
	             0.0005342089        0.0040374503        0.0001511032
	            -0.0222109454        0.0087470142       -0.0001956869
	             0.0002858658        0.0017325658        0.0000661436
	             0.0126335825        0.0066447107        0.0004731175
	            -0.0011253163        0.0060683737        0.0001702781
	            -0.0006559560       -0.0010970652       -0.0000528902
	            -0.0090317915        0.0026863317       -0.0001034340
	            -0.0002484765       -0.0047488887       -0.0001565311
	             0.0010591321        0.0107582863        0.0003663026

	Previous optimization step data not found.  Starting new optimization.

	---Fragment 1 Intrafragment Coordinates---
	 - Coordinate -           - BOHR/RAD -       - ANG/DEG -
	 R(1,2)           =         2.603423	       1.377672
	 R(1,6)           =         2.604486	       1.378235
	 R(1,7)           =         2.020470	       1.069187
	 R(2,4)           =         2.606357	       1.379225
	 R(2,8)           =         2.066866	       1.093738
	 R(3,4)           =         2.607884	       1.380033
	 R(3,5)           =         2.603646	       1.377790
	 R(3,12)          =         2.078266	       1.099771
	 R(4,9)           =         2.048471	       1.084004
	 R(5,6)           =         2.604353	       1.378164
	 R(5,10)          =         2.032877	       1.075752
	 R(6,11)          =         2.063636	       1.092029
	 B(1,2,4)         =         2.128658	     121.963139
	 B(1,2,8)         =         2.106102	     120.670734
	 B(1,6,5)         =         2.025419	     116.047973
	 B(1,6,11)        =         2.123316	     121.657065
	 B(2,1,6)         =         2.126608	     121.845676
	 B(2,1,7)         =         2.084590	     119.438210
	 B(2,4,3)         =         2.030826	     116.357743
	 B(2,4,9)         =         2.118747	     121.395265
	 B(3,4,9)         =         2.133613	     122.246991
	 B(3,5,6)         =         2.135778	     122.371090
	 B(3,5,10)        =         2.069913	     118.597271
	 B(4,2,8)         =         2.048425	     117.366126
	 B(4,3,5)         =         2.119081	     121.414379
	 B(4,3,12)        =         2.033241	     116.496128
	 B(5,3,12)        =         2.130864	     122.089493
	 B(5,6,11)        =         2.134450	     122.294962
	 B(6,1,7)         =         2.071987	     118.716115
	 B(6,5,10)        =         2.077494	     119.031639
	 D(1,2,4,3)       =         0.000166	       0.009487
	 D(1,2,4,9)       =         3.141534	     179.996637
	 D(1,6,5,3)       =        -0.000000	      -0.000000
	 D(1,6,5,10)      =         3.141572	     179.998838
	 D(2,1,6,5)       =         0.000036	       0.002037
	 D(2,1,6,11)      =        -3.141528	    -179.996321
	 D(2,4,3,5)       =        -0.000131	      -0.007508
	 D(2,4,3,12)      =        -3.141552	    -179.997642
	 D(3,4,2,8)       =         3.141593	     180.000000
	 D(3,5,6,11)      =         3.141562	     179.998246
	 D(4,2,1,6)       =        -0.000123	      -0.007050
	 D(4,2,1,7)       =         3.141566	     179.998466
	 D(4,3,5,6)       =         0.000053	       0.003044
	 D(4,3,5,10)      =        -3.141521	    -179.995899
	 D(5,3,4,9)       =        -3.141497	    -179.994539
	 D(5,6,1,7)       =         3.141533	     179.996560
	 D(6,1,2,8)       =        -3.141548	    -179.997440
	 D(6,5,3,12)      =         3.141464	     179.992622
	 D(7,1,2,8)       =         0.000141	       0.008075
	 D(7,1,6,11)      =        -0.000031	      -0.001798
	 D(8,2,4,9)       =        -0.000221	      -0.012670
	 D(9,4,3,12)      =         0.000268	       0.015327
	 D(10,5,3,12)     =        -0.000110	      -0.006321
	 D(10,5,6,11)     =        -0.000049	      -0.002815

	Current energy   :      -231.4815631759

	Generating empirical Hessian (Schlegel '84) for each fragment.
	Taking RFO optimization step.
	Going to follow RFO solution 1.
	Using RFO vector 1.
	Norm of target step-size    0.18864
	Projected energy change by RFO approximation:        -0.0099166821

	Back-transformation to cartesian coordinates...
	Could not converge backtransformation.
	Using first guess instead.

	--- Internal Coordinate Step in ANG or DEG, aJ/ANG or AJ/DEG ---
	 ---------------------------------------------------------------------------
	   Coordinate                Previous        Force       Change         New 
	   ----------                --------       ------       ------       ------
	    1 R(1,2)          =      1.377672     0.111004     0.014147     1.391819
	    2 R(1,6)          =      1.378235     0.170484     0.022527     1.400762
	    3 R(1,7)          =      1.069187     0.116248     0.019477     1.088663
	    4 R(2,4)          =      1.379225     0.162715     0.021399     1.400624
	    5 R(2,8)          =      1.093738    -0.028389    -0.004990     1.088749
	    6 R(3,4)          =      1.380033     0.163410     0.021477     1.401510
	    7 R(3,5)          =      1.377790     0.107170     0.013611     1.391401
	    8 R(3,12)         =      1.099771    -0.062677    -0.011125     1.088646
	    9 R(4,9)          =      1.084004     0.008228     0.001461     1.085465
	   10 R(5,6)          =      1.378164     0.161093     0.021270     1.399435
	   11 R(5,10)         =      1.075752     0.077332     0.013270     1.089022
	   12 R(6,11)         =      1.092029    -0.038597    -0.006948     1.085081
	   13 B(1,2,4)        =    121.963139    -0.000561    -1.797206   120.165933
	   14 B(1,2,8)        =    120.670734    -0.000123    -0.875064   119.795670
	   15 B(1,6,5)        =    116.047973     0.001179     3.808124   119.856097
	   16 B(1,6,11)       =    121.657065    -0.000524    -1.612756   120.044309
	   17 B(2,1,6)        =    121.845676    -0.000567    -1.804322   120.041353
	   18 B(2,1,7)        =    119.438210     0.000113     0.161372   119.599582
	   19 B(2,4,3)        =    116.357743     0.001041     3.341437   119.699179
	   20 B(2,4,9)        =    121.395265    -0.000458    -1.395315   119.999949
	   21 B(3,4,9)        =    122.246991    -0.000583    -1.946120   120.300871
	   22 B(3,5,6)        =    122.371090    -0.000704    -2.278754   120.092336
	   23 B(3,5,10)       =    118.597271     0.000288     0.860718   119.457989
	   24 B(4,2,8)        =    117.366126     0.000683     2.672270   120.038396
	   25 B(4,3,5)        =    121.414379    -0.000389    -1.269278   120.145101
	   26 B(4,3,12)       =    116.496128     0.000802     3.325823   119.821951
	   27 B(5,3,12)       =    122.089493    -0.000414    -2.056545   120.032948
	   28 B(5,6,11)       =    122.294962    -0.000655    -2.195368   120.099594
	   29 B(6,1,7)        =    118.716115     0.000454     1.642950   120.359065
	   30 B(6,5,10)       =    119.031639     0.000417     1.418036   120.449674
	   31 D(1,2,4,3)      =      0.009487    -0.000000    -0.005453     0.004034
	   32 D(1,2,4,9)      =    179.996637     0.000000     0.001272   179.997909
	   33 D(1,6,5,3)      =      0.000000    -0.000000    -0.002720    -0.002720
	   34 D(1,6,5,10)     =    179.998838    -0.000000     0.000315   179.999153
	   35 D(2,1,6,5)      =      0.002037     0.000000     0.001141     0.003178
	   36 D(2,1,6,11)     =   -179.996321    -0.000000    -0.001935  -179.998255
	   37 D(2,4,3,5)      =     -0.007508     0.000000     0.003935    -0.003573
	   38 D(2,4,3,12)     =   -179.997642     0.000000    -0.000535  -179.998177
	   39 D(3,4,2,8)      =    180.000000    -0.000000    -0.001266   179.998734
	   40 D(3,5,6,11)     =    179.998246     0.000000     0.000468   179.998714
	   41 D(4,2,1,6)      =     -0.007050     0.000000     0.003203    -0.003847
	   42 D(4,2,1,7)      =    179.998466     0.000000     0.001534   180.000000
	   43 D(4,3,5,6)      =      0.003044    -0.000000    -0.000115     0.002929
	   44 D(4,3,5,10)     =   -179.995899    -0.000000    -0.003026  -179.998925
	   45 D(5,3,4,9)      =   -179.994539    -0.000000    -0.002891  -179.997430
	   46 D(5,6,1,7)      =    179.996560     0.000000     0.003440   180.000000
	   47 D(6,1,2,8)      =   -179.997440    -0.000000    -0.001119  -179.998560
	   48 D(6,5,3,12)     =    179.992622     0.000000     0.004900   179.997522
	   49 D(7,1,2,8)      =      0.008075    -0.000000    -0.003105     0.004971
	   50 D(7,1,6,11)     =     -0.001798     0.000000    -0.000015    -0.001813
	   51 D(8,2,4,9)      =     -0.012670     0.000000     0.005279    -0.007391
	   52 D(9,4,3,12)     =      0.015327    -0.000000    -0.007361     0.007966
	   53 D(10,5,3,12)    =     -0.006321     0.000000     0.001988    -0.004332
	   54 D(10,5,6,11)    =     -0.002815     0.000000     0.002815     0.000000
	 ---------------------------------------------------------------------------
	Successfully symmetrized geometry.

  ==> Convergence Check <==

  Measures of convergence in internal coordinates in au.
  Criteria marked as inactive (o), active & met (*), and active & unmet ( ).
  --------------------------------------------------------------------------------------------- ~
   Step     Total Energy     Delta E     MAX Force     RMS Force      MAX Disp      RMS Disp    ~
  --------------------------------------------------------------------------------------------- ~
    Convergence Criteria             o    4.50e-04 *    3.00e-04 *    1.80e-03 *    1.20e-03 *  ~
  --------------------------------------------------------------------------------------------- ~
      1    -231.48156318   -2.31e+02 o    2.07e-02      8.05e-03      6.65e-02      2.56e-02    ~
  ---------------------------------------------------------------------------------------------

	Writing optimization data to binary file.
	Structure for next step:
	Cartesian Geometry (in Angstrom)
	    C    -1.1132298700  -0.8399258354  -0.0497820513
	    C    -1.2913849546   0.5398735071  -0.0101170246
	    C     1.1111520052   0.8485656064   0.0500120102
	    C    -0.1807633002   1.3917844545   0.0400310591
	    C     1.2894997610  -0.5307877032   0.0103553904
	    C     0.1788789135  -1.3807472833  -0.0397173084
	    H    -1.9829934742  -1.4935237367  -0.0886227582
	    H    -2.2974740002   0.9559208953  -0.0180891790
	    H    -0.3228213101   2.4674720865   0.0708528618
	    H     2.2983453676  -0.9408259786   0.0186125890
	    H     0.3178272494  -2.4564503769  -0.0706679184
	    H     1.9758092345   1.5088674597   0.0889914246
			--------------------------
			 OPTKING Finished Execution 
			--------------------------

    Structure for next step:
    Molecular point group: c1
    Full point group: C1

    Geometry (in Angstrom), charge = 0, multiplicity = 1:

    C           -1.112184801513    -0.844883594688    -0.049916206053
    C           -1.290339886768     0.534915753292    -0.010251179182
    C            1.112197082475     0.843607853741     0.049877855906
    C           -0.179718228042     1.386826703979     0.039896904718
    C            1.290544838994    -0.535745461191     0.010221235879
    C            0.179923987061    -1.385705044687    -0.039851463071
    H           -1.981948409114    -1.498481498560    -0.088756913065
    H           -2.296428936333     0.950963143062    -0.018223333587
    H           -0.321776238514     2.462514340282     0.070718707524
    H            2.299390449532    -0.945783738233     0.018478434536
    H            0.318872323532    -2.461408142520    -0.070802073264
    H            1.976854315160     1.503909709646     0.088857270364

gradient() will perform analytic gradient computation.
    SCF Algorithm Type (re)set to DF.

*** tstart() called on node44.bme.utexas.edu
*** at Thu Nov  4 20:27:57 2021

   => Loading Basis Set <=

    Name: 6-31G*
    Role: ORBITAL
    Keyword: BASIS
    atoms 1-6  entry C          line   111 file /home/bdw2292/miniconda3/envs/amoebamdpoltype/share/psi4/basis/6-31gs.gbs 
    atoms 7-12 entry H          line    44 file /home/bdw2292/miniconda3/envs/amoebamdpoltype/share/psi4/basis/6-31gs.gbs 


         ---------------------------------------------------------
                                   SCF
               by Justin Turney, Rob Parrish, Andy Simmonett
                          and Daniel G. A. Smith
                              RHF Reference
                        1 Threads,   7947 MiB Core
         ---------------------------------------------------------

  ==> Geometry <==

    Molecular point group: c1
    Full point group: C1

    Geometry (in Angstrom), charge = 0, multiplicity = 1:

       Center              X                  Y                   Z               Mass       
    ------------   -----------------  -----------------  -----------------  -----------------
         C           -1.112184801513    -0.844883594688    -0.049916206053    12.000000000000
         C           -1.290339886768     0.534915753292    -0.010251179182    12.000000000000
         C            1.112197082475     0.843607853741     0.049877855906    12.000000000000
         C           -0.179718228042     1.386826703979     0.039896904718    12.000000000000
         C            1.290544838994    -0.535745461191     0.010221235879    12.000000000000
         C            0.179923987061    -1.385705044687    -0.039851463071    12.000000000000
         H           -1.981948409114    -1.498481498560    -0.088756913065     1.007825032230
         H           -2.296428936333     0.950963143062    -0.018223333587     1.007825032230
         H           -0.321776238514     2.462514340282     0.070718707524     1.007825032230
         H            2.299390449532    -0.945783738233     0.018478434536     1.007825032230
         H            0.318872323532    -2.461408142520    -0.070802073264     1.007825032230
         H            1.976854315160     1.503909709646     0.088857270364     1.007825032230

  Running in c1 symmetry.

  Rotational constants: A =      0.18992  B =      0.18895  C =      0.09472 [cm^-1]
  Rotational constants: A =   5693.59005  B =   5664.45858  C =   2839.49348 [MHz]
  Nuclear repulsion =  203.050698358326059

  Charge       = 0
  Multiplicity = 1
  Electrons    = 42
  Nalpha       = 21
  Nbeta        = 21

  ==> Algorithm <==

  SCF Algorithm Type is DF.
  DIIS enabled.
  MOM disabled.
  Fractional occupation disabled.
  Guess Type is READ.
  Energy threshold   = 1.00e-10
  Density threshold  = 1.00e-10
  Integral threshold = 0.00e+00

  ==> Primary Basis <==

  Basis Set: 6-31G*
    Blend: 6-31G*
    Number of shells: 48
    Number of basis function: 102
    Number of Cartesian functions: 102
    Spherical Harmonics?: false
    Max angular momentum: 2

   => Loading Basis Set <=

    Name: (6-31G* AUX)
    Role: JKFIT
    Keyword: DF_BASIS_SCF
    atoms 1-6  entry C          line   121 file /home/bdw2292/miniconda3/envs/amoebamdpoltype/share/psi4/basis/cc-pvdz-jkfit.gbs 
    atoms 7-12 entry H          line    51 file /home/bdw2292/miniconda3/envs/amoebamdpoltype/share/psi4/basis/cc-pvdz-jkfit.gbs 

   => Loading Basis Set <=

    Name: 6-31G*
    Role: ORBITAL
    Keyword: BASIS
    atoms 1-6  entry C          line   111 file /home/bdw2292/miniconda3/envs/amoebamdpoltype/share/psi4/basis/6-31gs.gbs 
    atoms 7-12 entry H          line    44 file /home/bdw2292/miniconda3/envs/amoebamdpoltype/share/psi4/basis/6-31gs.gbs 

  Reading orbitals from file 180, no projection.

  ==> Pre-Iterations <==

   -------------------------------------------------------
    Irrep   Nso     Nmo     Nalpha   Nbeta   Ndocc  Nsocc
   -------------------------------------------------------
     A        102     102       0       0       0       0
   -------------------------------------------------------
    Total     102     102      21      21      21       0
   -------------------------------------------------------

  ==> Integral Setup <==

  DFHelper Memory: AOs need 0.055 GiB; user supplied 5.821 GiB. Using in-core AOs.

  ==> MemDFJK: Density-Fitted J/K Matrices <==

    J tasked:                   Yes
    K tasked:                   Yes
    wK tasked:                   No
    OpenMP threads:               1
    Memory [MiB]:              5960
    Algorithm:                 Core
    Schwarz Cutoff:           1E-12
    Mask sparsity (%):       0.3460
    Fitting Condition:        1E-10

   => Auxiliary Basis Set <=

  Basis Set: (6-31G* AUX)
    Blend: CC-PVDZ-JKFIT
    Number of shells: 198
    Number of basis function: 636
    Number of Cartesian functions: 636
    Spherical Harmonics?: false
    Max angular momentum: 3

  Minimum eigenvalue in the overlap matrix is 5.2475450129E-04.
  Using Symmetric Orthogonalization.

  SCF Guess: Orbitals guess was supplied from a previous computation.

  ==> Iterations <==

                           Total Energy        Delta E     RMS |[F,P]|

   @DF-RHF iter   0:  -230.63485085197573   -2.30635e+02   1.31180e-03 
   @DF-RHF iter   1:  -230.70100524051719   -6.61544e-02   1.88294e-04 DIIS
   @DF-RHF iter   2:  -230.70120318136830   -1.97941e-04   8.65371e-05 DIIS
   @DF-RHF iter   3:  -230.70124140959595   -3.82282e-05   1.64091e-05 DIIS
   @DF-RHF iter   4:  -230.70124391690723   -2.50731e-06   7.54183e-06 DIIS
   @DF-RHF iter   5:  -230.70124428825497   -3.71348e-07   1.39617e-06 DIIS
   @DF-RHF iter   6:  -230.70124432110686   -3.28519e-08   4.88375e-07 DIIS
   @DF-RHF iter   7:  -230.70124432586891   -4.76206e-09   2.21158e-07 DIIS
   @DF-RHF iter   8:  -230.70124432705393   -1.18501e-09   1.07965e-07 DIIS
   @DF-RHF iter   9:  -230.70124432742909   -3.75167e-10   3.11163e-08 DIIS
   @DF-RHF iter  10:  -230.70124432745402   -2.49258e-11   6.44544e-09 DIIS
   @DF-RHF iter  11:  -230.70124432745496   -9.37916e-13   1.84066e-09 DIIS
   @DF-RHF iter  12:  -230.70124432745470    2.55795e-13   5.57276e-10 DIIS
   @DF-RHF iter  13:  -230.70124432745521   -5.11591e-13   1.34780e-10 DIIS
   @DF-RHF iter  14:  -230.70124432745519    2.84217e-14   5.39683e-11 DIIS
  Energy and wave function converged.


  ==> Post-Iterations <==

    Orbital Energies [Eh]
    ---------------------

    Doubly Occupied:                                                      

       1A    -11.234927     2A    -11.234602     3A    -11.234050  
       4A    -11.233308     5A    -11.232831     6A    -11.232467  
       7A     -1.141172     8A     -1.008347     9A     -1.005468  
      10A     -0.818299    11A     -0.814507    12A     -0.700881  
      13A     -0.638260    14A     -0.609950    15A     -0.581483  
      16A     -0.580332    17A     -0.493638    18A     -0.489725  
      19A     -0.486902    20A     -0.330380    21A     -0.327566  

    Virtual:                                                              

      22A      0.145047    23A      0.148096    24A      0.232805  
      25A      0.291349    26A      0.292952    27A      0.329318  
      28A      0.331003    29A      0.334126    30A      0.365004  
      31A      0.469882    32A      0.471031    33A      0.494430  
      34A      0.496025    35A      0.660543    36A      0.737917  
      37A      0.756485    38A      0.775469    39A      0.777975  
      40A      0.787272    41A      0.832046    42A      0.833630  
      43A      0.842293    44A      0.844318    45A      0.845034  
      46A      0.849273    47A      0.912832    48A      0.914233  
      49A      0.994548    50A      1.110883    51A      1.111427  
      52A      1.116303    53A      1.120271    54A      1.122099  
      55A      1.182783    56A      1.187167    57A      1.201830  
      58A      1.243200    59A      1.299526    60A      1.304235  
      61A      1.383860    62A      1.389493    63A      1.457207  
      64A      1.518606    65A      1.664413    66A      1.693696  
      67A      1.695368    68A      1.765229    69A      1.767380  
      70A      1.795948    71A      1.796283    72A      2.047707  
      73A      2.090267    74A      2.156515    75A      2.167628  
      76A      2.299339    77A      2.304178    78A      2.390437  
      79A      2.390883    80A      2.464210    81A      2.468382  
      82A      2.470221    83A      2.473506    84A      2.631163  
      85A      2.641330    86A      2.645972    87A      2.877246  
      88A      2.880412    89A      2.998505    90A      3.066450  
      91A      3.068446    92A      3.079104    93A      3.084177  
      94A      3.087491    95A      3.391202    96A      3.784925  
      97A      4.509979    98A      4.540231    99A      4.543855  
     100A      4.754173   101A      4.755558   102A      5.093717  

    Final Occupation by Irrep:
              A 
    DOCC [    21 ]

  @DF-RHF Final Energy:  -230.70124432745519

   => Energetics <=

    Nuclear Repulsion Energy =            203.0506983583260592
    One-Electron Energy =                -712.6456961802173282
    Two-Electron Energy =                 278.8937534944361119
    Total Energy =                       -230.7012443274551856

Computation Completed


Properties will be evaluated at   0.000000,   0.000000,   0.000000 [a0]

Properties computed using the SCF density matrix

  Nuclear Dipole Moment: [e a0]
     X:    -0.0047      Y:     0.0110      Z:     0.0003

  Electronic Dipole Moment: [e a0]
     X:     0.0039      Y:    -0.0094      Z:    -0.0002

  Dipole Moment: [e a0]
     X:    -0.0008      Y:     0.0016      Z:     0.0000     Total:     0.0018

  Dipole Moment: [D]
     X:    -0.0021      Y:     0.0041      Z:     0.0001     Total:     0.0046


*** tstop() called on node44.bme.utexas.edu at Thu Nov  4 20:27:59 2021
Module time:
	user time   =       2.40 seconds =       0.04 minutes
	system time =       0.04 seconds =       0.00 minutes
	total time  =          2 seconds =       0.03 minutes
Total time:
	user time   =      13.18 seconds =       0.22 minutes
	system time =       0.36 seconds =       0.01 minutes
	total time  =         14 seconds =       0.23 minutes

*** tstart() called on node44.bme.utexas.edu
*** at Thu Nov  4 20:27:59 2021


  //>>>>>>>>>>>>>>>>>>>>>>>>>>>>>>>>>>>//
  //               DFMP2               //
  //<<<<<<<<<<<<<<<<<<<<<<<<<<<<<<<<<<<//

   => Loading Basis Set <=

    Name: (6-31G* AUX)
    Role: RIFIT
    Keyword: DF_BASIS_MP2
    atoms 1-6  entry C          line   159 file /home/bdw2292/miniconda3/envs/amoebamdpoltype/share/psi4/basis/cc-pvdz-ri.gbs 
    atoms 7-12 entry H          line    19 file /home/bdw2292/miniconda3/envs/amoebamdpoltype/share/psi4/basis/cc-pvdz-ri.gbs 

	 --------------------------------------------------------
	                          DF-MP2                         
	      2nd-Order Density-Fitted Moller-Plesset Theory     
	              RMP2 Wavefunction,   1 Threads             
	                                                         
	        Rob Parrish, Justin Turney, Andy Simmonett,      
	           Ed Hohenstein, and C. David Sherrill          
	 --------------------------------------------------------

   => Auxiliary Basis Set <=

  Basis Set: (6-31G* AUX)
    Blend: CC-PVDZ-RI
    Number of shells: 144
    Number of basis function: 420
    Number of Cartesian functions: 486
    Spherical Harmonics?: true
    Max angular momentum: 3

	 --------------------------------------------------------
	                 NBF =   102, NAUX =   420
	 --------------------------------------------------------
	   CLASS    FOCC     OCC    AOCC    AVIR     VIR    FVIR
	   PAIRS       0      21      21      81      81       0
	 --------------------------------------------------------

  DFHelper Memory: AOs need 0.055 GiB; user supplied 5.821 GiB. Using in-core AOs.


         ------------------------------------------------------------
                                     CPHF                           
                                  Rob Parrish                       
         ------------------------------------------------------------

  ==> Geometry <==

    Molecular point group: c1
    Full point group: C1

    Geometry (in Angstrom), charge = 0, multiplicity = 1:

       Center              X                  Y                   Z               Mass       
    ------------   -----------------  -----------------  -----------------  -----------------
         C           -1.112184801513    -0.844883594688    -0.049916206053    12.000000000000
         C           -1.290339886768     0.534915753292    -0.010251179182    12.000000000000
         C            1.112197082475     0.843607853741     0.049877855906    12.000000000000
         C           -0.179718228042     1.386826703979     0.039896904718    12.000000000000
         C            1.290544838994    -0.535745461191     0.010221235879    12.000000000000
         C            0.179923987061    -1.385705044687    -0.039851463071    12.000000000000
         H           -1.981948409114    -1.498481498560    -0.088756913065     1.007825032230
         H           -2.296428936333     0.950963143062    -0.018223333587     1.007825032230
         H           -0.321776238514     2.462514340282     0.070718707524     1.007825032230
         H            2.299390449532    -0.945783738233     0.018478434536     1.007825032230
         H            0.318872323532    -2.461408142520    -0.070802073264     1.007825032230
         H            1.976854315160     1.503909709646     0.088857270364     1.007825032230

  Nuclear repulsion =  203.050698358326059
  Reference energy  = -230.701244327455186

  ==> Basis Set <==

  Basis Set: 6-31G*
    Blend: 6-31G*
    Number of shells: 48
    Number of basis function: 102
    Number of Cartesian functions: 102
    Spherical Harmonics?: false
    Max angular momentum: 2

  ==> CGRSolver (by Rob Parrish) <==

   Number of roots    =         1
   Preconditioning    =    JACOBI
   Convergence cutoff =     1E-06
   Maximum iterations =       100

  ==> CPHFRHamiltonian (by Rob Parrish) <== 

  ==> MemDFJK: Density-Fitted J/K Matrices <==

    J tasked:                   Yes
    K tasked:                   Yes
    wK tasked:                   No
    OpenMP threads:               1
    Memory [MiB]:              5960
    Algorithm:                 Core
    Schwarz Cutoff:           1E-12
    Mask sparsity (%):       0.3460
    Fitting Condition:        1E-10

   => Auxiliary Basis Set <=

  Basis Set: (6-31G* AUX)
    Blend: CC-PVDZ-JKFIT
    Number of shells: 198
    Number of basis function: 636
    Number of Cartesian functions: 636
    Spherical Harmonics?: false
    Max angular momentum: 3

  ==> CPHF Iterations <==

  => Iterations <=

             Iter  Converged  Remaining    Residual
  CGR           1          0          1   8.358E-02
  CGR           2          0          1   9.729E-03
  CGR           3          0          1   1.641E-03
  CGR           4          0          1   1.764E-04
  CGR           5          0          1   6.224E-05
  CGR           6          0          1   3.960E-05
  CGR           7          0          1   1.272E-05
  CGR           8          0          1   4.505E-06
  CGR           9          1          0   8.856E-07

    CGRSolver converged.

  ==> DFCorrGrad: Density-Fitted Correlated Gradients <==

    OpenMP threads:              1
    Integrals threads:           1
    Memory [GiB]:            5.821
    Schwarz Cutoff:          0E+00
    Fitting Condition:       1E-10

   => Auxiliary Basis Set <=

  Basis Set: (6-31G* AUX)
    Blend: CC-PVDZ-JKFIT
    Number of shells: 198
    Number of basis function: 636
    Number of Cartesian functions: 636
    Spherical Harmonics?: false
    Max angular momentum: 3

	-----------------------------------------------------------
	 ==================> DF-MP2 Energies <==================== 
	-----------------------------------------------------------
	 Reference Energy          =    -230.7012443274551856 [Eh]
	 Singles Energy            =      -0.0000000000000000 [Eh]
	 Same-Spin Energy          =      -0.2062069038666776 [Eh]
	 Opposite-Spin Energy      =      -0.5787934600012081 [Eh]
	 Correlation Energy        =      -0.7850003638678857 [Eh]
	 Total Energy              =    -231.4862446913230656 [Eh]
	-----------------------------------------------------------
	 ================> DF-SCS-MP2 Energies <================== 
	-----------------------------------------------------------
	 SCS Same-Spin Scale       =       0.3333333333333333 [-]
	 SCS Opposite-Spin Scale   =       1.2000000000000000 [-]
	 SCS Same-Spin Energy      =      -0.0687356346222258 [Eh]
	 SCS Opposite-Spin Energy  =      -0.6945521520014497 [Eh]
	 SCS Correlation Energy    =      -0.7632877866236756 [Eh]
	 SCS Total Energy          =    -231.4645321140788496 [Eh]
	-----------------------------------------------------------


  -Total Gradient:
     Atom            X                  Y                   Z
    ------   -----------------  -----------------  -----------------
       1       -0.003826454352     0.004260840703     0.000056460735
       2       -0.002274306835    -0.005991698449    -0.000240971592
       3        0.004956290034    -0.006528230774    -0.000106113867
       4       -0.000972163360     0.006676539918     0.000195457618
       5        0.001147167064     0.004625603280     0.000170072437
       6        0.001569909216    -0.004836586989    -0.000119224277
       7       -0.001554463539     0.000183778708    -0.000027433293
       8       -0.001215273477    -0.000008451415    -0.000024007937
       9       -0.000220447976    -0.000968357737    -0.000037490772
      10        0.001732726723     0.000686401882     0.000058161450
      11       -0.000200442602     0.001265668929     0.000034948571
      12        0.000857459101     0.000634491941     0.000040140926


*** tstop() called on node44.bme.utexas.edu at Thu Nov  4 20:28:08 2021
Module time:
	user time   =       8.25 seconds =       0.14 minutes
	system time =       0.16 seconds =       0.00 minutes
	total time  =          9 seconds =       0.15 minutes
Total time:
	user time   =      21.43 seconds =       0.36 minutes
	system time =       0.52 seconds =       0.01 minutes
	total time  =         23 seconds =       0.38 minutes

			-----------------------------------------
			 OPTKING 2.0: for geometry optimizations 
			  - R.A. King,  Bethel University        
			-----------------------------------------
	At level 1: Red. Int., RFO, no backsteps, dynamic trust

	Previous internal coordinate definitions found.
	---Fragment 1 Geometry and Gradient---
	 C          -2.1017246758       -1.5965986019       -0.0943279587
	 C          -2.4383889947        1.0108442739       -0.0193719211
	 C           2.1017478834        1.5941878009        0.0942554874
	 C          -0.3396182308        2.6207226540        0.0753942232
	 C           2.4387762983       -1.0124121946        0.0193153365
	 C           0.3400070589       -2.6186030251       -0.0753083509
	 H          -3.7453396880       -2.8317196363       -0.1677262574
	 H          -4.3396217562        1.7970598958       -0.0344371096
	 H          -0.6080689645        4.6534776831        0.1336389892
	 H           4.3452182051       -1.7872722392        0.0349191805
	 H           0.6025813605       -4.6513872723       -0.1337965276
	 H           3.7357132456        2.8419774686        0.1679159052
	            -0.0038264544        0.0042608407        0.0000564607
	            -0.0022743068       -0.0059916984       -0.0002409716
	             0.0049562900       -0.0065282308       -0.0001061139
	            -0.0009721634        0.0066765399        0.0001954576
	             0.0011471671        0.0046256033        0.0001700724
	             0.0015699092       -0.0048365870       -0.0001192243
	            -0.0015544635        0.0001837787       -0.0000274333
	            -0.0012152735       -0.0000084514       -0.0000240079
	            -0.0002204480       -0.0009683577       -0.0000374908
	             0.0017327267        0.0006864019        0.0000581615
	            -0.0002004426        0.0012656689        0.0000349486
	             0.0008574591        0.0006344919        0.0000401409

	---Fragment 1 Intrafragment Coordinates---
	 - Coordinate -           - BOHR/RAD -       - ANG/DEG -
	 R(1,2)           =         2.630156	       1.391819
	 R(1,6)           =         2.647057	       1.400762
	 R(1,7)           =         2.057275	       1.088663
	 R(2,4)           =         2.646796	       1.400624
	 R(2,8)           =         2.057437	       1.088749
	 R(3,4)           =         2.648471	       1.401510
	 R(3,5)           =         2.629366	       1.391401
	 R(3,12)          =         2.057243	       1.088646
	 R(4,9)           =         2.051232	       1.085465
	 R(5,6)           =         2.644548	       1.399435
	 R(5,10)          =         2.057953	       1.089022
	 R(6,11)          =         2.050507	       1.085081
	 B(1,2,4)         =         2.097291	     120.165933
	 B(1,2,8)         =         2.090829	     119.795670
	 B(1,6,5)         =         2.091884	     119.856097
	 B(1,6,11)        =         2.095168	     120.044309
	 B(2,1,6)         =         2.095117	     120.041353
	 B(2,1,7)         =         2.087406	     119.599582
	 B(2,4,3)         =         2.089145	     119.699179
	 B(2,4,9)         =         2.094394	     119.999949
	 B(3,4,9)         =         2.099646	     120.300871
	 B(3,5,6)         =         2.096007	     120.092336
	 B(3,5,10)        =         2.084935	     119.457989
	 B(4,2,8)         =         2.095065	     120.038396
	 B(4,3,5)         =         2.096928	     120.145101
	 B(4,3,12)        =         2.091288	     119.821951
	 B(5,3,12)        =         2.094970	     120.032948
	 B(5,6,11)        =         2.096133	     120.099594
	 B(6,1,7)         =         2.100662	     120.359065
	 B(6,5,10)        =         2.102243	     120.449674
	 D(1,2,4,3)       =         0.000070	       0.004034
	 D(1,2,4,9)       =         3.141556	     179.997909
	 D(1,6,5,3)       =        -0.000047	      -0.002720
	 D(1,6,5,10)      =         3.141578	     179.999153
	 D(2,1,6,5)       =         0.000055	       0.003178
	 D(2,1,6,11)      =        -3.141562	    -179.998255
	 D(2,4,3,5)       =        -0.000062	      -0.003573
	 D(2,4,3,12)      =        -3.141561	    -179.998177
	 D(3,4,2,8)       =         3.141571	     179.998734
	 D(3,5,6,11)      =         3.141570	     179.998714
	 D(4,2,1,6)       =        -0.000067	      -0.003847
	 D(4,2,1,7)       =         3.141593	     180.000000
	 D(4,3,5,6)       =         0.000051	       0.002929
	 D(4,3,5,10)      =        -3.141574	    -179.998925
	 D(5,3,4,9)       =        -3.141548	    -179.997430
	 D(5,6,1,7)       =         3.141593	     180.000000
	 D(6,1,2,8)       =        -3.141568	    -179.998560
	 D(6,5,3,12)      =         3.141549	     179.997522
	 D(7,1,2,8)       =         0.000087	       0.004971
	 D(7,1,6,11)      =        -0.000032	      -0.001813
	 D(8,2,4,9)       =        -0.000129	      -0.007391
	 D(9,4,3,12)      =         0.000139	       0.007966
	 D(10,5,3,12)     =        -0.000076	      -0.004332
	 D(10,5,6,11)     =         0.000000	       0.000000

	Current energy   :      -231.4862446913

	Energy change for the previous step:
		Projected    :        -0.0099166821
		Actual       :        -0.0046815154

	Performing BFGS update.
	Previous computed or guess Hessian on step 1.
	Steps to be used in Hessian update: 1
	Taking RFO optimization step.
	Going to follow RFO solution 1.
	Using RFO vector 1.
	Norm of target step-size    0.02607
	Projected energy change by RFO approximation:        -0.0002769714

	Back-transformation to cartesian coordinates...
	Could not converge backtransformation.
	Using first guess instead.

	--- Internal Coordinate Step in ANG or DEG, aJ/ANG or AJ/DEG ---
	 ---------------------------------------------------------------------------
	   Coordinate                Previous        Force       Change         New 
	   ----------                --------       ------       ------       ------
	    1 R(1,2)          =      1.391819     0.024690     0.003257     1.395076
	    2 R(1,6)          =      1.400762    -0.043013    -0.004786     1.395976
	    3 R(1,7)          =      1.088663    -0.009331    -0.001067     1.087596
	    4 R(2,4)          =      1.400624    -0.040192    -0.004531     1.396093
	    5 R(2,8)          =      1.088749    -0.009227    -0.001719     1.087030
	    6 R(3,4)          =      1.401510    -0.046684    -0.005315     1.396195
	    7 R(3,5)          =      1.391401     0.027067     0.003565     1.394966
	    8 R(3,12)         =      1.088646    -0.008793    -0.001827     1.086819
	    9 R(4,9)          =      1.085465     0.007677     0.001326     1.086791
	   10 R(5,6)          =      1.399435    -0.034600    -0.003774     1.395660
	   11 R(5,10)         =      1.089022    -0.011099    -0.001515     1.087507
	   12 R(6,11)         =      1.085081     0.010557     0.001682     1.086763
	   13 B(1,2,4)        =    120.165933    -0.000016    -0.103765   120.062169
	   14 B(1,2,8)        =    119.795670     0.000045     0.172302   119.967972
	   15 B(1,6,5)        =    119.856097    -0.000012     0.065792   119.921888
	   16 B(1,6,11)       =    120.044309     0.000009    -0.013888   120.030422
	   17 B(2,1,6)        =    120.041353     0.000010    -0.009071   120.032282
	   18 B(2,1,7)        =    119.599582     0.000080     0.357682   119.957264
	   19 B(2,4,3)        =    119.699179     0.000037     0.179755   119.878934
	   20 B(2,4,9)        =    119.999949     0.000009     0.034675   120.034624
	   21 B(3,4,9)        =    120.300871    -0.000045    -0.214429   120.086442
	   22 B(3,5,6)        =    120.092336    -0.000002    -0.044836   120.047500
	   23 B(3,5,10)       =    119.457989     0.000102     0.458431   119.916420
	   24 B(4,2,8)        =    120.038396    -0.000029    -0.068537   119.969859
	   25 B(4,3,5)        =    120.145101    -0.000018    -0.087875   120.057226
	   26 B(4,3,12)       =    119.821951     0.000008     0.100870   119.922820
	   27 B(5,3,12)       =    120.032948     0.000010    -0.012995   120.019954
	   28 B(5,6,11)       =    120.099594     0.000003    -0.051904   120.047690
	   29 B(6,1,7)        =    120.359065    -0.000089    -0.348611   120.010454
	   30 B(6,5,10)       =    120.449674    -0.000100    -0.413595   120.036080
	   31 D(1,2,4,3)      =      0.004034    -0.000000    -0.002399     0.001635
	   32 D(1,2,4,9)      =    179.997909     0.000000     0.001131   179.999041
	   33 D(1,6,5,3)      =     -0.002720     0.000000     0.000495    -0.002225
	   34 D(1,6,5,10)     =    179.999153     0.000000     0.000847   180.000000
	   35 D(2,1,6,5)      =      0.003178    -0.000000    -0.001071     0.002107
	   36 D(2,1,6,11)     =   -179.998255    -0.000000    -0.001745  -180.000000
	   37 D(2,4,3,5)      =     -0.003573     0.000000     0.001821    -0.001752
	   38 D(2,4,3,12)     =   -179.998177    -0.000000    -0.001823  -180.000000
	   39 D(3,4,2,8)      =    179.998734     0.000000     0.001266   180.000000
	   40 D(3,5,6,11)     =    179.998714     0.000000     0.001286   180.000000
	   41 D(4,2,1,6)      =     -0.003847     0.000000     0.002032    -0.001815
	   42 D(4,2,1,7)      =    180.000000     0.000000     0.000000   180.000000
	   43 D(4,3,5,6)      =      0.002929    -0.000000    -0.000879     0.002050
	   44 D(4,3,5,10)     =   -179.998925    -0.000000    -0.001075  -180.000000
	   45 D(5,3,4,9)      =   -179.997430    -0.000000    -0.001727  -179.999157
	   46 D(5,6,1,7)      =    180.000000     0.000000     0.000000   180.000000
	   47 D(6,1,2,8)      =   -179.998560    -0.000000    -0.001440  -180.000000
	   48 D(6,5,3,12)     =    179.997522     0.000000     0.002478   180.000000
	   49 D(7,1,2,8)      =      0.004971    -0.000000    -0.002526     0.002445
	   50 D(7,1,6,11)     =     -0.001813     0.000000     0.000161    -0.001652
	   51 D(8,2,4,9)      =     -0.007391     0.000000     0.004085    -0.003306
	   52 D(9,4,3,12)     =      0.007966    -0.000000    -0.004833     0.003133
	   53 D(10,5,3,12)    =     -0.004332     0.000000     0.001941    -0.002392
	   54 D(10,5,6,11)    =      0.000000     0.000000     0.001774     0.001774
	 ---------------------------------------------------------------------------
	Successfully symmetrized geometry.

  ==> Convergence Check <==

  Measures of convergence in internal coordinates in au.
  Criteria marked as inactive (o), active & met (*), and active & unmet ( ).
  ---------------------------------------------------------------------------------------------
   Step     Total Energy     Delta E     MAX Force     RMS Force      MAX Disp      RMS Disp   
  ---------------------------------------------------------------------------------------------
    Convergence Criteria             o    4.50e-04 *    3.00e-04 *    1.80e-03 *    1.20e-03 *
  ---------------------------------------------------------------------------------------------
      2    -231.48624469   -4.68e-03 o    5.67e-03      1.59e-03      1.00e-02      3.55e-03    ~
  ---------------------------------------------------------------------------------------------

	Writing optimization data to binary file.
	Structure for next step:
	Cartesian Geometry (in Angstrom)
	    C    -1.1086420260  -0.8453642911  -0.0498660703
	    C    -1.2880552880   0.5375552720  -0.0101115974
	    C     1.1080544199   0.8467079947   0.0498983290
	    C    -0.1800038313   1.3853782271   0.0398378878
	    C     1.2874131571  -0.5361078752   0.0101484513
	    C     0.1794634836  -1.3833517484  -0.0397868907
	    H    -1.9730545407  -1.5042602849  -0.0887553445
	    H    -2.2915570688   0.9553540364  -0.0179966505
	    H    -0.3202878655   2.4626325797   0.0707786552
	    H     2.2917183384  -0.9532166863   0.0180820656
	    H     0.3191914117  -2.4606496732  -0.0707607777
	    H     1.9711463060   1.5060524732   0.0887811828
			--------------------------
			 OPTKING Finished Execution 
			--------------------------

    Structure for next step:
    Molecular point group: c1
    Full point group: C1

    Geometry (in Angstrom), charge = 0, multiplicity = 1:

    C           -1.108333156222    -0.846181362365    -0.049886205253
    C           -1.287746418965     0.536738206200    -0.010131732243
    C            1.108363298383     0.845890930137     0.049878194426
    C           -0.179694957856     1.384561164637     0.039817753183
    C            1.287722036350    -0.536924945275     0.010128316556
    C            0.179772358487    -1.384168821735    -0.039807025614
    H           -1.972745674295    -1.505077358782    -0.088775479600
    H           -2.291248203629     0.954536972254    -0.018016785332
    H           -0.319978992598     2.461815521438     0.070758520686
    H            2.292027221518    -0.954033758002     0.018061930933
    H            0.319500287076    -2.461466750834    -0.070780912792
    H            1.971455187937     1.505235411165     0.088761048337

gradient() will perform analytic gradient computation.
    SCF Algorithm Type (re)set to DF.

*** tstart() called on node44.bme.utexas.edu
*** at Thu Nov  4 20:28:08 2021

   => Loading Basis Set <=

    Name: 6-31G*
    Role: ORBITAL
    Keyword: BASIS
    atoms 1-6  entry C          line   111 file /home/bdw2292/miniconda3/envs/amoebamdpoltype/share/psi4/basis/6-31gs.gbs 
    atoms 7-12 entry H          line    44 file /home/bdw2292/miniconda3/envs/amoebamdpoltype/share/psi4/basis/6-31gs.gbs 


         ---------------------------------------------------------
                                   SCF
               by Justin Turney, Rob Parrish, Andy Simmonett
                          and Daniel G. A. Smith
                              RHF Reference
                        1 Threads,   7947 MiB Core
         ---------------------------------------------------------

  ==> Geometry <==

    Molecular point group: c1
    Full point group: C1

    Geometry (in Angstrom), charge = 0, multiplicity = 1:

       Center              X                  Y                   Z               Mass       
    ------------   -----------------  -----------------  -----------------  -----------------
         C           -1.108333156222    -0.846181362365    -0.049886205253    12.000000000000
         C           -1.287746418965     0.536738206200    -0.010131732243    12.000000000000
         C            1.108363298383     0.845890930137     0.049878194426    12.000000000000
         C           -0.179694957856     1.384561164637     0.039817753183    12.000000000000
         C            1.287722036350    -0.536924945275     0.010128316556    12.000000000000
         C            0.179772358487    -1.384168821735    -0.039807025614    12.000000000000
         H           -1.972745674295    -1.505077358782    -0.088775479600     1.007825032230
         H           -2.291248203629     0.954536972254    -0.018016785332     1.007825032230
         H           -0.319978992598     2.461815521438     0.070758520686     1.007825032230
         H            2.292027221518    -0.954033758002     0.018061930933     1.007825032230
         H            0.319500287076    -2.461466750834    -0.070780912792     1.007825032230
         H            1.971455187937     1.505235411165     0.088761048337     1.007825032230

  Running in c1 symmetry.

  Rotational constants: A =      0.19000  B =      0.18985  C =      0.09496 [cm^-1]
  Rotational constants: A =   5696.07651  B =   5691.45847  C =   2846.88328 [MHz]
  Nuclear repulsion =  203.302787832705349

  Charge       = 0
  Multiplicity = 1
  Electrons    = 42
  Nalpha       = 21
  Nbeta        = 21

  ==> Algorithm <==

  SCF Algorithm Type is DF.
  DIIS enabled.
  MOM disabled.
  Fractional occupation disabled.
  Guess Type is READ.
  Energy threshold   = 1.00e-10
  Density threshold  = 1.00e-10
  Integral threshold = 0.00e+00

  ==> Primary Basis <==

  Basis Set: 6-31G*
    Blend: 6-31G*
    Number of shells: 48
    Number of basis function: 102
    Number of Cartesian functions: 102
    Spherical Harmonics?: false
    Max angular momentum: 2

   => Loading Basis Set <=

    Name: (6-31G* AUX)
    Role: JKFIT
    Keyword: DF_BASIS_SCF
    atoms 1-6  entry C          line   121 file /home/bdw2292/miniconda3/envs/amoebamdpoltype/share/psi4/basis/cc-pvdz-jkfit.gbs 
    atoms 7-12 entry H          line    51 file /home/bdw2292/miniconda3/envs/amoebamdpoltype/share/psi4/basis/cc-pvdz-jkfit.gbs 

   => Loading Basis Set <=

    Name: 6-31G*
    Role: ORBITAL
    Keyword: BASIS
    atoms 1-6  entry C          line   111 file /home/bdw2292/miniconda3/envs/amoebamdpoltype/share/psi4/basis/6-31gs.gbs 
    atoms 7-12 entry H          line    44 file /home/bdw2292/miniconda3/envs/amoebamdpoltype/share/psi4/basis/6-31gs.gbs 

  Reading orbitals from file 180, no projection.

  ==> Pre-Iterations <==

   -------------------------------------------------------
    Irrep   Nso     Nmo     Nalpha   Nbeta   Ndocc  Nsocc
   -------------------------------------------------------
     A        102     102       0       0       0       0
   -------------------------------------------------------
    Total     102     102      21      21      21       0
   -------------------------------------------------------

  ==> Integral Setup <==

  DFHelper Memory: AOs need 0.055 GiB; user supplied 5.821 GiB. Using in-core AOs.

  ==> MemDFJK: Density-Fitted J/K Matrices <==

    J tasked:                   Yes
    K tasked:                   Yes
    wK tasked:                   No
    OpenMP threads:               1
    Memory [MiB]:              5960
    Algorithm:                 Core
    Schwarz Cutoff:           1E-12
    Mask sparsity (%):       0.3460
    Fitting Condition:        1E-10

   => Auxiliary Basis Set <=

  Basis Set: (6-31G* AUX)
    Blend: CC-PVDZ-JKFIT
    Number of shells: 198
    Number of basis function: 636
    Number of Cartesian functions: 636
    Spherical Harmonics?: false
    Max angular momentum: 3

  Minimum eigenvalue in the overlap matrix is 5.1770271400E-04.
  Using Symmetric Orthogonalization.

  SCF Guess: Orbitals guess was supplied from a previous computation.

  ==> Iterations <==

                           Total Energy        Delta E     RMS |[F,P]|

   @DF-RHF iter   0:  -230.70982142300977   -2.30710e+02   2.52856e-04 
   @DF-RHF iter   1:  -230.70167047539883    8.15095e-03   3.10045e-05 DIIS
   @DF-RHF iter   2:  -230.70167566164514   -5.18625e-06   1.49912e-05 DIIS
   @DF-RHF iter   3:  -230.70167678382256   -1.12218e-06   2.84356e-06 DIIS
   @DF-RHF iter   4:  -230.70167685522040   -7.13978e-08   1.18495e-06 DIIS
   @DF-RHF iter   5:  -230.70167686444418   -9.22378e-09   2.54795e-07 DIIS
   @DF-RHF iter   6:  -230.70167686527793   -8.33751e-10   9.90359e-08 DIIS
   @DF-RHF iter   7:  -230.70167686543226   -1.54330e-10   4.59696e-08 DIIS
   @DF-RHF iter   8:  -230.70167686547541   -4.31442e-11   1.94874e-08 DIIS
   @DF-RHF iter   9:  -230.70167686548913   -1.37277e-11   5.71404e-09 DIIS
   @DF-RHF iter  10:  -230.70167686549004   -9.09495e-13   1.37215e-09 DIIS
   @DF-RHF iter  11:  -230.70167686548982    2.27374e-13   1.67746e-10 DIIS
   @DF-RHF iter  12:  -230.70167686549041   -5.96856e-13   7.37134e-11 DIIS
  Energy and wave function converged.


  ==> Post-Iterations <==

    Orbital Energies [Eh]
    ---------------------

    Doubly Occupied:                                                      

       1A    -11.234188     2A    -11.233672     3A    -11.233594  
       4A    -11.232480     5A    -11.232397     6A    -11.231861  
       7A     -1.142338     8A     -1.007612     9A     -1.007477  
      10A     -0.816993    11A     -0.816520    12A     -0.701540  
      13A     -0.637909    14A     -0.610708    15A     -0.581301  
      16A     -0.581079    17A     -0.494427    18A     -0.488689  
      19A     -0.487989    20A     -0.329416    21A     -0.329204  

    Virtual:                                                              

      22A      0.146846    23A      0.147286    24A      0.232856  
      25A      0.292180    26A      0.292286    27A      0.330519  
      28A      0.330659    29A      0.334553    30A      0.366041  
      31A      0.471086    32A      0.471228    33A      0.496073  
      34A      0.496460    35A      0.659938    36A      0.738367  
      37A      0.756237    38A      0.777163    39A      0.780243  
      40A      0.787452    41A      0.832451    42A      0.832604  
      43A      0.843677    44A      0.843826    45A      0.847665  
      46A      0.848049    47A      0.913621    48A      0.913821  
      49A      0.995071    50A      1.111361    51A      1.111392  
      52A      1.117898    53A      1.118598    54A      1.122514  
      55A      1.185702    56A      1.186455    57A      1.202072  
      58A      1.245321    59A      1.302364    60A      1.302695  
      61A      1.387998    62A      1.388091    63A      1.459182  
      64A      1.518669    65A      1.663658    66A      1.695353  
      67A      1.696093    68A      1.766771    69A      1.767432  
      70A      1.796198    71A      1.796621    72A      2.048180  
      73A      2.092177    74A      2.158927    75A      2.168630  
      76A      2.303212    77A      2.303356    78A      2.393669  
      79A      2.394267    80A      2.468740    81A      2.468865  
      82A      2.473364    83A      2.474270    84A      2.637879  
      85A      2.639885    86A      2.647659    87A      2.880165  
      88A      2.880372    89A      3.002475    90A      3.071647  
      91A      3.072333    92A      3.083887    93A      3.084764  
      94A      3.088182    95A      3.393839    96A      3.791406  
      97A      4.512459    98A      4.542691    99A      4.542967  
     100A      4.755538   101A      4.755567   102A      5.095682  

    Final Occupation by Irrep:
              A 
    DOCC [    21 ]

  @DF-RHF Final Energy:  -230.70167686549041

   => Energetics <=

    Nuclear Repulsion Energy =            203.3027878327053486
    One-Electron Energy =                -713.1461389730941391
    Two-Electron Energy =                 279.1416742748983779
    Total Energy =                       -230.7016768654904126

Computation Completed


Properties will be evaluated at   0.000000,   0.000000,   0.000000 [a0]

Properties computed using the SCF density matrix

  Nuclear Dipole Moment: [e a0]
     X:    -0.0009      Y:     0.0009      Z:     0.0000

  Electronic Dipole Moment: [e a0]
     X:     0.0008      Y:    -0.0005      Z:     0.0000

  Dipole Moment: [e a0]
     X:    -0.0001      Y:     0.0004      Z:     0.0000     Total:     0.0004

  Dipole Moment: [D]
     X:    -0.0002      Y:     0.0011      Z:     0.0000     Total:     0.0011


*** tstop() called on node44.bme.utexas.edu at Thu Nov  4 20:28:10 2021
Module time:
	user time   =       1.83 seconds =       0.03 minutes
	system time =       0.03 seconds =       0.00 minutes
	total time  =          2 seconds =       0.03 minutes
Total time:
	user time   =      23.28 seconds =       0.39 minutes
	system time =       0.56 seconds =       0.01 minutes
	total time  =         25 seconds =       0.42 minutes

*** tstart() called on node44.bme.utexas.edu
*** at Thu Nov  4 20:28:10 2021


  //>>>>>>>>>>>>>>>>>>>>>>>>>>>>>>>>>>>//
  //               DFMP2               //
  //<<<<<<<<<<<<<<<<<<<<<<<<<<<<<<<<<<<//

   => Loading Basis Set <=

    Name: (6-31G* AUX)
    Role: RIFIT
    Keyword: DF_BASIS_MP2
    atoms 1-6  entry C          line   159 file /home/bdw2292/miniconda3/envs/amoebamdpoltype/share/psi4/basis/cc-pvdz-ri.gbs 
    atoms 7-12 entry H          line    19 file /home/bdw2292/miniconda3/envs/amoebamdpoltype/share/psi4/basis/cc-pvdz-ri.gbs 

	 --------------------------------------------------------
	                          DF-MP2                         
	      2nd-Order Density-Fitted Moller-Plesset Theory     
	              RMP2 Wavefunction,   1 Threads             
	                                                         
	        Rob Parrish, Justin Turney, Andy Simmonett,      
	           Ed Hohenstein, and C. David Sherrill          
	 --------------------------------------------------------

   => Auxiliary Basis Set <=

  Basis Set: (6-31G* AUX)
    Blend: CC-PVDZ-RI
    Number of shells: 144
    Number of basis function: 420
    Number of Cartesian functions: 486
    Spherical Harmonics?: true
    Max angular momentum: 3

	 --------------------------------------------------------
	                 NBF =   102, NAUX =   420
	 --------------------------------------------------------
	   CLASS    FOCC     OCC    AOCC    AVIR     VIR    FVIR
	   PAIRS       0      21      21      81      81       0
	 --------------------------------------------------------

  DFHelper Memory: AOs need 0.055 GiB; user supplied 5.821 GiB. Using in-core AOs.


         ------------------------------------------------------------
                                     CPHF                           
                                  Rob Parrish                       
         ------------------------------------------------------------

  ==> Geometry <==

    Molecular point group: c1
    Full point group: C1

    Geometry (in Angstrom), charge = 0, multiplicity = 1:

       Center              X                  Y                   Z               Mass       
    ------------   -----------------  -----------------  -----------------  -----------------
         C           -1.108333156222    -0.846181362365    -0.049886205253    12.000000000000
         C           -1.287746418965     0.536738206200    -0.010131732243    12.000000000000
         C            1.108363298383     0.845890930137     0.049878194426    12.000000000000
         C           -0.179694957856     1.384561164637     0.039817753183    12.000000000000
         C            1.287722036350    -0.536924945275     0.010128316556    12.000000000000
         C            0.179772358487    -1.384168821735    -0.039807025614    12.000000000000
         H           -1.972745674295    -1.505077358782    -0.088775479600     1.007825032230
         H           -2.291248203629     0.954536972254    -0.018016785332     1.007825032230
         H           -0.319978992598     2.461815521438     0.070758520686     1.007825032230
         H            2.292027221518    -0.954033758002     0.018061930933     1.007825032230
         H            0.319500287076    -2.461466750834    -0.070780912792     1.007825032230
         H            1.971455187937     1.505235411165     0.088761048337     1.007825032230

  Nuclear repulsion =  203.302787832705349
  Reference energy  = -230.701676865490413

  ==> Basis Set <==

  Basis Set: 6-31G*
    Blend: 6-31G*
    Number of shells: 48
    Number of basis function: 102
    Number of Cartesian functions: 102
    Spherical Harmonics?: false
    Max angular momentum: 2

  ==> CGRSolver (by Rob Parrish) <==

   Number of roots    =         1
   Preconditioning    =    JACOBI
   Convergence cutoff =     1E-06
   Maximum iterations =       100

  ==> CPHFRHamiltonian (by Rob Parrish) <== 

  ==> MemDFJK: Density-Fitted J/K Matrices <==

    J tasked:                   Yes
    K tasked:                   Yes
    wK tasked:                   No
    OpenMP threads:               1
    Memory [MiB]:              5960
    Algorithm:                 Core
    Schwarz Cutoff:           1E-12
    Mask sparsity (%):       0.3460
    Fitting Condition:        1E-10

   => Auxiliary Basis Set <=

  Basis Set: (6-31G* AUX)
    Blend: CC-PVDZ-JKFIT
    Number of shells: 198
    Number of basis function: 636
    Number of Cartesian functions: 636
    Spherical Harmonics?: false
    Max angular momentum: 3

  ==> CPHF Iterations <==

  => Iterations <=

             Iter  Converged  Remaining    Residual
[...]
         C           -1.287816634546     0.536785197559    -0.010129464412    12.000000000000
         C            1.108186680801     0.846243919977     0.049888336769    12.000000000000
         C           -0.179613507368     1.382988007785     0.039768414023    12.000000000000
         C            1.287776331738    -0.536784188324     0.010127926615    12.000000000000
         C            0.179626307596    -1.383001501097    -0.039767660926    12.000000000000
         H           -1.971594386647    -1.505542007322    -0.088765799713     1.007825032230
         H           -2.291224967962     0.954878606953    -0.018017144370     1.007825032230
         H           -0.319550564102     2.460522732324     0.070742757056     1.007825032230
         H            2.291168979326    -0.954922793134     0.018013479961     1.007825032230
         H            0.319543557577    -2.460554227149    -0.070743917579     1.007825032230
         H            1.971676001341     1.505485227007     0.088765761837     1.007825032230

  Nuclear repulsion =  203.359483305723188
  Reference energy  = -230.701735081488721

  ==> Basis Set <==

  Basis Set: 6-31G*
    Blend: 6-31G*
    Number of shells: 48
    Number of basis function: 102
    Number of Cartesian functions: 102
    Spherical Harmonics?: false
    Max angular momentum: 2

  ==> CGRSolver (by Rob Parrish) <==

   Number of roots    =         1
   Preconditioning    =    JACOBI
   Convergence cutoff =     1E-06
   Maximum iterations =       100

  ==> CPHFRHamiltonian (by Rob Parrish) <== 

  ==> MemDFJK: Density-Fitted J/K Matrices <==

    J tasked:                   Yes
    K tasked:                   Yes
    wK tasked:                   No
    OpenMP threads:               1
    Memory [MiB]:              5960
    Algorithm:                 Core
    Schwarz Cutoff:           1E-12
    Mask sparsity (%):       0.3460
    Fitting Condition:        1E-10

   => Auxiliary Basis Set <=

  Basis Set: (6-31G* AUX)
    Blend: CC-PVDZ-JKFIT
    Number of shells: 198
    Number of basis function: 636
    Number of Cartesian functions: 636
    Spherical Harmonics?: false
    Max angular momentum: 3

  ==> CPHF Iterations <==

  => Iterations <=

             Iter  Converged  Remaining    Residual
  CGR           1          0          1   8.364E-02
  CGR           2          0          1   9.727E-03
  CGR           3          0          1   1.636E-03
  CGR           4          0          1   1.574E-04
  CGR           5          0          1   1.704E-05
  CGR           6          0          1   2.067E-06
  CGR           7          1          0   7.546E-07

    CGRSolver converged.

  ==> DFCorrGrad: Density-Fitted Correlated Gradients <==

    OpenMP threads:              1
    Integrals threads:           1
    Memory [GiB]:            5.821
    Schwarz Cutoff:          0E+00
    Fitting Condition:       1E-10

   => Auxiliary Basis Set <=

  Basis Set: (6-31G* AUX)
    Blend: CC-PVDZ-JKFIT
    Number of shells: 198
    Number of basis function: 636
    Number of Cartesian functions: 636
    Spherical Harmonics?: false
    Max angular momentum: 3

	-----------------------------------------------------------
	 ==================> DF-MP2 Energies <==================== 
	-----------------------------------------------------------
	 Reference Energy          =    -230.7017350814887209 [Eh]
	 Singles Energy            =      -0.0000000000000000 [Eh]
	 Same-Spin Energy          =      -0.2061956108686603 [Eh]
	 Opposite-Spin Energy      =      -0.5784730572097396 [Eh]
	 Correlation Energy        =      -0.7846686680783999 [Eh]
	 Total Energy              =    -231.4864037495671312 [Eh]
	-----------------------------------------------------------
	 ================> DF-SCS-MP2 Energies <================== 
	-----------------------------------------------------------
	 SCS Same-Spin Scale       =       0.3333333333333333 [-]
	 SCS Opposite-Spin Scale   =       1.2000000000000000 [-]
	 SCS Same-Spin Energy      =      -0.0687318702895534 [Eh]
	 SCS Opposite-Spin Energy  =      -0.6941676686516876 [Eh]
	 SCS Correlation Energy    =      -0.7628995389412410 [Eh]
	 SCS Total Energy          =    -231.4646346204299618 [Eh]
	-----------------------------------------------------------


  -Total Gradient:
     Atom            X                  Y                   Z
    ------   -----------------  -----------------  -----------------
       1        0.000026620866     0.000036058826     0.000002437881
       2       -0.000000403930    -0.000005862501    -0.000001026939
       3       -0.000008875335    -0.000004142340    -0.000001110908
       4        0.000010929973    -0.000032625917     0.000000132721
       5       -0.000040074102     0.000002151046    -0.000000083546
       6        0.000009330528     0.000030724482     0.000000464213
       7       -0.000016212821    -0.000003014124    -0.000000659637
       8       -0.000011295157    -0.000017565524    -0.000000559151
       9        0.000004033380    -0.000022618062    -0.000000913960
      10        0.000008571845     0.000012185360     0.000000338456
      11       -0.000004118427     0.000009955278     0.000000455395
      12        0.000021493182    -0.000005246527     0.000000525475


*** tstop() called on node44.bme.utexas.edu at Thu Nov  4 20:28:28 2021
Module time:
	user time   =       7.41 seconds =       0.12 minutes
	system time =       0.16 seconds =       0.00 minutes
	total time  =          8 seconds =       0.13 minutes
Total time:
	user time   =      40.27 seconds =       0.67 minutes
	system time =       0.96 seconds =       0.02 minutes
	total time  =         43 seconds =       0.72 minutes

			-----------------------------------------
			 OPTKING 2.0: for geometry optimizations 
			  - R.A. King,  Bethel University        
			-----------------------------------------
	At level 1: Red. Int., RFO, no backsteps, dynamic trust

	Previous internal coordinate definitions found.
	---Fragment 1 Geometry and Gradient---
	 C          -2.0941203053       -1.5991246297       -0.0942730387
	 C          -2.4336207391        1.0143770116       -0.0191419135
	 C           2.0941693226        1.5991692441        0.0942752933
	 C          -0.3394203374        2.6134685695        0.0751514109
	 C           2.4335445778       -1.0143751044        0.0191390075
	 C           0.3394445263       -2.6134940682       -0.0751499878
	 H          -3.7257734213       -2.8450620642       -0.1677430508
	 H          -4.3297876813        1.8044590502       -0.0340474684
	 H          -0.6038630494        4.6497140896        0.1336844362
	 H           4.3296818781       -1.8045425500        0.0340405437
	 H           0.6038498090       -4.6497736061       -0.1336866293
	 H           3.7259276507        2.8449547650        0.1677429792
	             0.0000266209        0.0000360588        0.0000024379
	            -0.0000004039       -0.0000058625       -0.0000010269
	            -0.0000088753       -0.0000041423       -0.0000011109
	             0.0000109300       -0.0000326259        0.0000001327
	            -0.0000400741        0.0000021510       -0.0000000835
	             0.0000093305        0.0000307245        0.0000004642
	            -0.0000162128       -0.0000030141       -0.0000006596
	            -0.0000112952       -0.0000175655       -0.0000005592
	             0.0000040334       -0.0000226181       -0.0000009140
	             0.0000085718        0.0000121854        0.0000003385
	            -0.0000041184        0.0000099553        0.0000004554
	             0.0000214932       -0.0000052465        0.0000005255

	---Fragment 1 Intrafragment Coordinates---
	 - Coordinate -           - BOHR/RAD -       - ANG/DEG -
	 R(1,2)           =         2.636531	       1.395192
	 R(1,6)           =         2.636579	       1.395218
	 R(1,7)           =         2.054276	       1.087076
	 R(2,4)           =         2.636600	       1.395229
	 R(2,8)           =         2.054240	       1.087057
	 R(3,4)           =         2.636575	       1.395215
	 R(3,5)           =         2.636557	       1.395206
	 R(3,12)          =         2.054267	       1.087071
	 R(4,9)           =         2.054179	       1.087025
	 R(5,6)           =         2.636537	       1.395195
	 R(5,10)          =         2.054245	       1.087060
	 R(6,11)          =         2.054208	       1.087040
	 B(1,2,4)         =         2.094327	     119.996114
	 B(1,2,8)         =         2.094284	     119.993610
	 B(1,6,5)         =         2.094414	     120.001094
	 B(1,6,11)        =         2.094358	     119.997883
	 B(2,1,6)         =         2.094412	     120.000995
	 B(2,1,7)         =         2.094342	     119.996961
	 B(2,4,3)         =         2.094474	     120.004504
	 B(2,4,9)         =         2.094361	     119.998067
	 B(3,4,9)         =         2.094350	     119.997429
	 B(3,5,6)         =         2.094408	     120.000729
	 B(3,5,10)        =         2.094278	     119.993311
	 B(4,2,8)         =         2.094574	     120.010275
	 B(4,3,5)         =         2.094335	     119.996563
	 B(4,3,12)        =         2.094549	     120.008806
	 B(5,3,12)        =         2.094301	     119.994631
	 B(5,6,11)        =         2.094413	     120.001022
	 B(6,1,7)         =         2.094431	     120.002043
	 B(6,5,10)        =         2.094499	     120.005960
	 D(1,2,4,3)       =         0.000017	       0.000990
	 D(1,2,4,9)       =         3.141593	     180.000000
	 D(1,6,5,3)       =        -0.000015	      -0.000835
	 D(1,6,5,10)      =         3.141593	     180.000000
	 D(2,1,6,5)       =         0.000015	       0.000865
	 D(2,1,6,11)      =         3.141593	     180.000000
	 D(2,4,3,5)       =        -0.000017	      -0.000960
	 D(2,4,3,12)      =         3.141593	     180.000000
	 D(3,4,2,8)       =         3.141593	     180.000000
	 D(3,5,6,11)      =         3.141593	     180.000000
	 D(4,2,1,6)       =        -0.000016	      -0.000942
	 D(4,2,1,7)       =         3.141593	     180.000000
	 D(4,3,5,6)       =         0.000015	       0.000882
	 D(4,3,5,10)      =         3.141593	     180.000000
	 D(5,3,4,9)       =         3.141593	     180.000000
	 D(5,6,1,7)       =         3.141593	     180.000000
	 D(6,1,2,8)       =         3.141593	     180.000000
	 D(6,5,3,12)      =         3.141593	     180.000000
	 D(7,1,2,8)       =         0.000020	       0.001127
	 D(7,1,6,11)      =        -0.000019	      -0.001115
	 D(8,2,4,9)       =        -0.000021	      -0.001221
	 D(9,4,3,12)      =         0.000021	       0.001227
	 D(10,5,3,12)     =        -0.000020	      -0.001128
	 D(10,5,6,11)     =         0.000019	       0.001110

	Current energy   :      -231.4864037496

	Energy change for the previous step:
		Projected    :        -0.0000080498
		Actual       :        -0.0000039383

	Performing BFGS update.
	Previous computed or guess Hessian on step 1.
	Steps to be used in Hessian update: 3 2
	Taking RFO optimization step.
	Going to follow RFO solution 1.
	Using RFO vector 1.
	Norm of target step-size    0.00035
	Projected energy change by RFO approximation:        -0.0000000331

	Back-transformation to cartesian coordinates...
	Could not converge backtransformation.
	Using first guess instead.

	--- Internal Coordinate Step in ANG or DEG, aJ/ANG or AJ/DEG ---
	 ---------------------------------------------------------------------------
	   Coordinate                Previous        Force       Change         New 
	   ----------                --------       ------       ------       ------
	    1 R(1,2)          =      1.395192     0.000398     0.000046     1.395238
	    2 R(1,6)          =      1.395218     0.000139     0.000022     1.395240
	    3 R(1,7)          =      1.087076    -0.000121    -0.000021     1.087055
	    4 R(2,4)          =      1.395229     0.000039     0.000007     1.395236
	    5 R(2,8)          =      1.087057    -0.000030    -0.000003     1.087054
	    6 R(3,4)          =      1.395215     0.000109     0.000017     1.395232
	    7 R(3,5)          =      1.395206     0.000339     0.000039     1.395245
	    8 R(3,12)         =      1.087071    -0.000115    -0.000018     1.087054
	    9 R(4,9)          =      1.087025     0.000189     0.000032     1.087057
	   10 R(5,6)          =      1.395195     0.000239     0.000035     1.395230
	   11 R(5,10)         =      1.087060    -0.000027    -0.000004     1.087056
	   12 R(6,11)         =      1.087040     0.000086     0.000014     1.087054
	   13 B(1,2,4)        =    119.996114     0.000001     0.003809   119.999923
	   14 B(1,2,8)        =    119.993610     0.000001     0.005235   119.998846
	   15 B(1,6,5)        =    120.001094    -0.000001    -0.002033   119.999062
	   16 B(1,6,11)       =    119.997883     0.000001     0.002028   119.999911
	   17 B(2,1,6)        =    120.000995    -0.000000    -0.000213   120.000783
	   18 B(2,1,7)        =    119.996961     0.000001     0.002344   119.999306
	   19 B(2,4,3)        =    120.004504    -0.000001    -0.004967   119.999537
	   20 B(2,4,9)        =    119.998067     0.000001     0.002026   120.000094
	   21 B(3,4,9)        =    119.997429     0.000001     0.002940   120.000369
	   22 B(3,5,6)        =    120.000729    -0.000000    -0.000396   120.000334
	   23 B(3,5,10)       =    119.993311     0.000001     0.004997   119.998308
	   24 B(4,2,8)        =    120.010275    -0.000002    -0.009044   120.001232
	   25 B(4,3,5)        =    119.996563     0.000001     0.003799   120.000362
	   26 B(4,3,12)       =    120.008806    -0.000002    -0.007880   120.000926
	   27 B(5,3,12)       =    119.994631     0.000001     0.004081   119.998712
	   28 B(5,6,11)       =    120.001022     0.000000     0.000005   120.001027
	   29 B(6,1,7)        =    120.002043    -0.000001    -0.002132   119.999912
	   30 B(6,5,10)       =    120.005960    -0.000001    -0.004601   120.001358
	   31 D(1,2,4,3)      =      0.000990    -0.000000    -0.000990     0.000000
	   32 D(1,2,4,9)      =    180.000000     0.000000     0.000000   180.000000
	   33 D(1,6,5,3)      =     -0.000835     0.000000     0.000835     0.000000
	   34 D(1,6,5,10)     =    180.000000    -0.000000     0.000000   180.000000
	   35 D(2,1,6,5)      =      0.000865    -0.000000    -0.000865     0.000000
	   36 D(2,1,6,11)     =    180.000000     0.000000     0.000000   180.000000
	   37 D(2,4,3,5)      =     -0.000960     0.000000     0.000960     0.000000
	   38 D(2,4,3,12)     =    180.000000     0.000000     0.000000   180.000000
	   39 D(3,4,2,8)      =    180.000000    -0.000000     0.000000   180.000000
	   40 D(3,5,6,11)     =    180.000000    -0.000000     0.000000   180.000000
	   41 D(4,2,1,6)      =     -0.000942     0.000000     0.000942     0.000000
	   42 D(4,2,1,7)      =    180.000000     0.000000     0.000000   180.000000
	   43 D(4,3,5,6)      =      0.000882    -0.000000    -0.000882     0.000000
	   44 D(4,3,5,10)     =    180.000000     0.000000     0.000000   180.000000
	   45 D(5,3,4,9)      =    180.000000    -0.000000     0.000000   180.000000
	   46 D(5,6,1,7)      =    180.000000     0.000000     0.000000   180.000000
	   47 D(6,1,2,8)      =    180.000000    -0.000000     0.000000   180.000000
	   48 D(6,5,3,12)     =    180.000000     0.000000     0.000000   180.000000
	   49 D(7,1,2,8)      =      0.001127    -0.000000    -0.001127     0.000000
	   50 D(7,1,6,11)     =     -0.001115     0.000000     0.001115     0.000000
	   51 D(8,2,4,9)      =     -0.001221     0.000000     0.001221     0.000000
	   52 D(9,4,3,12)     =      0.001227    -0.000000    -0.001227     0.000000
	   53 D(10,5,3,12)    =     -0.001128     0.000000     0.001128     0.000000
	   54 D(10,5,6,11)    =      0.001110    -0.000000    -0.001110     0.000000
	 ---------------------------------------------------------------------------
	Successfully symmetrized geometry.

  ==> Convergence Check <==

  Measures of convergence in internal coordinates in au.
  Criteria marked as inactive (o), active & met (*), and active & unmet ( ).
  ---------------------------------------------------------------------------------------------
   Step     Total Energy     Delta E     MAX Force     RMS Force      MAX Disp      RMS Disp   
  ---------------------------------------------------------------------------------------------
    Convergence Criteria             o    4.50e-04 *    3.00e-04 *    1.80e-03 *    1.20e-03 *
  ---------------------------------------------------------------------------------------------
      4    -231.48640375   -3.94e-06 o    4.83e-05 *    1.36e-05 *    1.58e-04 *    4.88e-05 *  ~
  ---------------------------------------------------------------------------------------------


  **** Optimization is complete! (in 4 steps) ****

  ==> Optimization Summary <==

  Measures of convergence in internal coordinates in au.
  --------------------------------------------------------------------------------------------------------------- ~
   Step         Total Energy             Delta E       MAX Force       RMS Force        MAX Disp        RMS Disp  ~
  --------------------------------------------------------------------------------------------------------------- ~
      1    -231.481563175945   -231.481563175945      0.02069299      0.00804618      0.06646429      0.02560008  ~
      2    -231.486244691323     -0.004681515378      0.00566638      0.00158609      0.01004443      0.00354784  ~
      3    -231.486399811271     -0.000155119948      0.00082683      0.00022257      0.00219160      0.00076042  ~
      4    -231.486403749567     -0.000003938296      0.00004828      0.00001364      0.00015784      0.00004883  ~
  --------------------------------------------------------------------------------------------------------------- ~

	Writing optimization data to binary file.
	Final energy is   -231.4864037495671
	Final (previous) structure:
	Cartesian Geometry (in Angstrom)
	    C    -1.1081607376  -0.8462203078  -0.0498871435
	    C    -1.2878166295   0.5367851954  -0.0101294644
	    C     1.1081866764   0.8462439167   0.0498883366
	    C    -0.1796135067   1.3829880023   0.0397684139
	    C     1.2877763267  -0.5367841862   0.0101279266
	    C     0.1796263069  -1.3830014957  -0.0397676608
	    H    -1.9715943789  -1.5055420014  -0.0887657994
	    H    -2.2912249590   0.9548786032  -0.0180171443
	    H    -0.3195505628   2.4605227227   0.0707427568
	    H     2.2911689703  -0.9549227894   0.0180134799
	    H     0.3195435563  -2.4605542175  -0.0707439173
	    H     1.9716759936   1.5054852211   0.0887657615
	Saving final (previous) structure.
			--------------------------
			 OPTKING Finished Execution 
			--------------------------

    Final optimized geometry and variables:
    Molecular point group: c1
    Full point group: C1

    Geometry (in Angstrom), charge = 0, multiplicity = 1:

    C           -1.108160741991    -0.846220311080    -0.049887143664
    C           -1.287816634546     0.536785197559    -0.010129464412
    C            1.108186680801     0.846243919977     0.049888336769
    C           -0.179613507368     1.382988007785     0.039768414023
    C            1.287776331738    -0.536784188324     0.010127926615
    C            0.179626307596    -1.383001501097    -0.039767660926
    H           -1.971594386647    -1.505542007322    -0.088765799713
    H           -2.291224967962     0.954878606953    -0.018017144370
    H           -0.319550564102     2.460522732324     0.070742757056
    H            2.291168979326    -0.954922793134     0.018013479961
    H            0.319543557577    -2.460554227149    -0.070743917579
    H            1.971676001341     1.505485227007     0.088765761837

	Removing binary optimization data file.
	Cleaning optimization helper files.

    Psi4 stopped on: Thursday, 04 November 2021 08:28PM
    Psi4 wall time for execution: 0:00:43.29

*** Psi4 exiting successfully. Buy a developer a beer!
