
    -----------------------------------------------------------------------
          Psi4: An Open-Source Ab Initio Electronic Structure Package
                               Psi4 1.3.2 release

                         Git: Rev {HEAD} ecbda83 


    R. M. Parrish, L. A. Burns, D. G. A. Smith, A. C. Simmonett,
    A. E. DePrince III, E. G. Hohenstein, U. Bozkaya, A. Yu. Sokolov,
    R. Di Remigio, R. M. Richard, J. F. Gonthier, A. M. James,
    H. R. McAlexander, A. Kumar, M. Saitow, X. Wang, B. P. Pritchard,
    P. Verma, H. F. Schaefer III, K. Patkowski, R. A. King, E. F. Valeev,
    F. A. Evangelista, J. M. Turney, T. D. Crawford, and C. D. Sherrill,
    J. Chem. Theory Comput. 13(7) pp 3185--3197 (2017).
    (doi: 10.1021/acs.jctc.7b00174)


                         Additional Contributions by
    P. Kraus, H. Kruse, M. H. Lechner, M. C. Schieber, R. A. Shaw,
    A. Alenaizan, R. Galvelis, Z. L. Glick, S. Lehtola, and J. P. Misiewicz

    -----------------------------------------------------------------------


    Psi4 started on: Thursday, 04 November 2021 02:00PM

    Process ID: 33348
    Host:       node44.bme.utexas.edu
    PSIDATADIR: /home/bdw2292/miniconda3/envs/amoebamdpoltype/share/psi4
    Memory:     500.0 MiB
    Threads:    1
    
  ==> Input File <==

--------------------------------------------------------------------------
molecule { 
0 1
C          4.10300        0.54460        1.49040
C          3.32760        1.04510        0.55700
N          2.01500        1.48570        1.02620
C          0.81870        0.79670        0.73960
H          2.04670        2.35900        1.59500
C          5.45820        0.01300        1.45740
N          4.75960       -0.28370        3.57990
C          3.68450        0.32970        2.90270
C          5.83990       -0.47630        2.69740
C          3.53340        1.16240       -0.86330
C          3.87280        0.15870       -1.73820
C          3.35530        2.44010       -1.39440
C          4.03720        0.37270       -3.08890
C          3.52170        2.63130       -2.72740
C          3.85900        1.63490       -3.60150
C          0.76840       -0.39010        0.07510
C         -0.38080        1.37730        1.15150
C         -0.45250       -0.99130       -0.17810
C         -1.58120        0.75890        0.88810
C         -1.67290       -0.44230        0.21710
H          4.76100       -0.55540        4.58480
O          2.58000        0.63820        3.39650
H          4.01560       -0.83530       -1.35160
H          3.08980        3.27710       -0.76290
H          4.30510       -0.43950       -3.75400
H          3.38170        3.62370       -3.13930
H          3.98460        1.81640       -4.66570
H          1.69470       -0.88110       -0.25600
H         -0.33620        2.31250        1.67300
H         -0.49600       -1.93920       -0.70890
H         -2.48410        1.26410        1.24600
H          6.05830        0.00180        0.61790
H          6.74980       -0.90370        2.93090
H         -2.57650       -0.90090        0.02180
}
memory 100GB
set_num_threads(12)
psi4_io.set_default_path("/scratch/bdw2292/Psi4-farH_in17")
set maxiter 500
set freeze_core True
set PROPERTIES_ORIGIN ["COM"]
set cubeprop_tasks ['esp']
E, wfn = properties('hf/MINIX',properties=['dipole'],return_wfn=True)
cubeprop(wfn)
fchk(wfn, "farH_in17-esp_frag.fchk")
oeprop(wfn,"WIBERG_LOWDIN_INDICES","MULLIKEN_CHARGES")
clean()
--------------------------------------------------------------------------

  Memory set to  93.132 GiB by Python driver.
  Threads set to 12 by Python driver.

*** tstart() called on node44.bme.utexas.edu
*** at Thu Nov  4 14:00:47 2021

   => Loading Basis Set <=

    Name: MINIX
    Role: ORBITAL
    Keyword: BASIS
    atoms 1-2, 4, 6, 8-20 entry C          line    74 file /home/bdw2292/miniconda3/envs/amoebamdpoltype/share/psi4/basis/minix.gbs 
    atoms 3, 7            entry N          line    88 file /home/bdw2292/miniconda3/envs/amoebamdpoltype/share/psi4/basis/minix.gbs 
    atoms 5, 21, 23-34    entry H          line    24 file /home/bdw2292/miniconda3/envs/amoebamdpoltype/share/psi4/basis/minix.gbs 
    atoms 22              entry O          line   102 file /home/bdw2292/miniconda3/envs/amoebamdpoltype/share/psi4/basis/minix.gbs 


         ---------------------------------------------------------
                                   SCF
               by Justin Turney, Rob Parrish, Andy Simmonett
                          and Daniel G. A. Smith
                              RHF Reference
                       12 Threads,  95367 MiB Core
         ---------------------------------------------------------

  ==> Geometry <==

    Molecular point group: c1
    Full point group: C1

    Geometry (in Angstrom), charge = 0, multiplicity = 1:

       Center              X                  Y                   Z               Mass       
    ------------   -----------------  -----------------  -----------------  -----------------
         C            1.525073948115    -0.092108711847     1.109431530179    12.000000000000
         C            0.749673948115     0.408391288153     0.176031530179    12.000000000000
         N           -0.562926051885     0.848991288153     0.645231530179    14.003074004430
         C           -1.759226051885     0.159991288153     0.358631530179    12.000000000000
         H           -0.531226051885     1.722291288153     1.214031530179     1.007825032230
         C            2.880273948115    -0.623708711847     1.076431530179    12.000000000000
         N            2.181673948115    -0.920408711847     3.198931530179    14.003074004430
         C            1.106573948115    -0.307008711847     2.521731530179    12.000000000000
         C            3.261973948115    -1.113008711847     2.316431530179    12.000000000000
         C            0.955473948115     0.525691288153    -1.244268469821    12.000000000000
         C            1.294873948115    -0.478008711847    -2.119168469821    12.000000000000
         C            0.777373948115     1.803391288153    -1.775368469821    12.000000000000
         C            1.459273948115    -0.264008711847    -3.469868469821    12.000000000000
         C            0.943773948115     1.994591288153    -3.108368469821    12.000000000000
         C            1.281073948115     0.998191288153    -3.982468469821    12.000000000000
         C           -1.809526051885    -1.026808711847    -0.305868469821    12.000000000000
         C           -2.958726051885     0.740591288153     0.770531530179    12.000000000000
         C           -3.030426051885    -1.628008711847    -0.559068469821    12.000000000000
         C           -4.159126051885     0.122191288153     0.507131530179    12.000000000000
         C           -4.250826051885    -1.079008711847    -0.163868469821    12.000000000000
         H            2.183073948115    -1.192108711847     4.203831530179     1.007825032230
         O            0.002073948115     0.001491288153     3.015531530179    15.994914619570
         H            1.437673948115    -1.472008711847    -1.732568469821     1.007825032230
         H            0.511873948115     2.640391288153    -1.143868469821     1.007825032230
         H            1.727173948115    -1.076208711847    -4.134968469821     1.007825032230
         H            0.803773948115     2.986991288153    -3.520268469821     1.007825032230
         H            1.406673948115     1.179691288153    -5.046668469821     1.007825032230
         H           -0.883226051885    -1.517808711847    -0.636968469821     1.007825032230
         H           -2.914126051885     1.675791288153     1.292031530179     1.007825032230
         H           -3.073926051885    -2.575908711847    -1.089868469821     1.007825032230
         H           -5.062026051885     0.627391288153     0.865031530179     1.007825032230
         H            3.480373948115    -0.634908711847     0.236931530179     1.007825032230
         H            4.171873948115    -1.540408711847     2.549931530179     1.007825032230
         H           -5.154426051885    -1.537608711847    -0.359168469821     1.007825032230

  Running in c1 symmetry.

  Rotational constants: A =      0.01217  B =      0.01136  C =      0.00686 [cm^-1]
  Rotational constants: A =    364.81659  B =    340.63009  C =    205.70211 [MHz]
  Nuclear repulsion = 1433.884980321438434

  Charge       = 0
  Multiplicity = 1
  Electrons    = 138
  Nalpha       = 69
  Nbeta        = 69

  ==> Algorithm <==

  SCF Algorithm Type is DF.
  DIIS enabled.
  MOM disabled.
  Fractional occupation disabled.
  Guess Type is SAD.
  Energy threshold   = 1.00e-06
  Density threshold  = 1.00e-06
  Integral threshold = 0.00e+00

  ==> Primary Basis <==

  Basis Set: MINIX
    Blend: MINIX
    Number of shells: 74
    Number of basis function: 114
    Number of Cartesian functions: 114
    Spherical Harmonics?: true
    Max angular momentum: 1

   => Loading Basis Set <=

    Name: (MINIX AUX)
    Role: JKFIT
    Keyword: DF_BASIS_SCF
    atoms 1-2, 4, 6, 8-20 entry C          line   203 file /home/bdw2292/miniconda3/envs/amoebamdpoltype/share/psi4/basis/def2-svp-jkfit.gbs 
    atoms 3, 7            entry N          line   263 file /home/bdw2292/miniconda3/envs/amoebamdpoltype/share/psi4/basis/def2-svp-jkfit.gbs 
    atoms 5, 21, 23-34    entry H          line    23 file /home/bdw2292/miniconda3/envs/amoebamdpoltype/share/psi4/basis/def2-svp-jkfit.gbs 
    atoms 22              entry O          line   323 file /home/bdw2292/miniconda3/envs/amoebamdpoltype/share/psi4/basis/def2-svp-jkfit.gbs 

  ==> Pre-Iterations <==

   -------------------------------------------------------
    Irrep   Nso     Nmo     Nalpha   Nbeta   Ndocc  Nsocc
   -------------------------------------------------------
     A        114     114       0       0       0       0
   -------------------------------------------------------
    Total     114     114      69      69      69       0
   -------------------------------------------------------

  ==> Integral Setup <==

  DFHelper Memory: AOs need 0.181 GiB; user supplied 69.849 GiB. Using in-core AOs.

  ==> MemDFJK: Density-Fitted J/K Matrices <==

    J tasked:                   Yes
    K tasked:                   Yes
    wK tasked:                   No
    OpenMP threads:              12
    Memory [MiB]:             71525
    Algorithm:                 Core
    Schwarz Cutoff:           1E-12
    Mask sparsity (%):       9.4798
    Fitting Condition:        1E-10

   => Auxiliary Basis Set <=

  Basis Set: (MINIX AUX)
    Blend: DEF2-SVP-JKFIT
    Number of shells: 584
    Number of basis function: 1758
    Number of Cartesian functions: 2072
    Spherical Harmonics?: true
    Max angular momentum: 4

  Minimum eigenvalue in the overlap matrix is 1.6067578044E-01.
  Using Symmetric Orthogonalization.

  SCF Guess: Superposition of Atomic Densities via on-the-fly atomic UHF.

  ==> Iterations <==

                           Total Energy        Delta E     RMS |[F,P]|

   @DF-RHF iter SAD:  -821.55662690854456   -8.21557e+02   0.00000e+00 
   @DF-RHF iter   1:  -829.63810269324142   -8.08148e+00   4.43878e-03 DIIS
   @DF-RHF iter   2:  -829.76761470318240   -1.29512e-01   3.31620e-03 DIIS
   @DF-RHF iter   3:  -829.84453558115354   -7.69209e-02   4.09742e-04 DIIS
   @DF-RHF iter   4:  -829.84777732722341   -3.24175e-03   1.81916e-04 DIIS
   @DF-RHF iter   5:  -829.84834080082544   -5.63474e-04   7.32029e-05 DIIS
   @DF-RHF iter   6:  -829.84845762579687   -1.16825e-04   2.58682e-05 DIIS
   @DF-RHF iter   7:  -829.84847124930877   -1.36235e-05   1.07710e-05 DIIS
   @DF-RHF iter   8:  -829.84847385418936   -2.60488e-06   3.71227e-06 DIIS
   @DF-RHF iter   9:  -829.84847422848509   -3.74296e-07   1.74835e-06 DIIS
   @DF-RHF iter  10:  -829.84847428864634   -6.01613e-08   6.31522e-07 DIIS
  Energy and wave function converged.


  ==> Post-Iterations <==

    Orbital Energies [Eh]
    ---------------------

    Doubly Occupied:                                                      

       1A    -20.305679     2A    -15.457456     3A    -15.399568  
       4A    -11.321015     5A    -11.246644     6A    -11.235359  
       7A    -11.231539     8A    -11.206038     9A    -11.199021  
      10A    -11.188533    11A    -11.187933    12A    -11.187127  
      13A    -11.185135    14A    -11.182173    15A    -11.165397  
      16A    -11.164956    17A    -11.158120    18A    -11.151029  
      19A    -11.148906    20A    -11.148240    21A     -1.368408  
      22A     -1.257950    23A     -1.233384    24A     -1.186130  
      25A     -1.145606    26A     -1.087493    27A     -1.049985  
      28A     -1.037080    29A     -1.009155    30A     -1.006055  
      31A     -0.975483    32A     -0.907738    33A     -0.842387  
      34A     -0.837951    35A     -0.821565    36A     -0.805184  
      37A     -0.793641    38A     -0.750260    39A     -0.713586  
      40A     -0.704997    41A     -0.697328    42A     -0.660812  
      43A     -0.655070    44A     -0.647372    45A     -0.632136  
      46A     -0.613420    47A     -0.608610    48A     -0.597886  
      49A     -0.597337    50A     -0.590081    51A     -0.585185  
      52A     -0.570192    53A     -0.567784    54A     -0.552819  
      55A     -0.537296    56A     -0.529515    57A     -0.511775  
      58A     -0.501510    59A     -0.489886    60A     -0.463105  
      61A     -0.451111    62A     -0.445820    63A     -0.427631  
      64A     -0.392264    65A     -0.365242    66A     -0.360985  
      67A     -0.339348    68A     -0.297467    69A     -0.273529  

    Virtual:                                                              

      70A      0.091168    71A      0.181576    72A      0.191728  
      73A      0.204850    74A      0.221117    75A      0.256000  
      76A      0.356634    77A      0.420721    78A      0.457896  
      79A      0.483213    80A      0.503973    81A      0.529449  
      82A      0.557530    83A      0.592194    84A      0.599794  
      85A      0.612659    86A      0.636587    87A      0.643520  
      88A      0.654270    89A      0.664271    90A      0.684837  
      91A      0.688637    92A      0.701238    93A      0.705855  
      94A      0.710682    95A      0.726176    96A      0.740674  
      97A      0.751645    98A      0.802996    99A      0.835349  
     100A      0.862486   101A      0.879509   102A      0.886851  
     103A      0.890666   104A      0.913869   105A      0.916948  
     106A      0.924832   107A      0.930724   108A      0.950536  
     109A      1.013506   110A      1.081244   111A      1.098851  
     112A      1.131718   113A      1.157353   114A      1.164906  

    Final Occupation by Irrep:
              A 
    DOCC [    69 ]

  @DF-RHF Final Energy:  -829.84847428864634

   => Energetics <=

    Nuclear Repulsion Energy =           1433.8849803214384337
    One-Electron Energy =               -3975.5340980484511419
    Two-Electron Energy =                1711.8006434383664782
    Total Energy =                       -829.8484742886462300

Computation Completed


Properties will be evaluated at  -0.000000,  -0.000000,  -0.000000 [a0]

Properties computed using the HF density matrix

  Nuclear Dipole Moment: [e a0]
     X:    -1.7826      Y:    -0.6695      Z:    -6.8426

  Electronic Dipole Moment: [e a0]
     X:     3.1930      Y:     0.6652      Z:     6.6656

  Dipole Moment: [e a0]
     X:     1.4104      Y:    -0.0044      Z:    -0.1770     Total:     1.4215

  Dipole Moment: [D]
     X:     3.5848      Y:    -0.0111      Z:    -0.4499     Total:     3.6130


*** tstop() called on node44.bme.utexas.edu at Thu Nov  4 14:00:53 2021
Module time:
	user time   =      42.25 seconds =       0.70 minutes
	system time =       2.04 seconds =       0.03 minutes
	total time  =          6 seconds =       0.10 minutes
Total time:
	user time   =      42.25 seconds =       0.70 minutes
	system time =       2.04 seconds =       0.03 minutes
	total time  =          6 seconds =       0.10 minutes
  ==> One Electron Grid Properties (v2.0) <==

  ==> CubicScalarGrid <==

    Filepath     = .
    Total Points =          1576380
    XYZ Blocking =               10
    X Points     =              130
    Y Points     =               94
    Z Points     =              129
    X Spacing    =        2.000E-01
    Y Spacing    =        2.000E-01
    Z Spacing    =        2.000E-01
    X Minimum    =       -1.383E+01
    Y Minimum    =       -8.912E+00
    Z Minimum    =       -1.360E+01
    X Maximum    =        1.197E+01
    Y Maximum    =        9.688E+00
    Z Maximum    =        1.200E+01

  Basis Set: MINIX
    Blend: MINIX
    Number of shells: 74
    Number of basis function: 114
    Number of Cartesian functions: 114
    Spherical Harmonics?: true
    Max angular momentum: 1



Properties will be evaluated at  -0.000000,  -0.000000,  -0.000000 [a0]
OEProp: No title given, name of density matrix used for the following properties is 'SCF density'
  Mulliken Charges: (a.u.)
   Center  Symbol    Alpha    Beta     Spin     Total
       1     C     3.02651  3.02651  0.00000 -0.05303
       2     C     2.93608  2.93608  0.00000  0.12783
       3     N     3.69060  3.69060  0.00000 -0.38120
       4     C     2.93917  2.93917  0.00000  0.12167
       5     H     0.37157  0.37157  0.00000  0.25685
       6     C     3.09140  3.09140  0.00000 -0.18279
       7     N     3.70294  3.70294  0.00000 -0.40588
       8     C     2.80609  2.80609  0.00000  0.38783
       9     C     3.00717  3.00717  0.00000 -0.01434
      10     C     3.01528  3.01528  0.00000 -0.03055
      11     C     3.06416  3.06416  0.00000 -0.12833
      12     C     3.05875  3.05875  0.00000 -0.11750
      13     C     3.06904  3.06904  0.00000 -0.13808
      14     C     3.07105  3.07105  0.00000 -0.14211
      15     C     3.06734  3.06734  0.00000 -0.13467
      16     C     3.08643  3.08643  0.00000 -0.17286
      17     C     3.08021  3.08021  0.00000 -0.16042
      18     C     3.05847  3.05847  0.00000 -0.11694
      19     C     3.06145  3.06145  0.00000 -0.12290
      20     C     3.08918  3.08918  0.00000 -0.17836
      21     H     0.35965  0.35965  0.00000  0.28070
      22     O     4.19716  4.19716  0.00000 -0.39432
      23     H     0.42796  0.42796  0.00000  0.14407
      24     H     0.42723  0.42723  0.00000  0.14554
      25     H     0.42775  0.42775  0.00000  0.14450
      26     H     0.42927  0.42927  0.00000  0.14146
      27     H     0.42663  0.42663  0.00000  0.14674
      28     H     0.43117  0.43117  0.00000  0.13766
      29     H     0.43381  0.43381  0.00000  0.13238
      30     H     0.43239  0.43239  0.00000  0.13522
      31     H     0.43184  0.43184  0.00000  0.13633
      32     H     0.43041  0.43041  0.00000  0.13919
      33     H     0.41976  0.41976  0.00000  0.16049
      34     H     0.43209  0.43209  0.00000  0.13583

   Total alpha = 69.00000, Total beta = 69.00000, Total charge =  0.00000



  Wiberg Bond Indices using Orthogonal Lowdin Orbitals:

  Irrep: 1 Size: 34 x 34

                 1                   2                   3                   4                   5

    1     0.00000000000000     1.73187041492021     0.01916728279455     0.00901878380813     0.00684317506203
    2     1.73187041492021     0.00000000000000     1.00507688190674     0.00173562613698     0.00089843893879
    3     0.01916728279455     1.00507688190674     0.00000000000000     1.09140877423191     0.94180880368380
    4     0.00901878380813     0.00173562613698     1.09140877423191     0.00000000000000     0.00036043088859
    5     0.00684317506203     0.00089843893879     0.94180880368380     0.00036043088859     0.00000000000000
    6     1.08766221395153     0.00578769017002     0.01316148898878     0.00044329707625     0.00006103340516
    7     0.01307953794772     0.00411306392126     0.00069146595298     0.00005265247916     0.00007676504748
    8     1.00788770289924     0.01350136125401     0.00845543339385     0.00050991474971     0.00020169465379
    9     0.00375455306531     0.07741912022259     0.00327251748467     0.00141420881403     0.00130879213888
   10     0.00394004426703     1.02959600730953     0.01158299239389     0.00094445712522     0.00132498515700
   11     0.01862770957695     0.00317462150395     0.00995653871365     0.00023428052856     0.00036854581039
   12     0.02020576008174     0.00460787311206     0.00610922325551     0.00018804370690     0.00034141936390
   13     0.00048509406604     0.00726527077782     0.00050307138709     0.00002403137470     0.00004863484091
   14     0.00081348765451     0.00665717409685     0.00080266016273     0.00002090858707     0.00002149568081
   15     0.00708674220098     0.00050936044670     0.00287432809125     0.00010655022849     0.00018224832024
   16     0.00211128725836     0.00178006351336     0.04288277322299     1.39699360709124     0.00589462554925
   17     0.00132105456375     0.00686273629926     0.03571813252832     1.34559432367094     0.00176720677377
   18     0.00001162833722     0.00008935920121     0.00878064201869     0.00503696494387     0.00056742451780
   19     0.00019799927495     0.00079388896659     0.00806676476500     0.00399595696341     0.00004837844013
   20     0.00089799091104     0.00034454894496     0.02172779564155     0.09932112797875     0.00007678692165
   21     0.00735120297698     0.00031581431260     0.00008237708396     0.00000094748373     0.00000233792950
   22     0.03858668603642     0.07235574818717     0.00366508325528     0.00153806617617     0.00230044039484
   23     0.00012572399492     0.00303920131515     0.00015380266137     0.00000182259031     0.00002954888307
   24     0.00018859816288     0.00251665697585     0.00023231440900     0.00000105070796     0.00001131079745
   25     0.00015771065448     0.00032389029220     0.00014833643868     0.00000252515092     0.00000346698730
   26     0.00035132334016     0.00037652543175     0.00000893529347     0.00000191659868     0.00000091653829
   27     0.00000270011022     0.00013142432744     0.00000443990128     0.00000053171079     0.00000100281257
   28     0.00001327227224     0.00113039427282     0.00402739563729     0.00069085512155     0.00015902442411
   29     0.00004367134815     0.00019035188503     0.00328393215007     0.00056763085738     0.00066144613971
   30     0.00003038438915     0.00000981931197     0.00042837904040     0.00700108585921     0.00022420295790
   31     0.00004189311151     0.00022669462056     0.00033371811111     0.00767280629138     0.00002685497975
   32     0.00075503759292     0.00087132059417     0.00001420812546     0.00000160803453     0.00000000663971
   33     0.00645319670151     0.00012607224896     0.00029821484554     0.00001530056830     0.00000091646579
   34     0.00000226249518     0.00001053017053     0.00015830500300     0.00015755704485     0.00000423152497

                 6                   7                   8                   9                  10

    1     1.08766221395153     0.01307953794772     1.00788770289924     0.00375455306531     0.00394004426703
    2     0.00578769017002     0.00411306392126     0.01350136125401     0.07741912022259     1.02959600730953
    3     0.01316148898878     0.00069146595298     0.00845543339385     0.00327251748467     0.01158299239389
    4     0.00044329707625     0.00005265247916     0.00050991474971     0.00141420881403     0.00094445712522
    5     0.00006103340516     0.00007676504748     0.00020169465379     0.00130879213888     0.00132498515700
    6     0.00000000000000     0.08227129068524     0.00958232826328     1.77910785930069     0.00275895681719
    7     0.08227129068524     0.00000000000000     1.09028866221544     1.10246268876457     0.00059930849519
    8     0.00958232826328     1.09028866221544     0.00000000000000     0.00632021533293     0.00905094385698
    9     1.77910785930069     1.10246268876457     0.00632021533293     0.00000000000000     0.00026299899785
   10     0.00275895681719     0.00059930849519     0.00905094385698     0.00026299899785     0.00000000000000
   11     0.00012857693871     0.00015467262879     0.00071044512326     0.00312668276345     1.42458069346431
   12     0.00017492937273     0.00018107713043     0.00085852390883     0.00295579496399     1.36395936209309
   13     0.00010771712037     0.00001999804416     0.00011655131561     0.00004631165739     0.00379288732371
   14     0.00008812313583     0.00001950954994     0.00017076664154     0.00014848648000     0.00397507626397
   15     0.00004944707196     0.00010152559507     0.00041260968716     0.00159142846437     0.11190298826912
   16     0.00015549614975     0.00002297965491     0.00013690501272     0.00039139065482     0.00126083260148
   17     0.00026535048643     0.00002359329470     0.00015461095313     0.00027673014146     0.00071005665632
   18     0.00001028428925     0.00000187619149     0.00001015046519     0.00000156110903     0.00005254735246
   19     0.00004552670606     0.00000250689299     0.00002933965790     0.00003564158647     0.00005131100776
   20     0.00006833974973     0.00001276663227     0.00005279967232     0.00021293680373     0.00047178860595
   21     0.00574747328012     0.94128164004998     0.00029645259804     0.00034593432064     0.00022855900217
   22     0.01083257164443     0.12741897661347     1.80004849260379     0.01121224618701     0.00061915952240
   23     0.00010551029817     0.00001030544492     0.00006638367035     0.00002415729121     0.00087325496343
   24     0.00001939165386     0.00000942908347     0.00006047453560     0.00001078574885     0.00061417453054
   25     0.00000604309318     0.00000283247740     0.00001333672370     0.00003892368309     0.00711699272532
   26     0.00000800673277     0.00000478847883     0.00004183422388     0.00006028180965     0.00820522462326
   27     0.00000065465977     0.00000048701203     0.00000179605827     0.00000220526513     0.00019193963524
   28     0.00001598034766     0.00000063252550     0.00001259470789     0.00000214629627     0.00025538835709
   29     0.00000979913191     0.00000033825467     0.00000744661867     0.00000943776941     0.00000374439002
   30     0.00000007126103     0.00000010962751     0.00000264294331     0.00000822316218     0.00000641117706
   31     0.00001013460181     0.00000055441725     0.00000677196655     0.00000920979241     0.00000167697096
   32     0.97320052888687     0.00702442968465     0.00616190597409     0.00134101660332     0.00011823107379
   33     0.00149477964081     0.00066376858325     0.00610903241040     0.97156055392716     0.00002474299946
   34     0.00000074571513     0.00000009018715     0.00000046460158     0.00000034004444     0.00000094797138

                11                  12                  13                  14                  15

    1     0.01862770957695     0.02020576008174     0.00048509406604     0.00081348765451     0.00708674220098
    2     0.00317462150395     0.00460787311206     0.00726527077782     0.00665717409685     0.00050936044670
    3     0.00995653871365     0.00610922325551     0.00050307138709     0.00080266016273     0.00287432809125
    4     0.00023428052856     0.00018804370690     0.00002403137470     0.00002090858707     0.00010655022849
    5     0.00036854581039     0.00034141936390     0.00004863484091     0.00002149568081     0.00018224832024
    6     0.00012857693871     0.00017492937273     0.00010771712037     0.00008812313583     0.00004944707196
    7     0.00015467262879     0.00018107713043     0.00001999804416     0.00001950954994     0.00010152559507
    8     0.00071044512326     0.00085852390883     0.00011655131561     0.00017076664154     0.00041260968716
    9     0.00312668276345     0.00295579496399     0.00004631165739     0.00014848648000     0.00159142846437
   10     1.42458069346431     1.36395936209309     0.00379288732371     0.00397507626397     0.11190298826912
   11     0.00000000000000     0.00439946616630     1.42456225015011     0.10485576396972     0.00396787360822
   12     0.00439946616630     0.00000000000000     0.11517556368924     1.47269259876614     0.00422088374146
   13     1.42456225015011     0.11517556368924     0.00000000000000     0.00443103562771     1.44988568633375
   14     0.10485576396972     1.47269259876614     0.00443103562771     0.00000000000000     1.41380552469827
   15     0.00396787360822     0.00422088374146     1.44988568633375     1.41380552469827     0.00000000000000
   16     0.00045589397787     0.00018960122746     0.00027272525112     0.00013658821600     0.00009561889476
   17     0.00015913997096     0.00011351372975     0.00003186362749     0.00002762558300     0.00004036768878
   18     0.00005960937571     0.00006012571676     0.00001658942973     0.00001304517311     0.00003862877837
   19     0.00006863933849     0.00006353672382     0.00000368098154     0.00000147107731     0.00004425903602
   20     0.00006403162581     0.00003353695160     0.00003093601861     0.00002045149730     0.00000655846728
   21     0.00002677315092     0.00003851945532     0.00000221024020     0.00000684842596     0.00001790544775
   22     0.00312084613159     0.00315632769664     0.00008695974761     0.00016083451676     0.00156532010060
   23     0.96515463724047     0.00787980541576     0.00113713171805     0.00036026745026     0.00743892868834
   24     0.00649542373780     0.96669325473365     0.00028012120389     0.00130351467643     0.00766191637988
   25     0.00092853155626     0.00028134862554     0.96595401469085     0.00731846381354     0.00104508086808
   26     0.00036062632627     0.00126007090169     0.00786122828801     0.96326525295943     0.00114350491919
   27     0.00735576116491     0.00727914309859     0.00095859310222     0.00100917732777     0.96583661572159
   28     0.00040823949503     0.00011556882477     0.00001246281487     0.00000283490266     0.00000958900653
   29     0.00000721344596     0.00000510975451     0.00000087616485     0.00000058200568     0.00000229015240
   30     0.00000297051400     0.00000150209563     0.00000290093575     0.00000253191785     0.00000127528623
   31     0.00000362549174     0.00000436457177     0.00000049421538     0.00000008206202     0.00000225390587
   32     0.00009696320888     0.00000205006477     0.00000919185439     0.00000179778676     0.00000240341336
   33     0.00000177766534     0.00000042610260     0.00000027070305     0.00000030831666     0.00000044513923
   34     0.00000173647629     0.00000251936177     0.00000097136542     0.00000061311875     0.00000166261084

                16                  17                  18                  19                  20

    1     0.00211128725836     0.00132105456375     0.00001162833722     0.00019799927495     0.00089799091104
    2     0.00178006351336     0.00686273629926     0.00008935920121     0.00079388896659     0.00034454894496
    3     0.04288277322299     0.03571813252832     0.00878064201869     0.00806676476500     0.02172779564155
    4     1.39699360709124     1.34559432367094     0.00503696494387     0.00399595696341     0.09932112797875
    5     0.00589462554925     0.00176720677377     0.00056742451780     0.00004837844013     0.00007678692165
    6     0.00015549614975     0.00026535048643     0.00001028428925     0.00004552670606     0.00006833974973
    7     0.00002297965491     0.00002359329470     0.00000187619149     0.00000250689299     0.00001276663227
    8     0.00013690501272     0.00015461095313     0.00001015046519     0.00002933965790     0.00005279967232
    9     0.00039139065482     0.00027673014146     0.00000156110903     0.00003564158647     0.00021293680373
   10     0.00126083260148     0.00071005665632     0.00005254735246     0.00005131100776     0.00047178860595
   11     0.00045589397787     0.00015913997096     0.00005960937571     0.00006863933849     0.00006403162581
   12     0.00018960122746     0.00011351372975     0.00006012571676     0.00006353672382     0.00003353695160
   13     0.00027272525112     0.00003186362749     0.00001658942973     0.00000368098154     0.00003093601861
   14     0.00013658821600     0.00002762558300     0.00001304517311     0.00000147107731     0.00002045149730
   15     0.00009561889476     0.00004036768878     0.00003862877837     0.00004425903602     0.00000655846728
   16     0.00000000000000     0.00610848897973     1.43382718650140     0.10018038057483     0.00657061134052
   17     0.00610848897973     0.00000000000000     0.11463162357035     1.47388619759624     0.00673003549232
   18     1.43382718650140     0.11463162357035     0.00000000000000     0.00428126766839     1.43911743515778
   19     0.10018038057483     1.47388619759624     0.00428126766839     0.00000000000000     1.41630263451362
   20     0.00657061134052     0.00673003549232     1.43911743515778     1.41630263451362     0.00000000000000
   21     0.00000040998856     0.00000114701737     0.00000003119741     0.00000024971824     0.00000005983519
   22     0.00054104808016     0.00044699082849     0.00001504265926     0.00003359104734     0.00033155123588
   23     0.00008576426426     0.00000740101467     0.00000169749802     0.00000026572321     0.00000688264024
   24     0.00000811681842     0.00000440865863     0.00000005818465     0.00000006379395     0.00000303824116
   25     0.00000998107294     0.00000864157389     0.00000022915904     0.00000029342285     0.00000611890974
   26     0.00000169378853     0.00000085467398     0.00000010788019     0.00000015225110     0.00000064391717
   27     0.00000175049740     0.00000025306616     0.00000005090215     0.00000001167611     0.00000012963407
   28     0.96292248112143     0.00787640745399     0.00103822775771     0.00031675350425     0.00748162741039
   29     0.00593906250178     0.96845735508752     0.00040206206157     0.00123512796113     0.00719026211325
   30     0.00082259202178     0.00041173811428     0.96791704692999     0.00708691016715     0.00086389712071
   31     0.00032071933406     0.00102983031541     0.00810631990335     0.96567136322903     0.00090988208320
   32     0.00000010624894     0.00000047544634     0.00000000247360     0.00000007666143     0.00000000301921
   33     0.00000690270754     0.00000952401566     0.00000012770783     0.00000166043749     0.00000346070888
   34     0.00625820877449     0.00674901152213     0.00113337774065     0.00127225016388     0.97044542338969

                21                  22                  23                  24                  25

    1     0.00735120297698     0.03858668603642     0.00012572399492     0.00018859816288     0.00015771065448
    2     0.00031581431260     0.07235574818717     0.00303920131515     0.00251665697585     0.00032389029220
    3     0.00008237708396     0.00366508325528     0.00015380266137     0.00023231440900     0.00014833643868
    4     0.00000094748373     0.00153806617617     0.00000182259031     0.00000105070796     0.00000252515092
    5     0.00000233792950     0.00230044039484     0.00002954888307     0.00001131079745     0.00000346698730
    6     0.00574747328012     0.01083257164443     0.00010551029817     0.00001939165386     0.00000604309318
    7     0.94128164004998     0.12741897661347     0.00001030544492     0.00000942908347     0.00000283247740
    8     0.00029645259804     1.80004849260379     0.00006638367035     0.00006047453560     0.00001333672370
    9     0.00034593432064     0.01121224618701     0.00002415729121     0.00001078574885     0.00003892368309
   10     0.00022855900217     0.00061915952240     0.00087325496343     0.00061417453054     0.00711699272532
   11     0.00002677315092     0.00312084613159     0.96515463724047     0.00649542373780     0.00092853155626
   12     0.00003851945532     0.00315632769664     0.00787980541576     0.96669325473365     0.00028134862554
   13     0.00000221024020     0.00008695974761     0.00113713171805     0.00028012120389     0.96595401469085
   14     0.00000684842596     0.00016083451676     0.00036026745026     0.00130351467643     0.00731846381354
   15     0.00001790544775     0.00156532010060     0.00743892868834     0.00766191637988     0.00104508086808
   16     0.00000040998856     0.00054104808016     0.00008576426426     0.00000811681842     0.00000998107294
   17     0.00000114701737     0.00044699082849     0.00000740101467     0.00000440865863     0.00000864157389
   18     0.00000003119741     0.00001504265926     0.00000169749802     0.00000005818465     0.00000022915904
   19     0.00000024971824     0.00003359104734     0.00000026572321     0.00000006379395     0.00000029342285
   20     0.00000005983519     0.00033155123588     0.00000688264024     0.00000303824116     0.00000611890974
   21     0.00000000000000     0.00120655529237     0.00000216103262     0.00000258546128     0.00000030977229
   22     0.00120655529237     0.00000000000000     0.00001263094395     0.00001304765108     0.00003460753240
   23     0.00000216103262     0.00001263094395     0.00000000000000     0.00058374129929     0.00402060260154
   24     0.00000258546128     0.00001304765108     0.00058374129929     0.00000000000000     0.00011741417983
   25     0.00000030977229     0.00003460753240     0.00402060260154     0.00011741417983     0.00000000000000
   26     0.00000152960904     0.00006469767772     0.00010000496242     0.00437021657576     0.00051608186098
   27     0.00000004907833     0.00000059521261     0.00044121750743     0.00034668148773     0.00359736404983
   28     0.00000021330025     0.00000252132550     0.00019630381166     0.00000042653069     0.00000008810547
   29     0.00000005661196     0.00000851280448     0.00000012157852     0.00000000161499     0.00000001292847
   30     0.00000000240770     0.00000661841167     0.00000034560995     0.00000000082208     0.00000002231402
   31     0.00000006231724     0.00000814017957     0.00000000000497     0.00000000071892     0.00000007167202
   32     0.00059355447024     0.00102048110004     0.00000259932949     0.00000167746564     0.00000018195912
   33     0.00099455297657     0.00103814743044     0.00000032504455     0.00000013445488     0.00000007823836
   34     0.00000000709142     0.00000035028603     0.00000001961855     0.00000000319257     0.00000000753711

                26                  27                  28                  29                  30

    1     0.00035132334016     0.00000270011022     0.00001327227224     0.00004367134815     0.00003038438915
    2     0.00037652543175     0.00013142432744     0.00113039427282     0.00019035188503     0.00000981931197
    3     0.00000893529347     0.00000443990128     0.00402739563729     0.00328393215007     0.00042837904040
    4     0.00000191659868     0.00000053171079     0.00069085512155     0.00056763085738     0.00700108585921
    5     0.00000091653829     0.00000100281257     0.00015902442411     0.00066144613971     0.00022420295790
    6     0.00000800673277     0.00000065465977     0.00001598034766     0.00000979913191     0.00000007126103
    7     0.00000478847883     0.00000048701203     0.00000063252550     0.00000033825467     0.00000010962751
    8     0.00004183422388     0.00000179605827     0.00001259470789     0.00000744661867     0.00000264294331
    9     0.00006028180965     0.00000220526513     0.00000214629627     0.00000943776941     0.00000822316218
   10     0.00820522462326     0.00019193963524     0.00025538835709     0.00000374439002     0.00000641117706
   11     0.00036062632627     0.00735576116491     0.00040823949503     0.00000721344596     0.00000297051400
   12     0.00126007090169     0.00727914309859     0.00011556882477     0.00000510975451     0.00000150209563
   13     0.00786122828801     0.00095859310222     0.00001246281487     0.00000087616485     0.00000290093575
   14     0.96326525295943     0.00100917732777     0.00000283490266     0.00000058200568     0.00000253191785
   15     0.00114350491919     0.96583661572159     0.00000958900653     0.00000229015240     0.00000127528623
   16     0.00000169378853     0.00000175049740     0.96292248112143     0.00593906250178     0.00082259202178
   17     0.00000085467398     0.00000025306616     0.00787640745399     0.96845735508752     0.00041173811428
   18     0.00000010788019     0.00000005090215     0.00103822775771     0.00040206206157     0.96791704692999
   19     0.00000015225110     0.00000001167611     0.00031675350425     0.00123512796113     0.00708691016715
   20     0.00000064391717     0.00000012963407     0.00748162741039     0.00719026211325     0.00086389712071
   21     0.00000152960904     0.00000004907833     0.00000021330025     0.00000005661196     0.00000000240770
   22     0.00006469767772     0.00000059521261     0.00000252132550     0.00000851280448     0.00000661841167
   23     0.00010000496242     0.00044121750743     0.00019630381166     0.00000012157852     0.00000034560995
   24     0.00437021657576     0.00034668148773     0.00000042653069     0.00000000161499     0.00000000082208
   25     0.00051608186098     0.00359736404983     0.00000008810547     0.00000001292847     0.00000002231402
   26     0.00000000000000     0.00411708587833     0.00000003833244     0.00000000042245     0.00000000302894
   27     0.00411708587833     0.00000000000000     0.00000025988527     0.00000000052097     0.00000001056159
   28     0.00000003833244     0.00000025988527     0.00000000000000     0.00072172332595     0.00424001583434
   29     0.00000000042245     0.00000000052097     0.00072172332595     0.00000000000000     0.00005092915753
   30     0.00000000302894     0.00000001056159     0.00424001583434     0.00005092915753     0.00000000000000
   31     0.00000001390581     0.00000000567242     0.00011629769307     0.00410421794808     0.00064410323935
   32     0.00000043922888     0.00000007765931     0.00000000898168     0.00000000352663     0.00000000076059
   33     0.00000004383859     0.00000000195950     0.00000033147299     0.00000026665126     0.00000000245733
   34     0.00000000196666     0.00000000448055     0.00029423791530     0.00031436692389     0.00309697583825

                31                  32                  33                  34

    1     0.00004189311151     0.00075503759292     0.00645319670151     0.00000226249518
    2     0.00022669462056     0.00087132059417     0.00012607224896     0.00001053017053
    3     0.00033371811111     0.00001420812546     0.00029821484554     0.00015830500300
    4     0.00767280629138     0.00000160803453     0.00001530056830     0.00015755704485
    5     0.00002685497975     0.00000000663971     0.00000091646579     0.00000423152497
    6     0.00001013460181     0.97320052888687     0.00149477964081     0.00000074571513
    7     0.00000055441725     0.00702442968465     0.00066376858325     0.00000009018715
    8     0.00000677196655     0.00616190597409     0.00610903241040     0.00000046460158
    9     0.00000920979241     0.00134101660332     0.97156055392716     0.00000034004444
   10     0.00000167697096     0.00011823107379     0.00002474299946     0.00000094797138
   11     0.00000362549174     0.00009696320888     0.00000177766534     0.00000173647629
   12     0.00000436457177     0.00000205006477     0.00000042610260     0.00000251936177
   13     0.00000049421538     0.00000919185439     0.00000027070305     0.00000097136542
   14     0.00000008206202     0.00000179778676     0.00000030831666     0.00000061311875
   15     0.00000225390587     0.00000240341336     0.00000044513923     0.00000166261084
   16     0.00032071933406     0.00000010624894     0.00000690270754     0.00625820877449
   17     0.00102983031541     0.00000047544634     0.00000952401566     0.00674901152213
   18     0.00810631990335     0.00000000247360     0.00000012770783     0.00113337774065
   19     0.96567136322903     0.00000007666143     0.00000166043749     0.00127225016388
   20     0.00090988208320     0.00000000301921     0.00000346070888     0.97044542338969
   21     0.00000006231724     0.00059355447024     0.00099455297657     0.00000000709142
   22     0.00000814017957     0.00102048110004     0.00103814743044     0.00000035028603
   23     0.00000000000497     0.00000259932949     0.00000032504455     0.00000001961855
   24     0.00000000071892     0.00000167746564     0.00000013445488     0.00000000319257
   25     0.00000007167202     0.00000018195912     0.00000007823836     0.00000000753711
   26     0.00000001390581     0.00000043922888     0.00000004383859     0.00000000196666
   27     0.00000000567242     0.00000007765931     0.00000000195950     0.00000000448055
   28     0.00011629769307     0.00000000898168     0.00000033147299     0.00029423791530
   29     0.00410421794808     0.00000000352663     0.00000026665126     0.00031436692389
   30     0.00064410323935     0.00000000076059     0.00000000245733     0.00309697583825
   31     0.00000000000000     0.00000002061004     0.00000033812639     0.00337188057879
   32     0.00000002061004     0.00000000000000     0.00155660246972     0.00000000105299
   33     0.00000033812639     0.00155660246972     0.00000000000000     0.00000002124289
   34     0.00337188057879     0.00000000105299     0.00000002124289     0.00000000000000



  Atomic Valences: 

 #  #
 Irrep: 1
      1:  3.9890861
      2:  3.9837079
      3:  3.2448870
      4:  3.9750576
      5:  0.9656266
      6:  3.9733816
      7:  3.3705943
      8:  3.9612806
      9:  3.9687354
     10:  3.9890787
     11:  3.9836206
     12:  3.9832508
     13:  3.9831273
     14:  3.9821349
     15:  3.9816518
     16:  3.9763859
     17:  3.9794267
     18:  3.9852223
     19:  3.9837182
     20:  3.9793061
     21:  0.9585485
     22:  2.0814529
     23:  0.9918626
     24:  0.9915500
     25:  0.9916536
     26:  0.9921240
     27:  0.9912820
     28:  0.9920643
     29:  0.9932180
     30:  0.9928637
     31:  0.9926244
     32:  0.9927770
     33:  0.9903623
     34:  0.9932791


    Psi4 stopped on: Thursday, 04 November 2021 02:02PM
    Psi4 wall time for execution: 0:01:13.98

*** Psi4 exiting successfully. Buy a developer a beer!
