 Entering Gaussian System, Link 0=/opt/g09gh/gaussian/g09/g09
 Input=methanol-sp-2-1-152.com
 Output=methanol-sp-2-1-152.log
 Initial command:
 /opt/g09gh/gaussian/g09/l1.exe /scratch/bdw2292/Gau-methanol/Gau-15292.inp -scrdir=/scratch/bdw2292/Gau-methanol/
 Entering Link 1 = /opt/g09gh/gaussian/g09/l1.exe PID=     15293.
  
 Copyright (c) 1988,1990,1992,1993,1995,1998,2003,2009, Gaussian, Inc.
                  All Rights Reserved.
  
 This is part of the Gaussian(R) 09 program.  It is based on
 the Gaussian(R) 03 system (copyright 2003, Gaussian, Inc.),
 the Gaussian(R) 98 system (copyright 1998, Gaussian, Inc.),
 the Gaussian(R) 94 system (copyright 1995, Gaussian, Inc.),
 the Gaussian 92(TM) system (copyright 1992, Gaussian, Inc.),
 the Gaussian 90(TM) system (copyright 1990, Gaussian, Inc.),
 the Gaussian 88(TM) system (copyright 1988, Gaussian, Inc.),
 the Gaussian 86(TM) system (copyright 1986, Carnegie Mellon
 University), and the Gaussian 82(TM) system (copyright 1983,
 Carnegie Mellon University). Gaussian is a federally registered
 trademark of Gaussian, Inc.
  
 This software contains proprietary and confidential information,
 including trade secrets, belonging to Gaussian, Inc.
  
 This software is provided under written license and may be
 used, copied, transmitted, or stored only in accord with that
 written license.
  
 The following legend is applicable only to US Government
 contracts under FAR:
  
                    RESTRICTED RIGHTS LEGEND
  
 Use, reproduction and disclosure by the US Government is
 subject to restrictions as set forth in subparagraphs (a)
 and (c) of the Commercial Computer Software - Restricted
 Rights clause in FAR 52.227-19.
  
 Gaussian, Inc.
 340 Quinnipiac St., Bldg. 40, Wallingford CT 06492
  
  
 ---------------------------------------------------------------
 Warning -- This program may not be used in any manner that
 competes with the business of Gaussian, Inc. or will provide
 assistance to any competitor of Gaussian, Inc.  The licensee
 of this program is prohibited from giving any competitor of
 Gaussian, Inc. access to this program.  By using this program,
 the user acknowledges that Gaussian, Inc. is engaged in the
 business of creating and licensing software in the field of
 computational chemistry and represents and warrants to the
 licensee that it is not a competitor of Gaussian, Inc. and that
 it will not use this program in any manner prohibited above.
 ---------------------------------------------------------------
  

 Cite this work as:
 Gaussian 09, Revision A.02,
 M. J. Frisch, G. W. Trucks, H. B. Schlegel, G. E. Scuseria, 
 M. A. Robb, J. R. Cheeseman, G. Scalmani, V. Barone, B. Mennucci, 
 G. A. Petersson, H. Nakatsuji, M. Caricato, X. Li, H. P. Hratchian, 
 A. F. Izmaylov, J. Bloino, G. Zheng, J. L. Sonnenberg, M. Hada, 
 M. Ehara, K. Toyota, R. Fukuda, J. Hasegawa, M. Ishida, T. Nakajima, 
 Y. Honda, O. Kitao, H. Nakai, T. Vreven, J. A. Montgomery, Jr., 
 J. E. Peralta, F. Ogliaro, M. Bearpark, J. J. Heyd, E. Brothers, 
 K. N. Kudin, V. N. Staroverov, R. Kobayashi, J. Normand, 
 K. Raghavachari, A. Rendell, J. C. Burant, S. S. Iyengar, J. Tomasi, 
 M. Cossi, N. Rega, J. M. Millam, M. Klene, J. E. Knox, J. B. Cross, 
 V. Bakken, C. Adamo, J. Jaramillo, R. Gomperts, R. E. Stratmann, 
 O. Yazyev, A. J. Austin, R. Cammi, C. Pomelli, J. W. Ochterski, 
 R. L. Martin, K. Morokuma, V. G. Zakrzewski, G. A. Voth, 
 P. Salvador, J. J. Dannenberg, S. Dapprich, A. D. Daniels, 
 O. Farkas, J. B. Foresman, J. V. Ortiz, J. Cioslowski, 
 and D. J. Fox, Gaussian, Inc., Wallingford CT, 2009.
 
 ******************************************
 Gaussian 09:  EM64L-G09RevA.02 11-Jun-2009
                 8-Jan-2021 
 ******************************************
 %RWF=/scratch/bdw2292/Gau-methanol/,200GB
 %Nosave
 %Chk=methanol-sp-2-1-152.chk
 %Mem=100GB
 %Nproc=8
 Will use up to    8 processors via shared memory.
 ---------------------------------------------------------------------
 #P wB97XD/6-311+G* SP SCF=(qc,maxcycle=800) Pop=NBORead MaxDisk=200GB
 ---------------------------------------------------------------------
 1/38=1/1;
 2/12=2,17=6,18=5,40=1/2;
 3/5=4,6=6,7=11,11=2,16=1,25=1,30=1,74=-58/1,2,3;
 4//1;
 5/5=2,7=800,8=3,38=5/8;
 6/7=2,8=2,9=2,10=2,28=1,40=1/1,7;
 99/5=1,9=1/99;
 Leave Link    1 at Fri Jan  8 13:53:39 2021, MaxMem=13421772800 cpu:       0.5
 (Enter /opt/g09gh/gaussian/g09/l101.exe)
 ---------------------------------------------------------------
 methanol Rotatable Bond SP Calculation on node37.bme.utexas.edu
 ---------------------------------------------------------------
 Symbolic Z-matrix:
 Charge =  0 Multiplicity = 1
 O                     0.75602  -0.10955   0.01071 
 C                    -0.66018   0.00581  -0.00971 
 H                    -1.11816  -0.87987  -0.47431 
 H                    -0.98335   0.92049  -0.53054 
 H                    -1.04208   0.06898   1.02009 
 H                     1.13582   0.78308  -0.01395 
 
 NAtoms=      6 NQM=      6 NQMF=      0 NMic=      0 NMicF=      0 NTot=      6.
                    Isotopes and Nuclear Properties:
 (Nuclear quadrupole moments (NQMom) in fm**2, nuclear magnetic moments (NMagM)
  in nuclear magnetons)

  Atom         1           2           3           4           5           6
 IAtWgt=          16          12           1           1           1           1
 AtmWgt=  15.9949146  12.0000000   1.0078250   1.0078250   1.0078250   1.0078250
 NucSpn=           0           0           1           1           1           1
 AtZEff=   0.0000000   0.0000000   0.0000000   0.0000000   0.0000000   0.0000000
 NQMom=    0.0000000   0.0000000   0.0000000   0.0000000   0.0000000   0.0000000
 NMagM=    0.0000000   0.0000000   2.7928460   2.7928460   2.7928460   2.7928460
 Leave Link  101 at Fri Jan  8 13:53:39 2021, MaxMem=13421772800 cpu:       0.9
 (Enter /opt/g09gh/gaussian/g09/l202.exe)
                          Input orientation:                          
 ---------------------------------------------------------------------
 Center     Atomic      Atomic             Coordinates (Angstroms)
 Number     Number       Type             X           Y           Z
 ---------------------------------------------------------------------
      1          8           0        0.756018   -0.109548    0.010713
      2          6           0       -0.660178    0.005806   -0.009713
      3          1           0       -1.118161   -0.879865   -0.474313
      4          1           0       -0.983345    0.920488   -0.530540
      5          1           0       -1.042083    0.068975    1.020087
      6          1           0        1.135817    0.783077   -0.013946
 ---------------------------------------------------------------------
                    Distance matrix (angstroms):
                    1          2          3          4          5
     1  O    0.000000
     2  C    1.421033   0.000000
     3  H    2.083551   1.100007   0.000000
     4  H    2.092681   1.101064   1.806269   0.000000
     5  H    2.069752   1.100150   1.771812   1.770019   0.000000
     6  H    0.970379   1.956979   2.838614   2.185543   2.514441
                    6
     6  H    0.000000
 Stoichiometry    CH4O
 Framework group  C1[X(CH4O)]
 Deg. of freedom    12
 Full point group                 C1      NOp   1
 Largest Abelian subgroup         C1      NOp   1
 Largest concise Abelian subgroup C1      NOp   1
                         Standard orientation:                         
 ---------------------------------------------------------------------
 Center     Atomic      Atomic             Coordinates (Angstroms)
 Number     Number       Type             X           Y           Z
 ---------------------------------------------------------------------
      1          8           0        0.748973   -0.129130   -0.000236
      2          6           0       -0.664419    0.017930   -0.005860
      3          1           0       -1.145421   -0.843372   -0.492492
      4          1           0       -0.971008    0.954451   -0.497055
      5          1           0       -1.037183    0.059130    1.028393
      6          1           0        1.148342    0.755255   -0.001803
 ---------------------------------------------------------------------
 Rotational constants (GHZ):    126.9768121     24.7378861     23.7377026
 Leave Link  202 at Fri Jan  8 13:53:39 2021, MaxMem=13421772800 cpu:       0.0
 (Enter /opt/g09gh/gaussian/g09/l301.exe)
 Standard basis: 6-311+G(d) (5D, 7F)
 Ernie: Thresh=  0.10000D-02 Tol=  0.10000D-05 Strict=F.
 There are    56 symmetry adapted basis functions of A   symmetry.
 Integral buffers will be    131072 words long.
 Raffenetti 2 integral format.
 Two-electron integral symmetry is turned on.
    56 basis functions,    92 primitive gaussians,    58 cartesian basis functions
     9 alpha electrons        9 beta electrons
       nuclear repulsion energy        40.1455844999 Hartrees.
 IExCor= 4639 DFT=T Ex+Corr=wB97XD ExCW=0 ScaHFX=  1.000000
 ScaDFX=  1.000000  1.000000  1.000000  1.000000 ScalE2=  1.000000  1.000000
 IRadAn=      0 IRanWt=     -1 IRanGd=            0 ICorTp=0
  HFx wShort=  0.000000 wLong=  0.200000 cFull=  0.222036 cShort=  0.000000 cLong=  0.777964
  DFx wShort=  0.000000 wLong=  0.200000 cFull=  0.000000 cShort=  0.000000 cLong=  1.000000
 NAtoms=    6 NActive=    6 NUniq=    6 SFac= 7.50D-01 NAtFMM=   80 NAOKFM=F Big=F
 R6Disp: Dispersion energy =        -0.0008158384 Hartrees.
 Nuclear repulsion after empirical dispersion term =       40.1447686614 Hartrees.
 Leave Link  301 at Fri Jan  8 13:53:39 2021, MaxMem=13421772800 cpu:       0.5
 (Enter /opt/g09gh/gaussian/g09/l302.exe)
 NPDir=0 NMtPBC=     1 NCelOv=     1 NCel=       1 NClECP=     1 NCelD=      1
         NCelK=      1 NCelE2=     1 NClLst=     1 CellRange=     0.0.
 One-electron integrals computed using PRISM.
 NBasis=    56 RedAO= T  NBF=    56
 NBsUse=    56 1.00D-06 NBFU=    56
 Precomputing XC quadrature grid using
 IXCGrd= 2 IRadAn=           0 IRanWt=          -1 IRanGd=           0 AccXCQ= 1.00D-10.
 NRdTot=     384 NPtTot=       48764 NUsed=       51543 NTot=       51575
 NSgBfM=    58    58    58    58    58 NAtAll=     6     6.
 Leave Link  302 at Fri Jan  8 13:53:39 2021, MaxMem=13421772800 cpu:       1.3
 (Enter /opt/g09gh/gaussian/g09/l303.exe)
 DipDrv:  MaxL=1.
 Leave Link  303 at Fri Jan  8 13:53:39 2021, MaxMem=13421772800 cpu:       0.3
 (Enter /opt/g09gh/gaussian/g09/l401.exe)
 Harris functional with IExCor= 4639 diagonalized for initial guess.
 ExpMin= 4.38D-02 ExpMax= 8.59D+03 ExpMxC= 1.30D+03 IAcc=2 IRadAn=         0 AccDes= 0.00D+00
 HarFok:  IExCor= 4639 AccDes= 0.00D+00 IRadAn=         0 IDoV= 1
 ScaDFX=  1.000000  1.000000  1.000000  1.000000
 FoFCou: FMM=F IPFlag=           0 FMFlag=      100000 FMFlg1=           0
         NFxFlg=           0 DoJE=T BraDBF=F KetDBF=T FulRan=T
         Omega=  0.000000  0.000000  1.000000  0.000000  0.000000 ICntrl=     500 IOpCl=  0
         NMat0=    1 NMatS0=    1 NMatT0=    0 NMatD0=    1 NMtDS0=    0 NMtDT0=    0
         I1Cent=           4 NGrid=           0.
 Petite list used in FoFCou.
 Harris En= -110.970467039338    
 Initial guess orbital symmetries:
       Occupied  (A) (A) (A) (A) (A) (A) (A) (A) (A)
       Virtual   (A) (A) (A) (A) (A) (A) (A) (A) (A) (A) (A) (A)
                 (A) (A) (A) (A) (A) (A) (A) (A) (A) (A) (A) (A)
                 (A) (A) (A) (A) (A) (A) (A) (A) (A) (A) (A) (A)
                 (A) (A) (A) (A) (A) (A) (A) (A) (A) (A) (A)
 The electronic state of the initial guess is 1-A.
 Leave Link  401 at Fri Jan  8 13:53:40 2021, MaxMem=13421772800 cpu:       1.7
 (Enter /opt/g09gh/gaussian/g09/l508.exe)
 Direct SCF.
 Tight linear equation convergence will be used.
 RwB97XD wavefunction.
 Quadratic Convergence SCF Method.
 Line search only if initial step raises energy.
 Integral symmetry usage will be decided dynamically.
 ReadGW:  IGet=1 IStart=           2 Next=       51478 LGW=       51476.
 Pruned (  75, 302) grid will be used in CalDFT.
 FoFJK:  IHMeth= 1 ICntrl=     0 DoSepK=T KAlg= 1 I1Cent= 0 FoldK=F
 FoFCou: FMM=F IPFlag=           0 FMFlag=      100000 FMFlg1=           0
         NFxFlg=           0 DoJE=T BraDBF=F KetDBF=F FulRan=T
         Omega=  0.000000  0.000000  1.000000  0.000000  0.000000 ICntrl=     500 IOpCl=  0
         NMat0=    1 NMatS0=    1 NMatT0=    0 NMatD0=    1 NMtDS0=    0 NMtDT0=    0
         I1Cent=           0 NGrid=           0.
 Petite list used in FoFCou.
 Iteration   1 EE= -115.681547797675                                    Grad=6.849D-01
 Gradient too large for Newton-Raphson -- use scaled steepest descent instead.
     ILin= 1 X=0.000D+00 Y=-1.156815477977D+02 DE= 0.00D+00
 FoFJK:  IHMeth= 1 ICntrl=     0 DoSepK=T KAlg= 1 I1Cent= 0 FoldK=F
     ILin= 2 X=3.000D-01 Y=-1.157000947271D+02 DE=-1.85D-02
 FoFJK:  IHMeth= 1 ICntrl=     0 DoSepK=T KAlg= 1 I1Cent= 0 FoldK=F
     ILin= 3 X=4.243D-01 Y=-1.157042062597D+02 DE=-2.27D-02
 FoFJK:  IHMeth= 1 ICntrl=     0 DoSepK=T KAlg= 1 I1Cent= 0 FoldK=F
     ILin= 4 X=6.000D-01 Y=-1.157064752885D+02 DE=-2.49D-02
 FoFJK:  IHMeth= 1 ICntrl=     0 DoSepK=T KAlg= 1 I1Cent= 0 FoldK=F
     ILin= 5 X=8.485D-01 Y=-1.157026477871D+02 DE=-2.11D-02
     An  expanding polynomial of degree  5 produced  0.6085
 FoFJK:  IHMeth= 1 ICntrl=     0 DoSepK=T KAlg= 1 I1Cent= 0 FoldK=F
 Iteration   2 EE= -115.706480158023     Delta-E=       -0.024932360348 Grad=2.408D-01
 Gradient too large for Newton-Raphson -- use scaled steepest descent instead.
     ILin= 1 X=0.000D+00 Y=-1.157064801580D+02 DE= 0.00D+00
 FoFJK:  IHMeth= 1 ICntrl=     0 DoSepK=T KAlg= 1 I1Cent= 0 FoldK=F
     ILin= 2 X=6.085D-01 Y=-1.157097709670D+02 DE=-3.29D-03
 FoFJK:  IHMeth= 1 ICntrl=     0 DoSepK=T KAlg= 1 I1Cent= 0 FoldK=F
     ILin= 3 X=8.606D-01 Y=-1.157093557859D+02 DE=-2.88D-03
     An  expanding polynomial of degree  3 produced  0.6341
 FoFJK:  IHMeth= 1 ICntrl=     0 DoSepK=T KAlg= 1 I1Cent= 0 FoldK=F
 Iteration   3 EE= -115.709776374761     Delta-E=       -0.003296216738 Grad=8.626D-02
 Gradient too large for Newton-Raphson -- use scaled steepest descent instead.
     ILin= 1 X=0.000D+00 Y=-1.157097763748D+02 DE= 0.00D+00
 FoFJK:  IHMeth= 1 ICntrl=     0 DoSepK=T KAlg= 1 I1Cent= 0 FoldK=F
     ILin= 2 X=6.341D-01 Y=-1.157102794321D+02 DE=-5.03D-04
 FoFJK:  IHMeth= 1 ICntrl=     0 DoSepK=T KAlg= 1 I1Cent= 0 FoldK=F
     ILin= 3 X=8.968D-01 Y=-1.157101962313D+02 DE=-4.20D-04
     An  expanding polynomial of degree  3 produced  0.6375
 FoFJK:  IHMeth= 1 ICntrl=     0 DoSepK=T KAlg= 1 I1Cent= 0 FoldK=F
 Iteration   4 EE= -115.710279443787     Delta-E=       -0.000503069026 Grad=2.881D-02
 Gradient too large for Newton-Raphson -- use scaled steepest descent instead.
     ILin= 1 X=0.000D+00 Y=-1.157102794438D+02 DE= 0.00D+00
 FoFJK:  IHMeth= 1 ICntrl=     0 DoSepK=T KAlg= 1 I1Cent= 0 FoldK=F
     ILin= 2 X=6.375D-01 Y=-1.157103675743D+02 DE=-8.81D-05
 FoFJK:  IHMeth= 1 ICntrl=     0 DoSepK=T KAlg= 1 I1Cent= 0 FoldK=F
     ILin= 3 X=9.015D-01 Y=-1.157103557641D+02 DE=-7.63D-05
     An  expanding polynomial of degree  3 produced  0.6593
 FoFJK:  IHMeth= 1 ICntrl=     0 DoSepK=T KAlg= 1 I1Cent= 0 FoldK=F
 Iteration   5 EE= -115.710367671271     Delta-E=       -0.000088227484 Grad=1.026D-02
 Gradient too large for Newton-Raphson -- use scaled steepest descent instead.
     ILin= 1 X=0.000D+00 Y=-1.157103676713D+02 DE= 0.00D+00
 FoFJK:  IHMeth= 1 ICntrl=     0 DoSepK=T KAlg= 1 I1Cent= 0 FoldK=F
     ILin= 2 X=6.593D-01 Y=-1.157103851691D+02 DE=-1.75D-05
 FoFJK:  IHMeth= 1 ICntrl=     0 DoSepK=T KAlg= 1 I1Cent= 0 FoldK=F
     ILin= 3 X=9.324D-01 Y=-1.157103822917D+02 DE=-1.46D-05
     An  expanding polynomial of degree  3 produced  0.6634
 FoFJK:  IHMeth= 1 ICntrl=     0 DoSepK=T KAlg= 1 I1Cent= 0 FoldK=F
 Iteration   6 EE= -115.710385169718     Delta-E=       -0.000017498447 Grad=3.651D-03
 QCNR:  CnvC1=2.91D-09 CnvC2=2.91D-08
 LinEq1:  Iter=  0 NonCon=     1 RMS=7.95D-05 Max=4.09D-04
 AX will form     1 AO Fock derivatives at one time.
 FoFJK:  IHMeth= 1 ICntrl=     0 DoSepK=T KAlg= 1 I1Cent= 0 FoldK=F
 LinEq1:  Iter=  1 NonCon=     1 RMS=6.28D-05 Max=6.28D-04
 FoFJK:  IHMeth= 1 ICntrl=     0 DoSepK=T KAlg= 1 I1Cent= 0 FoldK=F
 LinEq1:  Iter=  2 NonCon=     1 RMS=6.59D-06 Max=4.95D-05
 FoFJK:  IHMeth= 1 ICntrl=     0 DoSepK=T KAlg= 1 I1Cent= 0 FoldK=F
 LinEq1:  Iter=  3 NonCon=     1 RMS=8.16D-07 Max=5.68D-06
 FoFJK:  IHMeth= 1 ICntrl=     0 DoSepK=T KAlg= 1 I1Cent= 0 FoldK=F
 LinEq1:  Iter=  4 NonCon=     1 RMS=1.04D-07 Max=7.60D-07
 FoFJK:  IHMeth= 1 ICntrl=     0 DoSepK=T KAlg= 1 I1Cent= 0 FoldK=F
 LinEq1:  Iter=  5 NonCon=     1 RMS=1.45D-08 Max=6.49D-08
 FoFJK:  IHMeth= 1 ICntrl=     0 DoSepK=T KAlg= 1 I1Cent= 0 FoldK=F
 LinEq1:  Iter=  6 NonCon=     1 RMS=3.15D-09 Max=1.58D-08
 FoFJK:  IHMeth= 1 ICntrl=     0 DoSepK=T KAlg= 1 I1Cent= 0 FoldK=F
 LinEq1:  Iter=  7 NonCon=     0 RMS=9.92D-10 Max=4.78D-09
 Linear equations converged to 2.909D-09 2.909D-08 after     7 iterations.
 Angle between quadratic step and gradient=  56.57 degrees.
     ILin= 1 X=0.000D+00 Y=-1.157103851697D+02 DE= 0.00D+00
 FoFJK:  IHMeth= 1 ICntrl=     0 DoSepK=T KAlg= 1 I1Cent= 0 FoldK=F
     ILin= 2 X=1.000D+00 Y=-1.157103902622D+02 DE=-5.09D-06
 FoFJK:  IHMeth= 1 ICntrl=     0 DoSepK=T KAlg= 1 I1Cent= 0 FoldK=F
     ILin= 3 X=1.414D+00 Y=-1.157103893853D+02 DE=-4.22D-06
     An  expanding polynomial of degree  3 produced  0.9995
 FoFJK:  IHMeth= 1 ICntrl=     0 DoSepK=T KAlg= 1 I1Cent= 0 FoldK=F
 Iteration   7 EE= -115.710390262193     Delta-E=       -0.000005092476 Grad=1.927D-06
 QCNR:  CnvC1=1.93D-11 CnvC2=1.93D-10
 LinEq1:  Iter=  0 NonCon=     1 RMS=4.33D-08 Max=3.12D-07
 FoFJK:  IHMeth= 1 ICntrl=     0 DoSepK=T KAlg= 1 I1Cent= 0 FoldK=F
 LinEq1:  Iter=  1 NonCon=     1 RMS=1.66D-08 Max=7.85D-08
 FoFJK:  IHMeth= 1 ICntrl=     0 DoSepK=T KAlg= 1 I1Cent= 0 FoldK=F
 LinEq1:  Iter=  2 NonCon=     1 RMS=4.13D-09 Max=2.27D-08
 FoFJK:  IHMeth= 1 ICntrl=     0 DoSepK=T KAlg= 1 I1Cent= 0 FoldK=F
 LinEq1:  Iter=  3 NonCon=     1 RMS=1.58D-09 Max=8.73D-09
 FoFJK:  IHMeth= 1 ICntrl=     0 DoSepK=T KAlg= 1 I1Cent= 0 FoldK=F
 LinEq1:  Iter=  4 NonCon=     1 RMS=7.58D-10 Max=3.80D-09
 FoFJK:  IHMeth= 1 ICntrl=     0 DoSepK=T KAlg= 1 I1Cent= 0 FoldK=F
 LinEq1:  Iter=  5 NonCon=     1 RMS=2.02D-10 Max=1.36D-09
 FoFJK:  IHMeth= 1 ICntrl=     0 DoSepK=T KAlg= 1 I1Cent= 0 FoldK=F
 LinEq1:  Iter=  6 NonCon=     1 RMS=2.68D-11 Max=1.88D-10
 FoFJK:  IHMeth= 1 ICntrl=     0 DoSepK=T KAlg= 1 I1Cent= 0 FoldK=F
 LinEq1:  Iter=  7 NonCon=     0 RMS=4.33D-12 Max=2.33D-11
 Linear equations converged to 1.927D-11 1.927D-10 after     7 iterations.
 Angle between quadratic step and gradient=  57.82 degrees.
     ILin= 1 X=0.000D+00 Y=-1.157103902622D+02 DE= 0.00D+00
 FoFJK:  IHMeth= 1 ICntrl=     0 DoSepK=T KAlg= 1 I1Cent= 0 FoldK=F
     ILin= 2 X=1.000D+00 Y=-1.157103902622D+02 DE=-1.76D-12
 Iteration   8 EE= -115.710390262195     Delta-E=       -0.000000000002 Grad=1.654D-10
 Rotation gradient small -- convergence achieved.
 SCF Done:  E(RwB97XD) =  -115.710390262     a.u. after    8 cycles
            Convg  =    0.1654D-09                    36 Fock formations.
              S**2 =  0.0000                  -V/T =  2.0036
 Leave Link  508 at Fri Jan  8 13:53:49 2021, MaxMem=13421772800 cpu:      77.1
 (Enter /opt/g09gh/gaussian/g09/l601.exe)
 Copying SCF densities to generalized density rwf, IOpCl= 0 IROHF=0.

 **********************************************************************

            Population analysis using the SCF density.

 **********************************************************************

 Orbital symmetries:
       Occupied  (A) (A) (A) (A) (A) (A) (A) (A) (A)
       Virtual   (A) (A) (A) (A) (A) (A) (A) (A) (A) (A) (A) (A)
                 (A) (A) (A) (A) (A) (A) (A) (A) (A) (A) (A) (A)
                 (A) (A) (A) (A) (A) (A) (A) (A) (A) (A) (A) (A)
                 (A) (A) (A) (A) (A) (A) (A) (A) (A) (A) (A)
 The electronic state is 1-A.
 Alpha  occ. eigenvalues --  -19.24950 -10.32655  -1.12598  -0.78260  -0.60247
 Alpha  occ. eigenvalues --   -0.52673  -0.52014  -0.42574  -0.36162
 Alpha virt. eigenvalues --    0.06371   0.08321   0.10531   0.10727   0.20119
 Alpha virt. eigenvalues --    0.22328   0.23004   0.24439   0.27739   0.28303
 Alpha virt. eigenvalues --    0.29149   0.31955   0.37336   0.48855   0.49774
 Alpha virt. eigenvalues --    0.57461   0.61235   0.67135   0.68791   0.74186
 Alpha virt. eigenvalues --    0.96997   1.10357   1.13614   1.14025   1.38373
 Alpha virt. eigenvalues --    1.43468   1.59761   1.65103   1.67312   1.82161
 Alpha virt. eigenvalues --    2.25446   2.48515   2.49463   2.52096   2.87206
 Alpha virt. eigenvalues --    2.93313   3.05295   3.09751   3.22934   3.25903
 Alpha virt. eigenvalues --    3.42699   3.95662   5.08658   5.18200   5.47708
 Alpha virt. eigenvalues --   23.59400  49.97598
          Condensed to atoms (all electrons):
              1          2          3          4          5          6
     1  O    8.240716   0.123698  -0.050750  -0.040522  -0.056799   0.214898
     2  C    0.123698   5.344070   0.391528   0.388037   0.393362  -0.016987
     3  H   -0.050750   0.391528   0.474011  -0.026755  -0.043771   0.007019
     4  H   -0.040522   0.388037  -0.026755   0.513672  -0.040728  -0.008784
     5  H   -0.056799   0.393362  -0.043771  -0.040728   0.519885  -0.002547
     6  H    0.214898  -0.016987   0.007019  -0.008784  -0.002547   0.445847
 Mulliken atomic charges:
              1
     1  O   -0.431242
     2  C   -0.623707
     3  H    0.248718
     4  H    0.215079
     5  H    0.230598
     6  H    0.360554
 Sum of Mulliken atomic charges =   0.00000
 Mulliken charges with hydrogens summed into heavy atoms:
              1
     1  O   -0.070688
     2  C    0.070688
 Sum of Mulliken charges with hydrogens summed into heavy atoms =   0.00000
 Electronic spatial extent (au):  <R**2>=             85.1177
 Charge=              0.0000 electrons
 Dipole moment (field-independent basis, Debye):
    X=             -0.9757    Y=              1.8175    Z=             -0.0361  Tot=              2.0632
 Quadrupole moment (field-independent basis, Debye-Ang):
   XX=            -13.0419   YY=            -12.2119   ZZ=            -13.9923
   XY=              2.5760   XZ=              0.0876   YZ=              0.0269
 Traceless Quadrupole moment (field-independent basis, Debye-Ang):
   XX=              0.0401   YY=              0.8701   ZZ=             -0.9102
   XY=              2.5760   XZ=              0.0876   YZ=              0.0269
 Octapole moment (field-independent basis, Debye-Ang**2):
  XXX=              3.8989  YYY=              1.4238  ZZZ=              0.5823  XYY=              1.4913
  XXY=              2.6683  XXZ=             -0.1283  XZZ=              0.1035  YZZ=              0.3158
  YYZ=             -0.6632  XYZ=             -0.1250
 Hexadecapole moment (field-independent basis, Debye-Ang**3):
 XXXX=            -63.1233 YYYY=            -20.6190 ZZZZ=            -20.4912 XXXY=              4.7490
 XXXZ=              0.2851 YYYX=              2.6039 YYYZ=             -0.0567 ZZZX=             -0.5403
 ZZZY=              0.0690 XXYY=            -12.8920 XXZZ=            -14.7790 YYZZ=             -7.0155
 XXYZ=              0.2175 YYXZ=              0.7382 ZZXY=              0.6455
 N-N= 4.014476866143D+01 E-N=-3.519415239348D+02  KE= 1.152906609804D+02
 No NMR shielding tensors so no spin-rotation constants.
 Leave Link  601 at Fri Jan  8 13:53:49 2021, MaxMem=13421772800 cpu:       0.9
 (Enter /opt/g09gh/gaussian/g09/l607.exe)
 Leave Link  607 at Fri Jan  8 13:54:01 2021, MaxMem=13421772800 cpu:      94.3
 (Enter /opt/g09gh/gaussian/g09/l9999.exe)
 1\1\GINC-NODE37\SP\RwB97XD\6-311+G(d)\C1H4O1\BDW2292\08-Jan-2021\0\\#P
  wB97XD/6-311+G* SP SCF=(qc,maxcycle=800) Pop=NBORead MaxDisk=200GB\\m
 ethanol Rotatable Bond SP Calculation on node37.bme.utexas.edu\\0,1\O,
 0,0.756018,-0.109548,0.010713\C,0,-0.660178,0.005806,-0.009713\H,0,-1.
 118161,-0.879865,-0.474313\H,0,-0.983345,0.920488,-0.53054\H,0,-1.0420
 83,0.068975,1.020087\H,0,1.135817,0.783077,-0.013946\\Version=EM64L-G0
 9RevA.02\State=1-A\HF=-115.7103903\RMSD=0.000e+00\Dipole=-0.3994099,0.
 7056321,-0.0381131\Quadrupole=-0.0552881,0.7318894,-0.6766013,1.900752
 3,0.0139896,-0.004471\PG=C01 [X(C1H4O1)]\\@


 GARLIC THEN HAVE POWER TO SAVE FROM DEATH
 BEAR WITH IT THOUGH IT MAKETH UNSAVORY BREATH,
 AND SCORN NOT GARLIC LIKE SOME THAT THINK
 IT ONLY MAKETH MEN WINK AND DRINK AND STINK.
   --  SIR JOHN HARRINGTON,
       "THE ENGLISHMAN'S DOCTOR", 1609
 Job cpu time:  0 days  0 hours  3 minutes  4.7 seconds.
 File lengths (MBytes):  RWF=      5 Int=      0 D2E=      0 Chk=      1 Scr=      1
 Normal termination of Gaussian 09 at Fri Jan  8 13:54:08 2021.
