 Entering Gaussian System, Link 0=/opt/g09gh/gaussian/g09/g09
 Input=methanol-opt-1_2-1-242.com
 Output=methanol-opt-1_2-1-242.log
 Initial command:
 /opt/g09gh/gaussian/g09/l1.exe /scratch/bdw2292/Gau-methanol/Gau-43441.inp -scrdir=/scratch/bdw2292/Gau-methanol/
 Entering Link 1 = /opt/g09gh/gaussian/g09/l1.exe PID=     43442.
  
 Copyright (c) 1988,1990,1992,1993,1995,1998,2003,2009, Gaussian, Inc.
                  All Rights Reserved.
  
 This is part of the Gaussian(R) 09 program.  It is based on
 the Gaussian(R) 03 system (copyright 2003, Gaussian, Inc.),
 the Gaussian(R) 98 system (copyright 1998, Gaussian, Inc.),
 the Gaussian(R) 94 system (copyright 1995, Gaussian, Inc.),
 the Gaussian 92(TM) system (copyright 1992, Gaussian, Inc.),
 the Gaussian 90(TM) system (copyright 1990, Gaussian, Inc.),
 the Gaussian 88(TM) system (copyright 1988, Gaussian, Inc.),
 the Gaussian 86(TM) system (copyright 1986, Carnegie Mellon
 University), and the Gaussian 82(TM) system (copyright 1983,
 Carnegie Mellon University). Gaussian is a federally registered
 trademark of Gaussian, Inc.
  
 This software contains proprietary and confidential information,
 including trade secrets, belonging to Gaussian, Inc.
  
 This software is provided under written license and may be
 used, copied, transmitted, or stored only in accord with that
 written license.
  
 The following legend is applicable only to US Government
 contracts under FAR:
  
                    RESTRICTED RIGHTS LEGEND
  
 Use, reproduction and disclosure by the US Government is
 subject to restrictions as set forth in subparagraphs (a)
 and (c) of the Commercial Computer Software - Restricted
 Rights clause in FAR 52.227-19.
  
 Gaussian, Inc.
 340 Quinnipiac St., Bldg. 40, Wallingford CT 06492
  
  
 ---------------------------------------------------------------
 Warning -- This program may not be used in any manner that
 competes with the business of Gaussian, Inc. or will provide
 assistance to any competitor of Gaussian, Inc.  The licensee
 of this program is prohibited from giving any competitor of
 Gaussian, Inc. access to this program.  By using this program,
 the user acknowledges that Gaussian, Inc. is engaged in the
 business of creating and licensing software in the field of
 computational chemistry and represents and warrants to the
 licensee that it is not a competitor of Gaussian, Inc. and that
 it will not use this program in any manner prohibited above.
 ---------------------------------------------------------------
  

 Cite this work as:
 Gaussian 09, Revision A.02,
 M. J. Frisch, G. W. Trucks, H. B. Schlegel, G. E. Scuseria, 
 M. A. Robb, J. R. Cheeseman, G. Scalmani, V. Barone, B. Mennucci, 
 G. A. Petersson, H. Nakatsuji, M. Caricato, X. Li, H. P. Hratchian, 
 A. F. Izmaylov, J. Bloino, G. Zheng, J. L. Sonnenberg, M. Hada, 
 M. Ehara, K. Toyota, R. Fukuda, J. Hasegawa, M. Ishida, T. Nakajima, 
 Y. Honda, O. Kitao, H. Nakai, T. Vreven, J. A. Montgomery, Jr., 
 J. E. Peralta, F. Ogliaro, M. Bearpark, J. J. Heyd, E. Brothers, 
 K. N. Kudin, V. N. Staroverov, R. Kobayashi, J. Normand, 
 K. Raghavachari, A. Rendell, J. C. Burant, S. S. Iyengar, J. Tomasi, 
 M. Cossi, N. Rega, J. M. Millam, M. Klene, J. E. Knox, J. B. Cross, 
 V. Bakken, C. Adamo, J. Jaramillo, R. Gomperts, R. E. Stratmann, 
 O. Yazyev, A. J. Austin, R. Cammi, C. Pomelli, J. W. Ochterski, 
 R. L. Martin, K. Morokuma, V. G. Zakrzewski, G. A. Voth, 
 P. Salvador, J. J. Dannenberg, S. Dapprich, A. D. Daniels, 
 O. Farkas, J. B. Foresman, J. V. Ortiz, J. Cioslowski, 
 and D. J. Fox, Gaussian, Inc., Wallingford CT, 2009.
 
 ******************************************
 Gaussian 09:  EM64L-G09RevA.02 11-Jun-2009
                 8-Jan-2021 
 ******************************************
 %RWF=/scratch/bdw2292/Gau-methanol/,200GB
 %Nosave
 %Chk=methanol-opt-1_2-1-242.chk
 %Mem=100GB
 %Nproc=8
 Will use up to    8 processors via shared memory.
 -------------------------------------------------------------
 #P opt=(ModRedundant,maxcycle=2,Loose) HF/3-21G MaxDisk=200GB
 -------------------------------------------------------------
 1/6=2,7=-1,18=120,19=15,38=1/1,3;
 2/9=110,12=2,17=6,18=5,40=1/2;
 3/5=5,11=9,16=1,25=1,30=1,71=1/1,2,3;
 4//1;
 5/5=2,38=5/2;
 6/7=2,8=2,9=2,10=2,28=1/1;
 7//1,2,3,16;
 1/6=2,7=-1,18=20,19=15/3(2);
 2/9=110/2;
 99//99;
 2/9=110/2;
 3/5=5,11=9,16=1,25=1,30=1,71=1/1,2,3;
 4/5=5,16=3/1;
 5/5=2,38=5/2;
 7//1,2,3,16;
 1/6=2,7=-1,18=20,19=15/3(-5);
 2/9=110/2;
 6/7=2,8=2,9=2,10=2,19=2,28=1/1;
 99/9=1/99;
 Leave Link    1 at Fri Jan  8 11:07:18 2021, MaxMem=13421772800 cpu:       0.4
 (Enter /opt/g09gh/gaussian/g09/l101.exe)
 -------------------------------------------------------------
 methanol Rotatable Bond Optimization on node37.bme.utexas.edu
 -------------------------------------------------------------
 Symbolic Z-matrix:
 Charge =  0 Multiplicity = 1
 O                     0.74905   0.10775   0.00403 
 C                    -0.66723  -0.01048   0.00009 
 H                    -1.01852  -0.5394    0.89851 
 H                    -1.01468  -0.52105  -0.91029 
 H                    -1.13611   0.98583   0.00924 
 H                     0.97999   1.05025   0.01402 
 
 NAtoms=      6 NQM=      6 NQMF=      0 NMic=      0 NMicF=      0 NTot=      6.
 The following ModRedundant input section has been read:
 D    6    1    2    3 F                                                       
 D    6    1    2    4 F                                                       
 D    6    1    2    5 F                                                       
                    Isotopes and Nuclear Properties:
 (Nuclear quadrupole moments (NQMom) in fm**2, nuclear magnetic moments (NMagM)
  in nuclear magnetons)

  Atom         1           2           3           4           5           6
 IAtWgt=          16          12           1           1           1           1
 AtmWgt=  15.9949146  12.0000000   1.0078250   1.0078250   1.0078250   1.0078250
 NucSpn=           0           0           1           1           1           1
 AtZEff=   0.0000000   0.0000000   0.0000000   0.0000000   0.0000000   0.0000000
 NQMom=    0.0000000   0.0000000   0.0000000   0.0000000   0.0000000   0.0000000
 NMagM=    0.0000000   0.0000000   2.7928460   2.7928460   2.7928460   2.7928460
 Leave Link  101 at Fri Jan  8 11:07:18 2021, MaxMem=13421772800 cpu:       1.0
 (Enter /opt/g09gh/gaussian/g09/l103.exe)

 GradGradGradGradGradGradGradGradGradGradGradGradGradGradGradGradGradGrad
 Berny optimization.
 Initialization pass.
                           ----------------------------
                           !    Initial Parameters    !
                           ! (Angstroms and Degrees)  !
 --------------------------                            --------------------------
 ! Name  Definition              Value          Derivative Info.                !
 --------------------------------------------------------------------------------
 ! R1    R(1,2)                  1.4212         estimate D2E/DX2                !
 ! R2    R(1,6)                  0.9704         estimate D2E/DX2                !
 ! R3    R(2,3)                  1.1001         estimate D2E/DX2                !
 ! R4    R(2,4)                  1.1001         estimate D2E/DX2                !
 ! R5    R(2,5)                  1.1012         estimate D2E/DX2                !
 ! A1    A(2,1,6)              108.5409         estimate D2E/DX2                !
 ! A2    A(1,2,3)              110.8509         estimate D2E/DX2                !
 ! A3    A(1,2,4)              110.833          estimate D2E/DX2                !
 ! A4    A(1,2,5)              110.4281         estimate D2E/DX2                !
 ! A5    A(3,2,4)              110.5986         estimate D2E/DX2                !
 ! A6    A(3,2,5)              106.9922         estimate D2E/DX2                !
 ! A7    A(4,2,5)              106.9971         estimate D2E/DX2                !
 ! D1    D(6,1,2,3)           -118.395          Frozen                          !
 ! D2    D(6,1,2,4)            118.3926         Frozen                          !
 ! D3    D(6,1,2,5)              0.0013         Frozen                          !
 --------------------------------------------------------------------------------
 Trust Radius=3.00D-01 FncErr=1.00D-07 GrdErr=1.00D-07
 Number of steps in this run=   2 maximum allowed number of steps= 100.
 GradGradGradGradGradGradGradGradGradGradGradGradGradGradGradGradGradGrad

 Leave Link  103 at Fri Jan  8 11:07:18 2021, MaxMem=13421772800 cpu:       0.1
 (Enter /opt/g09gh/gaussian/g09/l202.exe)
                          Input orientation:                          
 ---------------------------------------------------------------------
 Center     Atomic      Atomic             Coordinates (Angstroms)
 Number     Number       Type             X           Y           Z
 ---------------------------------------------------------------------
      1          8           0        0.749045    0.107751    0.004030
      2          6           0       -0.667230   -0.010480    0.000088
      3          1           0       -1.018523   -0.539402    0.898509
      4          1           0       -1.014676   -0.521054   -0.910287
      5          1           0       -1.136109    0.985832    0.009241
      6          1           0        0.979992    1.050253    0.014019
 ---------------------------------------------------------------------
                    Distance matrix (angstroms):
                    1          2          3          4          5
     1  O    0.000000
     2  C    1.421207   0.000000
     3  H    2.084034   1.100148   0.000000
     4  H    2.083767   1.100085   1.808893   0.000000
     5  H    2.079630   1.101167   1.769453   1.769458   0.000000
     6  H    0.970436   1.959257   2.702478   2.702230   2.117087
                    6
     6  H    0.000000
 Stoichiometry    CH4O
 Framework group  C1[X(CH4O)]
 Deg. of freedom    12
 Full point group                 C1      NOp   1
 Largest Abelian subgroup         C1      NOp   1
 Largest concise Abelian subgroup C1      NOp   1
                         Standard orientation:                         
 ---------------------------------------------------------------------
 Center     Atomic      Atomic             Coordinates (Angstroms)
 Number     Number       Type             X           Y           Z
 ---------------------------------------------------------------------
      1          8           0       -0.749332   -0.128273   -0.000027
      2          6           0        0.665016    0.011193    0.000008
      3          1           0        1.102705   -0.436886   -0.904414
      4          1           0        1.102326   -0.437002    0.904479
      5          1           0        0.946239    1.075844    0.000091
      6          1           0       -1.146711    0.757072    0.000009
 ---------------------------------------------------------------------
 Rotational constants (GHZ):    126.9669211     24.6220587     23.8294632
 Leave Link  202 at Fri Jan  8 11:07:18 2021, MaxMem=13421772800 cpu:       0.0
 (Enter /opt/g09gh/gaussian/g09/l301.exe)
 Standard basis: 3-21G (6D, 7F)
 Ernie: Thresh=  0.10000D-02 Tol=  0.10000D-05 Strict=F.
 There are    26 symmetry adapted basis functions of A   symmetry.
 Integral buffers will be    131072 words long.
 Raffenetti 1 integral format.
 Two-electron integral symmetry is turned on.
    26 basis functions,    42 primitive gaussians,    26 cartesian basis functions
     9 alpha electrons        9 beta electrons
       nuclear repulsion energy        40.1419125496 Hartrees.
 IExCor=    0 DFT=F Ex=HF Corr=None ExCW=0 ScaHFX=  1.000000
 ScaDFX=  1.000000  1.000000  1.000000  1.000000 ScalE2=  1.000000  1.000000
 IRadAn=      0 IRanWt=     -1 IRanGd=            0 ICorTp=0
 NAtoms=    6 NActive=    6 NUniq=    6 SFac= 7.50D-01 NAtFMM=   80 NAOKFM=F Big=F
 Leave Link  301 at Fri Jan  8 11:07:18 2021, MaxMem=13421772800 cpu:       0.5
 (Enter /opt/g09gh/gaussian/g09/l302.exe)
 NPDir=0 NMtPBC=     1 NCelOv=     1 NCel=       1 NClECP=     1 NCelD=      1
         NCelK=      1 NCelE2=     1 NClLst=     1 CellRange=     0.0.
 One-electron integrals computed using PRISM.
 NBasis=    26 RedAO= T  NBF=    26
 NBsUse=    26 1.00D-06 NBFU=    26
 Leave Link  302 at Fri Jan  8 11:07:18 2021, MaxMem=13421772800 cpu:       0.9
 (Enter /opt/g09gh/gaussian/g09/l303.exe)
 DipDrv:  MaxL=1.
 Leave Link  303 at Fri Jan  8 11:07:18 2021, MaxMem=13421772800 cpu:       0.3
 (Enter /opt/g09gh/gaussian/g09/l401.exe)
 Harris functional with IExCor=  205 diagonalized for initial guess.
 ExpMin= 1.83D-01 ExpMax= 3.22D+02 ExpMxC= 3.22D+02 IAcc=1 IRadAn=         1 AccDes= 0.00D+00
 HarFok:  IExCor=  205 AccDes= 0.00D+00 IRadAn=         1 IDoV= 1
 ScaDFX=  1.000000  1.000000  1.000000  1.000000
 FoFCou: FMM=F IPFlag=           0 FMFlag=      100000 FMFlg1=           0
         NFxFlg=           0 DoJE=T BraDBF=F KetDBF=T FulRan=T
         Omega=  0.000000  0.000000  1.000000  0.000000  0.000000 ICntrl=     500 IOpCl=  0
         NMat0=    1 NMatS0=    1 NMatT0=    0 NMatD0=    1 NMtDS0=    0 NMtDT0=    0
         I1Cent=           4 NGrid=           0.
 Petite list used in FoFCou.
 Harris En= -114.569835491868    
 Initial guess orbital symmetries:
       Occupied  (A) (A) (A) (A) (A) (A) (A) (A) (A)
       Virtual   (A) (A) (A) (A) (A) (A) (A) (A) (A) (A) (A) (A)
                 (A) (A) (A) (A) (A)
 The electronic state of the initial guess is 1-A.
 Leave Link  401 at Fri Jan  8 11:07:18 2021, MaxMem=13421772800 cpu:       1.2
 (Enter /opt/g09gh/gaussian/g09/l502.exe)
 Closed shell SCF:
 Requested convergence on RMS density matrix=1.00D-08 within 128 cycles.
 Requested convergence on MAX density matrix=1.00D-06.
 Requested convergence on             energy=1.00D-06.
 No special actions if energy rises.
 Using DIIS extrapolation, IDIIS=  1040.
 Integral symmetry usage will be decided dynamically.
 Keep R1 ints in memory in canonical form, NReq=882380.
 IEnd=       20590 IEndB=       20590 NGot= 13421772800 MDV= 13421707749
 LenX= 13421707749 LenY= 13421706632
 Symmetry not used in FoFDir.
 MinBra= 0 MaxBra= 1 Meth= 1.
 IRaf=       0 NMat=   1 IRICut=       1 DoRegI=T DoRafI=F ISym2E= 0 JSym2E=0.

 Cycle   1  Pass 1  IDiag  1:
 E= -114.308357112196    
 DIIS: error= 4.61D-02 at cycle   1 NSaved=   1.
 NSaved= 1 IEnMin= 1 EnMin= -114.308357112196     IErMin= 1 ErrMin= 4.61D-02
 ErrMax= 4.61D-02 EMaxC= 1.00D-01 BMatC= 1.28D-01 BMatP= 1.28D-01
 IDIUse=3 WtCom= 5.39D-01 WtEn= 4.61D-01
 Coeff-Com:  0.100D+01
 Coeff-En:   0.100D+01
 Coeff:      0.100D+01
 Gap=     0.650 Goal=   None    Shift=    0.000
 GapD=    0.650 DampG=2.000 DampE=0.500 DampFc=1.0000 IDamp=-1.
 RMSDP=1.17D-02 MaxDP=6.58D-02              OVMax= 8.89D-02

 Cycle   2  Pass 1  IDiag  1:
 E= -114.380769466818     Delta-E=       -0.072412354622 Rises=F Damp=F
 DIIS: error= 2.57D-02 at cycle   2 NSaved=   2.
 NSaved= 2 IEnMin= 2 EnMin= -114.380769466818     IErMin= 2 ErrMin= 2.57D-02
 ErrMax= 2.57D-02 EMaxC= 1.00D-01 BMatC= 2.02D-02 BMatP= 1.28D-01
 IDIUse=3 WtCom= 7.43D-01 WtEn= 2.57D-01
 Coeff-Com:  0.243D+00 0.757D+00
 Coeff-En:   0.000D+00 0.100D+01
 Coeff:      0.181D+00 0.819D+00
 Gap=     0.698 Goal=   None    Shift=    0.000
 RMSDP=4.11D-03 MaxDP=2.53D-02 DE=-7.24D-02 OVMax= 2.28D-02

 Cycle   3  Pass 1  IDiag  1:
 E= -114.393262130436     Delta-E=       -0.012492663618 Rises=F Damp=F
 DIIS: error= 6.12D-03 at cycle   3 NSaved=   3.
 NSaved= 3 IEnMin= 3 EnMin= -114.393262130436     IErMin= 3 ErrMin= 6.12D-03
 ErrMax= 6.12D-03 EMaxC= 1.00D-01 BMatC= 8.64D-04 BMatP= 2.02D-02
 IDIUse=3 WtCom= 9.39D-01 WtEn= 6.12D-02
 Coeff-Com: -0.160D-01 0.136D+00 0.880D+00
 Coeff-En:   0.000D+00 0.000D+00 0.100D+01
 Coeff:     -0.150D-01 0.127D+00 0.888D+00
 Gap=     0.681 Goal=   None    Shift=    0.000
 RMSDP=7.56D-04 MaxDP=5.68D-03 DE=-1.25D-02 OVMax= 6.60D-03

 Cycle   4  Pass 1  IDiag  1:
 E= -114.393855714730     Delta-E=       -0.000593584294 Rises=F Damp=F
 DIIS: error= 1.39D-03 at cycle   4 NSaved=   4.
 NSaved= 4 IEnMin= 4 EnMin= -114.393855714730     IErMin= 4 ErrMin= 1.39D-03
 ErrMax= 1.39D-03 EMaxC= 1.00D-01 BMatC= 3.68D-05 BMatP= 8.64D-04
 IDIUse=3 WtCom= 9.86D-01 WtEn= 1.39D-02
 Coeff-Com: -0.780D-02 0.945D-02 0.217D+00 0.781D+00
 Coeff-En:   0.000D+00 0.000D+00 0.000D+00 0.100D+01
 Coeff:     -0.769D-02 0.932D-02 0.214D+00 0.784D+00
 Gap=     0.682 Goal=   None    Shift=    0.000
 RMSDP=1.78D-04 MaxDP=1.05D-03 DE=-5.94D-04 OVMax= 1.29D-03

 Cycle   5  Pass 1  IDiag  1:
 E= -114.393885081276     Delta-E=       -0.000029366546 Rises=F Damp=F
 DIIS: error= 2.64D-04 at cycle   5 NSaved=   5.
 NSaved= 5 IEnMin= 5 EnMin= -114.393885081276     IErMin= 5 ErrMin= 2.64D-04
 ErrMax= 2.64D-04 EMaxC= 1.00D-01 BMatC= 1.31D-06 BMatP= 3.68D-05
 IDIUse=3 WtCom= 9.97D-01 WtEn= 2.64D-03
 Coeff-Com:  0.266D-02-0.143D-01-0.105D+00-0.134D+00 0.125D+01
 Coeff-En:   0.000D+00 0.000D+00 0.000D+00 0.000D+00 0.100D+01
 Coeff:      0.266D-02-0.142D-01-0.105D+00-0.134D+00 0.125D+01
 Gap=     0.683 Goal=   None    Shift=    0.000
 RMSDP=7.84D-05 MaxDP=3.73D-04 DE=-2.94D-05 OVMax= 5.52D-04

 Cycle   6  Pass 1  IDiag  1:
 E= -114.393887348409     Delta-E=       -0.000002267133 Rises=F Damp=F
 DIIS: error= 4.20D-05 at cycle   6 NSaved=   6.
 NSaved= 6 IEnMin= 6 EnMin= -114.393887348409     IErMin= 6 ErrMin= 4.20D-05
 ErrMax= 4.20D-05 EMaxC= 1.00D-01 BMatC= 1.55D-08 BMatP= 1.31D-06
 IDIUse=1 WtCom= 1.00D+00 WtEn= 0.00D+00
 Coeff-Com: -0.684D-03 0.420D-02 0.298D-01 0.225D-01-0.379D+00 0.132D+01
 Coeff:     -0.684D-03 0.420D-02 0.298D-01 0.225D-01-0.379D+00 0.132D+01
 Gap=     0.683 Goal=   None    Shift=    0.000
 RMSDP=1.18D-05 MaxDP=7.07D-05 DE=-2.27D-06 OVMax= 7.20D-05

 Cycle   7  Pass 1  IDiag  1:
 E= -114.393887380560     Delta-E=       -0.000000032151 Rises=F Damp=F
 DIIS: error= 2.91D-06 at cycle   7 NSaved=   7.
 NSaved= 7 IEnMin= 7 EnMin= -114.393887380560     IErMin= 7 ErrMin= 2.91D-06
 ErrMax= 2.91D-06 EMaxC= 1.00D-01 BMatC= 2.55D-10 BMatP= 1.55D-08
 IDIUse=1 WtCom= 1.00D+00 WtEn= 0.00D+00
 Coeff-Com:  0.150D-03-0.941D-03-0.681D-02-0.440D-02 0.890D-01-0.388D+00
 Coeff-Com:  0.131D+01
 Coeff:      0.150D-03-0.941D-03-0.681D-02-0.440D-02 0.890D-01-0.388D+00
 Coeff:      0.131D+01
 Gap=     0.683 Goal=   None    Shift=    0.000
 RMSDP=1.76D-06 MaxDP=8.84D-06 DE=-3.22D-08 OVMax= 1.47D-05

 Cycle   8  Pass 1  IDiag  1:
 E= -114.393887381231     Delta-E=       -0.000000000671 Rises=F Damp=F
 DIIS: error= 5.25D-07 at cycle   8 NSaved=   8.
 NSaved= 8 IEnMin= 8 EnMin= -114.393887381231     IErMin= 8 ErrMin= 5.25D-07
 ErrMax= 5.25D-07 EMaxC= 1.00D-01 BMatC= 9.50D-12 BMatP= 2.55D-10
 IDIUse=1 WtCom= 1.00D+00 WtEn= 0.00D+00
 Coeff-Com: -0.225D-04 0.144D-03 0.106D-02 0.275D-03-0.135D-01 0.717D-01
 Coeff-Com: -0.363D+00 0.130D+01
 Coeff:     -0.225D-04 0.144D-03 0.106D-02 0.275D-03-0.135D-01 0.717D-01
 Coeff:     -0.363D+00 0.130D+01
 Gap=     0.683 Goal=   None    Shift=    0.000
 RMSDP=2.84D-07 MaxDP=1.15D-06 DE=-6.71D-10 OVMax= 3.00D-06

 Cycle   9  Pass 1  IDiag  1:
 E= -114.393887381253     Delta-E=       -0.000000000022 Rises=F Damp=F
 DIIS: error= 1.53D-07 at cycle   9 NSaved=   9.
 NSaved= 9 IEnMin= 9 EnMin= -114.393887381253     IErMin= 9 ErrMin= 1.53D-07
 ErrMax= 1.53D-07 EMaxC= 1.00D-01 BMatC= 3.17D-13 BMatP= 9.50D-12
 IDIUse=1 WtCom= 1.00D+00 WtEn= 0.00D+00
 Coeff-Com:  0.547D-05-0.356D-04-0.264D-03 0.875D-05 0.326D-02-0.193D-01
 Coeff-Com:  0.116D+00-0.571D+00 0.147D+01
 Coeff:      0.547D-05-0.356D-04-0.264D-03 0.875D-05 0.326D-02-0.193D-01
 Coeff:      0.116D+00-0.571D+00 0.147D+01
 Gap=     0.683 Goal=   None    Shift=    0.000
 RMSDP=6.79D-08 MaxDP=6.04D-07 DE=-2.22D-11 OVMax= 7.77D-07

 Cycle  10  Pass 1  IDiag  1:
 E= -114.393887381254     Delta-E=       -0.000000000001 Rises=F Damp=F
 DIIS: error= 1.95D-08 at cycle  10 NSaved=  10.
 NSaved=10 IEnMin=10 EnMin= -114.393887381254     IErMin=10 ErrMin= 1.95D-08
 ErrMax= 1.95D-08 EMaxC= 1.00D-01 BMatC= 8.56D-15 BMatP= 3.17D-13
 IDIUse=1 WtCom= 1.00D+00 WtEn= 0.00D+00
 Coeff-Com: -0.106D-05 0.684D-05 0.523D-04-0.158D-04-0.636D-03 0.419D-02
 Coeff-Com: -0.277D-01 0.150D+00-0.494D+00 0.137D+01
 Coeff:     -0.106D-05 0.684D-05 0.523D-04-0.158D-04-0.636D-03 0.419D-02
 Coeff:     -0.277D-01 0.150D+00-0.494D+00 0.137D+01
 Gap=     0.683 Goal=   None    Shift=    0.000
 RMSDP=9.44D-09 MaxDP=7.66D-08 DE=-1.02D-12 OVMax= 9.29D-08

 SCF Done:  E(RHF) =  -114.393887381     A.U. after   10 cycles
             Convg  =    0.9443D-08             -V/T =  2.0030
 KE= 1.140515974848D+02 PE=-3.497386393785D+02 EE= 8.115124196284D+01
 Leave Link  502 at Fri Jan  8 11:07:18 2021, MaxMem=13421772800 cpu:       0.5
 (Enter /opt/g09gh/gaussian/g09/l601.exe)
 Copying SCF densities to generalized density rwf, IOpCl= 0 IROHF=0.

 **********************************************************************

            Population analysis using the SCF density.

 **********************************************************************

 Orbital symmetries:
       Occupied  (A) (A) (A) (A) (A) (A) (A) (A) (A)
       Virtual   (A) (A) (A) (A) (A) (A) (A) (A) (A) (A) (A) (A)
                 (A) (A) (A) (A) (A)
 The electronic state is 1-A.
 Alpha  occ. eigenvalues --  -20.43660 -11.21711  -1.34307  -0.91975  -0.67116
 Alpha  occ. eigenvalues --   -0.61549  -0.58036  -0.47729  -0.43147
 Alpha virt. eigenvalues --    0.25146   0.30662   0.35291   0.35297   0.43732
 Alpha virt. eigenvalues --    0.95492   0.97072   0.97196   1.25273   1.29041
 Alpha virt. eigenvalues --    1.31180   1.32120   1.87719   1.88531   1.97760
 Alpha virt. eigenvalues --    2.14963   3.34825
          Condensed to atoms (all electrons):
              1          2          3          4          5          6
     1  O    8.284798   0.225086  -0.034399  -0.034423  -0.028900   0.270508
     2  C    0.225086   4.993882   0.360691   0.360714   0.356406  -0.050707
     3  H   -0.034399   0.360691   0.552303  -0.039818  -0.035677   0.003435
     4  H   -0.034423   0.360714  -0.039818   0.552257  -0.035669   0.003437
     5  H   -0.028900   0.356406  -0.035677  -0.035669   0.590896  -0.011375
     6  H    0.270508  -0.050707   0.003435   0.003437  -0.011375   0.407248
 Mulliken atomic charges:
              1
     1  O   -0.682670
     2  C   -0.246072
     3  H    0.193465
     4  H    0.193502
     5  H    0.164320
     6  H    0.377454
 Sum of Mulliken atomic charges =   0.00000
 Mulliken charges with hydrogens summed into heavy atoms:
              1
     1  O   -0.305216
     2  C    0.305216
 Sum of Mulliken charges with hydrogens summed into heavy atoms =   0.00000
 Electronic spatial extent (au):  <R**2>=             84.4351
 Charge=              0.0000 electrons
 Dipole moment (field-independent basis, Debye):
    X=              1.0950    Y=              1.9685    Z=              0.0002  Tot=              2.2526
 Quadrupole moment (field-independent basis, Debye-Ang):
   XX=            -12.6781   YY=            -12.2595   ZZ=            -13.3753
   XY=             -2.3707   XZ=             -0.0003   YZ=             -0.0001
 Traceless Quadrupole moment (field-independent basis, Debye-Ang):
   XX=              0.0929   YY=              0.5115   ZZ=             -0.6043
   XY=             -2.3707   XZ=             -0.0003   YZ=             -0.0001
 Octapole moment (field-independent basis, Debye-Ang**2):
  XXX=             -4.5932  YYY=              1.7067  ZZZ=              0.0003  XYY=             -2.2811
  XXY=              2.5540  XXZ=             -0.0002  XZZ=             -0.5365  YZZ=             -0.2936
  YYZ=              0.0002  XYZ=              0.0000
 Hexadecapole moment (field-independent basis, Debye-Ang**3):
 XXXX=            -59.0809 YYYY=            -18.6992 ZZZZ=            -17.7495 XXXY=             -3.5594
 XXXZ=             -0.0008 YYYX=             -1.4262 YYYZ=             -0.0001 ZZZX=              0.0001
 ZZZY=             -0.0003 XXYY=            -12.1616 XXZZ=            -12.8113 YYZZ=             -6.3217
 XXYZ=              0.0001 YYXZ=              0.0001 ZZXY=             -0.9137
 N-N= 4.014191254957D+01 E-N=-3.497386394640D+02  KE= 1.140515974848D+02
 No NMR shielding tensors so no spin-rotation constants.
 Leave Link  601 at Fri Jan  8 11:07:18 2021, MaxMem=13421772800 cpu:       0.8
 (Enter /opt/g09gh/gaussian/g09/l701.exe)
 Compute integral first derivatives.
 ... and contract with generalized density number  0.
 Leave Link  701 at Fri Jan  8 11:07:19 2021, MaxMem=13421772800 cpu:       0.8
 (Enter /opt/g09gh/gaussian/g09/l702.exe)
 L702 exits ... SP integral derivatives will be done elsewhere.
 Leave Link  702 at Fri Jan  8 11:07:19 2021, MaxMem=13421772800 cpu:       0.3
 (Enter /opt/g09gh/gaussian/g09/l703.exe)
 Compute integral first derivatives, UseDBF=F ICtDFT=           0.
 Integral derivatives from FoFDir, PRISM(SPDF).
 Calling FoFJK, ICntrl=      2127 FMM=F ISym2X=0 I1Cent= 0 IOpClX= 0 NMat=1 NMatS=1 NMatT=0.
 FoFCou: FMM=F IPFlag=           0 FMFlag=      100000 FMFlg1=         800
         NFxFlg=           0 DoJE=F BraDBF=F KetDBF=F FulRan=T
         Omega=  0.000000  0.000000  1.000000  0.000000  0.000000 ICntrl=    2127 IOpCl=  0
         NMat0=    1 NMatS0=    1 NMatT0=    0 NMatD0=    1 NMtDS0=    0 NMtDT0=    0
         I1Cent=           0 NGrid=           0.
 Symmetry not used in FoFCou.
 Leave Link  703 at Fri Jan  8 11:07:19 2021, MaxMem=13421772800 cpu:       0.6
 (Enter /opt/g09gh/gaussian/g09/l716.exe)
 Dipole        = 4.30818787D-01 7.74461567D-01 6.86800554D-05
 ***** Axes restored to original set *****
 -------------------------------------------------------------------
 Center     Atomic                   Forces (Hartrees/Bohr)
 Number     Number              X              Y              Z
 -------------------------------------------------------------------
      1        8           0.014037269    0.009001331    0.000137489
      2        6          -0.027826891    0.004666760   -0.000005082
      3        1           0.004501229    0.002434597   -0.012302511
      4        1           0.004402852    0.002169983    0.012345621
      5        1           0.000227297   -0.009998799   -0.000104014
      6        1           0.004658245   -0.008273871   -0.000071502
 -------------------------------------------------------------------
 Cartesian Forces:  Max     0.027826891 RMS     0.009482295
 Leave Link  716 at Fri Jan  8 11:07:19 2021, MaxMem=13421772800 cpu:       0.3
 (Enter /opt/g09gh/gaussian/g09/l103.exe)

 GradGradGradGradGradGradGradGradGradGradGradGradGradGradGradGradGradGrad
 Berny optimization.
 Internal  Forces:  Max     0.018691338 RMS     0.008525031
 Search for a local minimum.
 Step number   1 out of a maximum of    2
 All quantities printed in internal units (Hartrees-Bohrs-Radians)
 RMS Force = .90928D-02 SwitMx=.10000D-02 MixMth= 1
 Mixed Optimization -- RFO/linear search
 Second derivative matrix not updated -- first step.
 The second derivative matrix:
                          R1        R2        R3        R4        R5
           R1           0.42279
           R2           0.00000   0.53288
           R3           0.00000   0.00000   0.33666
           R4           0.00000   0.00000   0.00000   0.33673
           R5           0.00000   0.00000   0.00000   0.00000   0.33553
           A1           0.00000   0.00000   0.00000   0.00000   0.00000
           A2           0.00000   0.00000   0.00000   0.00000   0.00000
           A3           0.00000   0.00000   0.00000   0.00000   0.00000
           A4           0.00000   0.00000   0.00000   0.00000   0.00000
           A5           0.00000   0.00000   0.00000   0.00000   0.00000
           A6           0.00000   0.00000   0.00000   0.00000   0.00000
           A7           0.00000   0.00000   0.00000   0.00000   0.00000
           D1           0.00000   0.00000   0.00000   0.00000   0.00000
           D2           0.00000   0.00000   0.00000   0.00000   0.00000
           D3           0.00000   0.00000   0.00000   0.00000   0.00000
                          A1        A2        A3        A4        A5
           A1           0.16000
           A2           0.00000   0.16000
           A3           0.00000   0.00000   0.16000
           A4           0.00000   0.00000   0.00000   0.16000
           A5           0.00000   0.00000   0.00000   0.00000   0.16000
           A6           0.00000   0.00000   0.00000   0.00000   0.00000
           A7           0.00000   0.00000   0.00000   0.00000   0.00000
           D1           0.00000   0.00000   0.00000   0.00000   0.00000
           D2           0.00000   0.00000   0.00000   0.00000   0.00000
           D3           0.00000   0.00000   0.00000   0.00000   0.00000
                          A6        A7        D1        D2        D3
           A6           0.16000
           A7           0.00000   0.16000
           D1           0.00000   0.00000   0.01411
           D2           0.00000   0.00000   0.00000   0.01411
           D3           0.00000   0.00000   0.00000   0.00000   0.01411
     Eigenvalues ---    0.16000   0.16000   0.16000   0.16000   0.33553
     Eigenvalues ---    0.33666   0.33673   0.42279   0.532881000.00000
     Eigenvalues --- 1000.000001000.000001000.000001000.000001000.00000
 RFO step:  Lambda=-3.27077390D-03 EMin= 1.60000000D-01
 Linear search not attempted -- first point.
 Iteration  1 RMS(Cart)=  0.04703001 RMS(Int)=  0.00116788
 Iteration  2 RMS(Cart)=  0.00102463 RMS(Int)=  0.00000653
 Iteration  3 RMS(Cart)=  0.00000054 RMS(Int)=  0.00000652
 Iteration  1 RMS(Cart)=  0.00000287 RMS(Int)=  0.00000387
 Iteration  2 RMS(Cart)=  0.00000170 RMS(Int)=  0.00000431
 Iteration  3 RMS(Cart)=  0.00000101 RMS(Int)=  0.00000491
 Iteration  4 RMS(Cart)=  0.00000060 RMS(Int)=  0.00000535
 Variable       Old X    -DE/DX   Delta X   Delta X   Delta X     New X
                                 (Linear)    (Quad)   (Total)
    R1        2.68569   0.01869   0.00000   0.04387   0.04387   2.72956
    R2        1.83386  -0.00693   0.00000  -0.01292  -0.01292   1.82094
    R3        2.07898  -0.01265   0.00000  -0.03723  -0.03723   2.04175
    R4        2.07886  -0.01261   0.00000  -0.03710  -0.03710   2.04176
    R5        2.08090  -0.00914   0.00000  -0.02699  -0.02699   2.05391
    A1        1.89440   0.01191   0.00000   0.07294   0.07294   1.96733
    A2        1.93471  -0.00250   0.00000  -0.00616  -0.00617   1.92855
    A3        1.93440  -0.00243   0.00000  -0.00579  -0.00580   1.92860
    A4        1.92733   0.00880   0.00000   0.03597   0.03598   1.96332
    A5        1.93031  -0.00427   0.00000   0.00657   0.00655   1.93686
    A6        1.86737   0.00037   0.00000  -0.01525  -0.01524   1.85213
    A7        1.86745   0.00035   0.00000  -0.01543  -0.01542   1.85203
    D1       -2.06638  -0.00447   0.00000   0.00000   0.00000  -2.06638
    D2        2.06634   0.00448   0.00000   0.00000   0.00000   2.06634
    D3        0.00002   0.00000   0.00000   0.00000   0.00000   0.00002
         Item               Value     Threshold  Converged?
 Maximum Force            0.018691     0.002500     NO 
 RMS     Force            0.009093     0.001667     NO 
 Maximum Displacement     0.122386     0.010000     NO 
 RMS     Displacement     0.046618     0.006667     NO 
 Predicted change in Energy=-1.656546D-03
 GradGradGradGradGradGradGradGradGradGradGradGradGradGradGradGradGradGrad

 Leave Link  103 at Fri Jan  8 11:07:19 2021, MaxMem=13421772800 cpu:       0.0
 (Enter /opt/g09gh/gaussian/g09/l202.exe)
                          Input orientation:                          
 ---------------------------------------------------------------------
 Center     Atomic      Atomic             Coordinates (Angstroms)
 Number     Number       Type             X           Y           Z
 ---------------------------------------------------------------------
      1          8           0        0.754623    0.123639    0.004265
      2          6           0       -0.683859   -0.007149    0.000057
      3          1           0       -1.018837   -0.529678    0.884434
      4          1           0       -1.015327   -0.511636   -0.896044
      5          1           0       -1.188856    0.955255    0.008751
      6          1           0        1.044756    1.042468    0.014137
 ---------------------------------------------------------------------
                    Distance matrix (angstroms):
                    1          2          3          4          5
     1  O    0.000000
     2  C    1.444422   0.000000
     3  H    2.084869   1.080448   0.000000
     4  H    2.084911   1.080452   1.780573   0.000000
     5  H    2.113934   1.086885   1.732268   1.732206   0.000000
     6  H    0.963598   2.022376   2.736325   2.736350   2.235320
                    6
     6  H    0.000000
 Stoichiometry    CH4O
 Framework group  C1[X(CH4O)]
 Deg. of freedom    12
 Full point group                 C1      NOp   1
 Largest Abelian subgroup         C1      NOp   1
 Largest concise Abelian subgroup C1      NOp   1
                         Standard orientation:                         
 ---------------------------------------------------------------------
 Center     Atomic      Atomic             Coordinates (Angstroms)
 Number     Number       Type             X           Y           Z
 ---------------------------------------------------------------------
      1          8           0       -0.758645   -0.122138    0.000019
      2          6           0        0.679629    0.010987   -0.000008
      3          1           0        1.100706   -0.433480   -0.890239
      4          1           0        1.100772   -0.433205    0.890334
      5          1           0        1.001057    1.049256   -0.000117
      6          1           0       -1.211145    0.728606   -0.000084
 ---------------------------------------------------------------------
 Rotational constants (GHZ):    132.8168743     23.8550330     23.1875673
 Leave Link  202 at Fri Jan  8 11:07:19 2021, MaxMem=13421772800 cpu:       0.0
 (Enter /opt/g09gh/gaussian/g09/l301.exe)
 Standard basis: 3-21G (6D, 7F)
 Ernie: Thresh=  0.10000D-02 Tol=  0.10000D-05 Strict=F.
 There are    26 symmetry adapted basis functions of A   symmetry.
 Integral buffers will be    131072 words long.
 Raffenetti 1 integral format.
 Two-electron integral symmetry is turned on.
    26 basis functions,    42 primitive gaussians,    26 cartesian basis functions
     9 alpha electrons        9 beta electrons
       nuclear repulsion energy        39.9424524923 Hartrees.
 IExCor=    0 DFT=F Ex=HF Corr=None ExCW=0 ScaHFX=  1.000000
 ScaDFX=  1.000000  1.000000  1.000000  1.000000 ScalE2=  1.000000  1.000000
 IRadAn=      0 IRanWt=     -1 IRanGd=            0 ICorTp=0
 NAtoms=    6 NActive=    6 NUniq=    6 SFac= 7.50D-01 NAtFMM=   80 NAOKFM=F Big=F
 Leave Link  301 at Fri Jan  8 11:07:19 2021, MaxMem=13421772800 cpu:       0.5
 (Enter /opt/g09gh/gaussian/g09/l302.exe)
 NPDir=0 NMtPBC=     1 NCelOv=     1 NCel=       1 NClECP=     1 NCelD=      1
         NCelK=      1 NCelE2=     1 NClLst=     1 CellRange=     0.0.
 One-electron integrals computed using PRISM.
 NBasis=    26 RedAO= T  NBF=    26
 NBsUse=    26 1.00D-06 NBFU=    26
 Leave Link  302 at Fri Jan  8 11:07:19 2021, MaxMem=13421772800 cpu:       0.9
 (Enter /opt/g09gh/gaussian/g09/l303.exe)
 DipDrv:  MaxL=1.
 Leave Link  303 at Fri Jan  8 11:07:19 2021, MaxMem=13421772800 cpu:       0.3
 (Enter /opt/g09gh/gaussian/g09/l401.exe)
 Initial guess read from the read-write file.
 B after Tr=     0.000000    0.000000    0.000000
         Rot=    1.000000    0.000000    0.000000    0.000000 Ang=   0.00 deg.
 Guess basis will be translated and rotated to current coordinates.
 Initial guess orbital symmetries:
       Occupied  (A) (A) (A) (A) (A) (A) (A) (A) (A)
       Virtual   (A) (A) (A) (A) (A) (A) (A) (A) (A) (A) (A) (A)
                 (A) (A) (A) (A) (A)
 The electronic state of the initial guess is 1-A.
 Generating alternative initial guess.
 Harris functional with IExCor=  205 diagonalized for initial guess.
 ExpMin= 1.83D-01 ExpMax= 3.22D+02 ExpMxC= 3.22D+02 IAcc=1 IRadAn=         1 AccDes= 0.00D+00
 HarFok:  IExCor=  205 AccDes= 0.00D+00 IRadAn=         1 IDoV= 1
 ScaDFX=  1.000000  1.000000  1.000000  1.000000
 FoFCou: FMM=F IPFlag=           0 FMFlag=      100000 FMFlg1=           0
         NFxFlg=           0 DoJE=T BraDBF=F KetDBF=T FulRan=T
         Omega=  0.000000  0.000000  1.000000  0.000000  0.000000 ICntrl=     500 IOpCl=  0
         NMat0=    1 NMatS0=    1 NMatT0=    0 NMatD0=    1 NMtDS0=    0 NMtDT0=    0
         I1Cent=           4 NGrid=           0.
 Petite list used in FoFCou.
 Harris En= -114.571564703341    
 Leave Link  401 at Fri Jan  8 11:07:19 2021, MaxMem=13421772800 cpu:       1.4
 (Enter /opt/g09gh/gaussian/g09/l502.exe)
 Closed shell SCF:
 Requested convergence on RMS density matrix=1.00D-08 within 128 cycles.
 Requested convergence on MAX density matrix=1.00D-06.
 Requested convergence on             energy=1.00D-06.
 No special actions if energy rises.
 Using DIIS extrapolation, IDIIS=  1040.
 Integral symmetry usage will be decided dynamically.
 Keep R1 ints in memory in canonical form, NReq=882380.
 IEnd=       20590 IEndB=       20590 NGot= 13421772800 MDV= 13421707749
 LenX= 13421707749 LenY= 13421706632
 Symmetry not used in FoFDir.
 MinBra= 0 MaxBra= 1 Meth= 1.
 IRaf=       0 NMat=   1 IRICut=       1 DoRegI=T DoRafI=F ISym2E= 0 JSym2E=0.

 Cycle   1  Pass 1  IDiag  1:
 E= -114.394204881609    
 DIIS: error= 3.49D-03 at cycle   1 NSaved=   1.
 NSaved= 1 IEnMin= 1 EnMin= -114.394204881609     IErMin= 1 ErrMin= 3.49D-03
 ErrMax= 3.49D-03 EMaxC= 1.00D-01 BMatC= 7.31D-04 BMatP= 7.31D-04
 IDIUse=3 WtCom= 9.65D-01 WtEn= 3.49D-02
 Coeff-Com:  0.100D+01
 Coeff-En:   0.100D+01
 Coeff:      0.100D+01
 Gap=     0.694 Goal=   None    Shift=    0.000
 GapD=    0.694 DampG=2.000 DampE=1.000 DampFc=2.0000 IDamp=-1.
 RMSDP=1.04D-03 MaxDP=6.43D-03              OVMax= 7.83D-03

 Cycle   2  Pass 1  IDiag  1:
 E= -114.395006710604     Delta-E=       -0.000801828994 Rises=F Damp=F
 DIIS: error= 1.05D-03 at cycle   2 NSaved=   2.
 NSaved= 2 IEnMin= 2 EnMin= -114.395006710604     IErMin= 2 ErrMin= 1.05D-03
 ErrMax= 1.05D-03 EMaxC= 1.00D-01 BMatC= 4.37D-05 BMatP= 7.31D-04
 IDIUse=3 WtCom= 9.89D-01 WtEn= 1.05D-02
 Coeff-Com: -0.120D+00 0.112D+01
 Coeff-En:   0.000D+00 0.100D+01
 Coeff:     -0.119D+00 0.112D+01
 Gap=     0.693 Goal=   None    Shift=    0.000
 RMSDP=3.38D-04 MaxDP=1.60D-03 DE=-8.02D-04 OVMax= 2.96D-03

 Cycle   3  Pass 1  IDiag  1:
 E= -114.395078688442     Delta-E=       -0.000071977838 Rises=F Damp=F
 DIIS: error= 4.91D-04 at cycle   3 NSaved=   3.
 NSaved= 3 IEnMin= 3 EnMin= -114.395078688442     IErMin= 3 ErrMin= 4.91D-04
 ErrMax= 4.91D-04 EMaxC= 1.00D-01 BMatC= 5.92D-06 BMatP= 4.37D-05
 IDIUse=3 WtCom= 9.95D-01 WtEn= 4.91D-03
 Coeff-Com: -0.633D-01 0.192D+00 0.872D+00
 Coeff-En:   0.000D+00 0.000D+00 0.100D+01
 Coeff:     -0.630D-01 0.191D+00 0.872D+00
 Gap=     0.693 Goal=   None    Shift=    0.000
 RMSDP=1.07D-04 MaxDP=4.63D-04 DE=-7.20D-05 OVMax= 1.18D-03

 Cycle   4  Pass 1  IDiag  1:
 E= -114.395086756486     Delta-E=       -0.000008068045 Rises=F Damp=F
 DIIS: error= 1.44D-04 at cycle   4 NSaved=   4.
 NSaved= 4 IEnMin= 4 EnMin= -114.395086756486     IErMin= 4 ErrMin= 1.44D-04
 ErrMax= 1.44D-04 EMaxC= 1.00D-01 BMatC= 4.79D-07 BMatP= 5.92D-06
 IDIUse=3 WtCom= 9.99D-01 WtEn= 1.44D-03
 Coeff-Com:  0.711D-02-0.923D-01 0.276D-01 0.106D+01
 Coeff-En:   0.000D+00 0.000D+00 0.000D+00 0.100D+01
 Coeff:      0.710D-02-0.922D-01 0.276D-01 0.106D+01
 Gap=     0.693 Goal=   None    Shift=    0.000
 RMSDP=5.02D-05 MaxDP=2.48D-04 DE=-8.07D-06 OVMax= 5.36D-04

 Cycle   5  Pass 1  IDiag  1:
 E= -114.395087784770     Delta-E=       -0.000001028283 Rises=F Damp=F
 DIIS: error= 4.49D-05 at cycle   5 NSaved=   5.
 NSaved= 5 IEnMin= 5 EnMin= -114.395087784770     IErMin= 5 ErrMin= 4.49D-05
 ErrMax= 4.49D-05 EMaxC= 1.00D-01 BMatC= 4.15D-08 BMatP= 4.79D-07
 IDIUse=1 WtCom= 1.00D+00 WtEn= 0.00D+00
 Coeff-Com:  0.493D-02-0.255D-01-0.586D-01 0.111D+00 0.968D+00
 Coeff:      0.493D-02-0.255D-01-0.586D-01 0.111D+00 0.968D+00
 Gap=     0.693 Goal=   None    Shift=    0.000
 RMSDP=1.42D-05 MaxDP=6.97D-05 DE=-1.03D-06 OVMax= 1.63D-04

 Cycle   6  Pass 1  IDiag  1:
 E= -114.395087859717     Delta-E=       -0.000000074947 Rises=F Damp=F
 DIIS: error= 1.21D-05 at cycle   6 NSaved=   6.
 NSaved= 6 IEnMin= 6 EnMin= -114.395087859717     IErMin= 6 ErrMin= 1.21D-05
 ErrMax= 1.21D-05 EMaxC= 1.00D-01 BMatC= 2.69D-09 BMatP= 4.15D-08
 IDIUse=1 WtCom= 1.00D+00 WtEn= 0.00D+00
 Coeff-Com: -0.100D-02 0.109D-01 0.232D-04-0.115D+00 0.897D-02 0.110D+01
 Coeff:     -0.100D-02 0.109D-01 0.232D-04-0.115D+00 0.897D-02 0.110D+01
 Gap=     0.693 Goal=   None    Shift=    0.000
 RMSDP=3.97D-06 MaxDP=2.40D-05 DE=-7.49D-08 OVMax= 4.66D-05

 Cycle   7  Pass 1  IDiag  1:
 E= -114.395087864625     Delta-E=       -0.000000004908 Rises=F Damp=F
 DIIS: error= 1.76D-06 at cycle   7 NSaved=   7.
 NSaved= 7 IEnMin= 7 EnMin= -114.395087864625     IErMin= 7 ErrMin= 1.76D-06
 ErrMax= 1.76D-06 EMaxC= 1.00D-01 BMatC= 6.12D-11 BMatP= 2.69D-09
 IDIUse=1 WtCom= 1.00D+00 WtEn= 0.00D+00
 Coeff-Com:  0.261D-03-0.358D-02 0.177D-02 0.385D-01-0.160D-01-0.428D+00
 Coeff-Com:  0.141D+01
 Coeff:      0.261D-03-0.358D-02 0.177D-02 0.385D-01-0.160D-01-0.428D+00
 Coeff:      0.141D+01
 Gap=     0.693 Goal=   None    Shift=    0.000
 RMSDP=6.45D-07 MaxDP=3.08D-06 DE=-4.91D-09 OVMax= 6.04D-06

 Cycle   8  Pass 1  IDiag  1:
 E= -114.395087864774     Delta-E=       -0.000000000149 Rises=F Damp=F
 DIIS: error= 2.78D-07 at cycle   8 NSaved=   8.
 NSaved= 8 IEnMin= 8 EnMin= -114.395087864774     IErMin= 8 ErrMin= 2.78D-07
 ErrMax= 2.78D-07 EMaxC= 1.00D-01 BMatC= 1.59D-12 BMatP= 6.12D-11
 IDIUse=1 WtCom= 1.00D+00 WtEn= 0.00D+00
 Coeff-Com: -0.605D-04 0.935D-03-0.632D-03-0.998D-02 0.463D-02 0.120D+00
 Coeff-Com: -0.506D+00 0.139D+01
 Coeff:     -0.605D-04 0.935D-03-0.632D-03-0.998D-02 0.463D-02 0.120D+00
 Coeff:     -0.506D+00 0.139D+01
 Gap=     0.693 Goal=   None    Shift=    0.000
 RMSDP=1.20D-07 MaxDP=5.11D-07 DE=-1.49D-10 OVMax= 1.30D-06

 Cycle   9  Pass 1  IDiag  1:
 E= -114.395087864778     Delta-E=       -0.000000000004 Rises=F Damp=F
 DIIS: error= 2.42D-08 at cycle   9 NSaved=   9.
 NSaved= 9 IEnMin= 9 EnMin= -114.395087864778     IErMin= 9 ErrMin= 2.42D-08
 ErrMax= 2.42D-08 EMaxC= 1.00D-01 BMatC= 1.73D-14 BMatP= 1.59D-12
 IDIUse=1 WtCom= 1.00D+00 WtEn= 0.00D+00
 Coeff-Com:  0.113D-04-0.182D-03 0.140D-03 0.191D-02-0.100D-02-0.230D-01
 Coeff-Com:  0.104D+00-0.355D+00 0.127D+01
 Coeff:      0.113D-04-0.182D-03 0.140D-03 0.191D-02-0.100D-02-0.230D-01
 Coeff:      0.104D+00-0.355D+00 0.127D+01
 Gap=     0.693 Goal=   None    Shift=    0.000
 RMSDP=1.41D-08 MaxDP=6.98D-08 DE=-4.26D-12 OVMax= 1.06D-07

 Cycle  10  Pass 1  IDiag  1:
 E= -114.395087864778     Delta-E=        0.000000000000 Rises=F Damp=F
 DIIS: error= 2.37D-09 at cycle  10 NSaved=  10.
 NSaved=10 IEnMin= 9 EnMin= -114.395087864778     IErMin=10 ErrMin= 2.37D-09
 ErrMax= 2.37D-09 EMaxC= 1.00D-01 BMatC= 2.18D-16 BMatP= 1.73D-14
 IDIUse=1 WtCom= 1.00D+00 WtEn= 0.00D+00
 Coeff-Com: -0.165D-05 0.272D-04-0.209D-04-0.286D-03 0.137D-03 0.344D-02
 Coeff-Com: -0.162D-01 0.604D-01-0.290D+00 0.124D+01
 Coeff:     -0.165D-05 0.272D-04-0.209D-04-0.286D-03 0.137D-03 0.344D-02
 Coeff:     -0.162D-01 0.604D-01-0.290D+00 0.124D+01
 Gap=     0.693 Goal=   None    Shift=    0.000
 RMSDP=1.59D-09 MaxDP=8.30D-09 DE= 1.14D-13 OVMax= 1.06D-08

 SCF Done:  E(RHF) =  -114.395087865     A.U. after   10 cycles
             Convg  =    0.1586D-08             -V/T =  2.0028
 KE= 1.140756593439D+02 PE=-3.494071760759D+02 EE= 8.099397637492D+01
 Leave Link  502 at Fri Jan  8 11:07:19 2021, MaxMem=13421772800 cpu:       0.5
 (Enter /opt/g09gh/gaussian/g09/l701.exe)
 Compute integral first derivatives.
 ... and contract with generalized density number  0.
 Leave Link  701 at Fri Jan  8 11:07:19 2021, MaxMem=13421772800 cpu:       0.7
 (Enter /opt/g09gh/gaussian/g09/l702.exe)
 L702 exits ... SP integral derivatives will be done elsewhere.
 Leave Link  702 at Fri Jan  8 11:07:20 2021, MaxMem=13421772800 cpu:       0.3
 (Enter /opt/g09gh/gaussian/g09/l703.exe)
 Compute integral first derivatives, UseDBF=F ICtDFT=           0.
 Integral derivatives from FoFDir, PRISM(SPDF).
 Calling FoFJK, ICntrl=      2127 FMM=F ISym2X=0 I1Cent= 0 IOpClX= 0 NMat=1 NMatS=1 NMatT=0.
 FoFCou: FMM=F IPFlag=           0 FMFlag=      100000 FMFlg1=         800
         NFxFlg=           0 DoJE=F BraDBF=F KetDBF=F FulRan=T
         Omega=  0.000000  0.000000  1.000000  0.000000  0.000000 ICntrl=    2127 IOpCl=  0
         NMat0=    1 NMatS0=    1 NMatT0=    0 NMatD0=    1 NMtDS0=    0 NMtDT0=    0
         I1Cent=           0 NGrid=           0.
 Symmetry not used in FoFCou.
 Leave Link  703 at Fri Jan  8 11:07:20 2021, MaxMem=13421772800 cpu:       0.6
 (Enter /opt/g09gh/gaussian/g09/l716.exe)
 Dipole        = 4.29366699D-01 7.60547627D-01-9.62934666D-05
 ***** Axes restored to original set *****
 -------------------------------------------------------------------
 Center     Atomic                   Forces (Hartrees/Bohr)
 Number     Number              X              Y              Z
 -------------------------------------------------------------------
      1        8          -0.000313075   -0.005451023   -0.000058512
      2        6          -0.003552446    0.013472743    0.000125253
      3        1           0.002634605   -0.005189298   -0.001649561
      4        1           0.002637638   -0.005228195    0.001554984
      5        1           0.002067231    0.001869849    0.000029974
      6        1          -0.003473952    0.000525924   -0.000002139
 -------------------------------------------------------------------
 Cartesian Forces:  Max     0.013472743 RMS     0.004199082
 Leave Link  716 at Fri Jan  8 11:07:20 2021, MaxMem=13421772800 cpu:       0.3
 (Enter /opt/g09gh/gaussian/g09/l103.exe)

 GradGradGradGradGradGradGradGradGradGradGradGradGradGradGradGradGradGrad
 Berny optimization.
 Using GEDIIS/GDIIS optimizer.
 Internal  Forces:  Max     0.006320632 RMS     0.003506963
 Search for a local minimum.
 Step number   2 out of a maximum of    2
 All quantities printed in internal units (Hartrees-Bohrs-Radians)
 RMS Force = .28361D-02 SwitMx=.10000D-02 MixMth= 1
 Mixed Optimization -- RFO/linear search
 Update second derivatives using D2CorX and points    1    2
 DE= -1.20D-03 DEPred=-1.66D-03 R= 7.25D-01
 SS=  1.41D+00  RLast= 1.13D-01 DXNew= 5.0454D-01 3.3916D-01
 Trust test= 7.25D-01 RLast= 1.13D-01 DXMaxT set to 3.39D-01
 The second derivative matrix:
                          R1        R2        R3        R4        R5
           R1           0.44442
           R2           0.00384   0.52815
           R3          -0.00072  -0.00646   0.32927
           R4          -0.00073  -0.00644  -0.00736   0.32939
           R5          -0.00303  -0.00397  -0.00392  -0.00390   0.33378
           A1           0.03495  -0.00353  -0.01257  -0.01253  -0.01107
           A2           0.01183  -0.00382  -0.00733  -0.00730  -0.00542
           A3           0.01194  -0.00382  -0.00735  -0.00733  -0.00544
           A4           0.01660  -0.00156  -0.00583  -0.00582  -0.00519
           A5          -0.01466   0.00464   0.00897   0.00894   0.00665
           A6          -0.01365   0.00251   0.00623   0.00621   0.00504
           A7          -0.01363   0.00249   0.00620   0.00618   0.00502
           D1          -0.00134   0.00037   0.00076   0.00076   0.00058
           D2           0.00139  -0.00039  -0.00079  -0.00078  -0.00060
           D3          -0.00001   0.00000   0.00001   0.00001   0.00000
                          A1        A2        A3        A4        A5
           A1           0.19898
           A2           0.00847   0.16000
           A3           0.00861   0.00003   0.16007
           A4           0.01871   0.00415   0.00422   0.16898
           A5          -0.01067  -0.00010  -0.00014  -0.00522   0.16024
           A6          -0.01319  -0.00208  -0.00213  -0.00637   0.00266
           A7          -0.01321  -0.00209  -0.00214  -0.00638   0.00268
           D1          -0.00107  -0.00006  -0.00007  -0.00052   0.00009
           D2           0.00110   0.00007   0.00007   0.00054  -0.00009
           D3          -0.00001   0.00000   0.00000   0.00000   0.00000
                          A6        A7        D1        D2        D3
           A6           0.16413
           A7           0.00414   0.16415
           D1           0.00029   0.00029   0.01413
           D2          -0.00030  -0.00030  -0.00001   0.01413
           D3           0.00000   0.00000   0.00000   0.00000   0.01411
 Use linear search instead of GDIIS.
     Eigenvalues ---    0.15223   0.16000   0.16000   0.20467   0.32780
     Eigenvalues ---    0.33613   0.33669   0.45509   0.528901000.00000
     Eigenvalues --- 1000.000001000.000001000.000001000.000001000.00000
 RFO step:  Lambda=-2.04536843D-04 EMin= 1.52231399D-01
 Quartic linear search produced a step of -0.20672.
 Iteration  1 RMS(Cart)=  0.01624336 RMS(Int)=  0.00015787
 Iteration  2 RMS(Cart)=  0.00013070 RMS(Int)=  0.00004183
 Iteration  3 RMS(Cart)=  0.00000001 RMS(Int)=  0.00004183
 Iteration  1 RMS(Cart)=  0.00000050 RMS(Int)=  0.00000068
 Variable       Old X    -DE/DX   Delta X   Delta X   Delta X     New X
                                 (Linear)    (Quad)   (Total)
    R1        2.72956  -0.00422  -0.00907   0.00378  -0.00529   2.72427
    R2        1.82094  -0.00054   0.00267  -0.00426  -0.00159   1.81935
    R3        2.04175   0.00034   0.00770  -0.00908  -0.00139   2.04036
    R4        2.04176   0.00034   0.00767  -0.00905  -0.00138   2.04038
    R5        2.05391   0.00070   0.00558  -0.00553   0.00005   2.05397
    A1        1.96733  -0.00632  -0.01508  -0.01220  -0.02728   1.94005
    A2        1.92855  -0.00360   0.00127  -0.01269  -0.01148   1.91706
    A3        1.92860  -0.00361   0.00120  -0.01267  -0.01154   1.91706
    A4        1.96332  -0.00008  -0.00744  -0.00456  -0.01207   1.95125
    A5        1.93686  -0.00273  -0.00135   0.01379   0.01238   1.94923
    A6        1.85213   0.00531   0.00315   0.00911   0.01220   1.86432
    A7        1.85203   0.00532   0.00319   0.00910   0.01222   1.86425
    D1       -2.06638  -0.00423   0.00000   0.00000   0.00000  -2.06638
    D2        2.06634   0.00423   0.00000   0.00000   0.00000   2.06634
    D3        0.00002   0.00000   0.00000   0.00000   0.00000   0.00002
         Item               Value     Threshold  Converged?
 Maximum Force            0.006321     0.002500     NO 
 RMS     Force            0.002836     0.001667     NO 
 Maximum Displacement     0.046433     0.010000     NO 
 RMS     Displacement     0.016307     0.006667     NO 
 Predicted change in Energy=-1.850651D-04
 Optimization stopped.
    -- Number of steps exceeded,  NStep=   2
    -- Flag reset to prevent archiving.
                           ----------------------------
                           ! Non-Optimized Parameters !
                           ! (Angstroms and Degrees)  !
 --------------------------                            --------------------------
 ! Name  Definition              Value          Derivative Info.                !
 --------------------------------------------------------------------------------
 ! R1    R(1,2)                  1.4416         -DE/DX =   -0.0042              !
 ! R2    R(1,6)                  0.9628         -DE/DX =   -0.0005              !
 ! R3    R(2,3)                  1.0797         -DE/DX =    0.0003              !
 ! R4    R(2,4)                  1.0797         -DE/DX =    0.0003              !
 ! R5    R(2,5)                  1.0869         -DE/DX =    0.0007              !
 ! A1    A(2,1,6)              111.1569         -DE/DX =   -0.0063              !
 ! A2    A(1,2,3)              109.8395         -DE/DX =   -0.0036              !
 ! A3    A(1,2,4)              109.8395         -DE/DX =   -0.0036              !
 ! A4    A(1,2,5)              111.7982         -DE/DX =   -0.0001              !
 ! A5    A(3,2,4)              111.6828         -DE/DX =   -0.0027              !
 ! A6    A(3,2,5)              106.8179         -DE/DX =    0.0053              !
 ! A7    A(4,2,5)              106.8138         -DE/DX =    0.0053              !
 ! D1    D(6,1,2,3)           -118.3951         -DE/DX =   -0.0042              !
 ! D2    D(6,1,2,4)            118.3927         -DE/DX =    0.0042              !
 ! D3    D(6,1,2,5)              0.0014         -DE/DX =    0.0                 !
 --------------------------------------------------------------------------------
 GradGradGradGradGradGradGradGradGradGradGradGradGradGradGradGradGradGrad

 Largest change from initial coordinates is atom    6       0.070 Angstoms.
 Leave Link  103 at Fri Jan  8 11:07:20 2021, MaxMem=13421772800 cpu:       0.0
 (Enter /opt/g09gh/gaussian/g09/l202.exe)
                          Input orientation:                          
 ---------------------------------------------------------------------
 Center     Atomic      Atomic             Coordinates (Angstroms)
 Number     Number       Type             X           Y           Z
 ---------------------------------------------------------------------
      1          8           0        0.754623    0.123639    0.004265
      2          6           0       -0.683859   -0.007149    0.000057
      3          1           0       -1.018837   -0.529678    0.884434
      4          1           0       -1.015327   -0.511636   -0.896044
      5          1           0       -1.188856    0.955255    0.008751
      6          1           0        1.044756    1.042468    0.014137
 ---------------------------------------------------------------------
                    Distance matrix (angstroms):
                    1          2          3          4          5
     1  O    0.000000
     2  C    1.444422   0.000000
     3  H    2.084869   1.080448   0.000000
     4  H    2.084911   1.080452   1.780573   0.000000
     5  H    2.113934   1.086885   1.732268   1.732206   0.000000
     6  H    0.963598   2.022376   2.736325   2.736350   2.235320
                    6
     6  H    0.000000
 Stoichiometry    CH4O
 Framework group  C1[X(CH4O)]
 Deg. of freedom    12
 Full point group                 C1      NOp   1
 Largest Abelian subgroup         C1      NOp   1
 Largest concise Abelian subgroup C1      NOp   1
                         Standard orientation:                         
 ---------------------------------------------------------------------
 Center     Atomic      Atomic             Coordinates (Angstroms)
 Number     Number       Type             X           Y           Z
 ---------------------------------------------------------------------
      1          8           0       -0.758645   -0.122138    0.000019
      2          6           0        0.679629    0.010987   -0.000008
      3          1           0        1.100706   -0.433480   -0.890239
      4          1           0        1.100772   -0.433205    0.890334
      5          1           0        1.001057    1.049256   -0.000117
      6          1           0       -1.211145    0.728606   -0.000084
 ---------------------------------------------------------------------
 Rotational constants (GHZ):    132.8168743     23.8550330     23.1875673
 Leave Link  202 at Fri Jan  8 11:07:20 2021, MaxMem=13421772800 cpu:       0.0
 (Enter /opt/g09gh/gaussian/g09/l601.exe)
 Copying SCF densities to generalized density rwf, IOpCl= 0 IROHF=0.

 **********************************************************************

            Population analysis using the SCF density.

 **********************************************************************

 Orbital symmetries:
       Occupied  (A) (A) (A) (A) (A) (A) (A) (A) (A)
       Virtual   (A) (A) (A) (A) (A) (A) (A) (A) (A) (A) (A) (A)
                 (A) (A) (A) (A) (A)
 The electronic state is 1-A.
 Alpha  occ. eigenvalues --  -20.43192 -11.21236  -1.33034  -0.92888  -0.66699
 Alpha  occ. eigenvalues --   -0.61546  -0.57760  -0.47508  -0.43315
 Alpha virt. eigenvalues --    0.25947   0.30909   0.34989   0.35874   0.43299
 Alpha virt. eigenvalues --    0.93783   0.96046   0.96726   1.26576   1.31047
 Alpha virt. eigenvalues --    1.33055   1.33760   1.88542   1.89335   1.97161
 Alpha virt. eigenvalues --    2.16989   3.31964
          Condensed to atoms (all electrons):
              1          2          3          4          5          6
     1  O    8.273628   0.235981  -0.032880  -0.032876  -0.026181   0.268441
     2  C    0.235981   4.994886   0.362624   0.362616   0.351445  -0.044125
     3  H   -0.032880   0.362624   0.545464  -0.039931  -0.038018   0.002987
     4  H   -0.032876   0.362616  -0.039931   0.545484  -0.038028   0.002987
     5  H   -0.026181   0.351445  -0.038018  -0.038028   0.589178  -0.008502
     6  H    0.268441  -0.044125   0.002987   0.002987  -0.008502   0.398282
 Mulliken atomic charges:
              1
     1  O   -0.686113
     2  C   -0.263426
     3  H    0.199754
     4  H    0.199748
     5  H    0.170106
     6  H    0.379930
 Sum of Mulliken atomic charges =   0.00000
 Mulliken charges with hydrogens summed into heavy atoms:
              1
     1  O   -0.306183
     2  C    0.306183
 Sum of Mulliken charges with hydrogens summed into heavy atoms =   0.00000
 Electronic spatial extent (au):  <R**2>=             85.2025
 Charge=              0.0000 electrons
 Dipole moment (field-independent basis, Debye):
    X=              1.0913    Y=              1.9331    Z=             -0.0002  Tot=              2.2199
 Quadrupole moment (field-independent basis, Debye-Ang):
   XX=            -12.1949   YY=            -12.3338   ZZ=            -13.3134
   XY=             -2.3898   XZ=              0.0003   YZ=              0.0000
 Traceless Quadrupole moment (field-independent basis, Debye-Ang):
   XX=              0.4191   YY=              0.2803   ZZ=             -0.6994
   XY=             -2.3898   XZ=              0.0003   YZ=              0.0000
 Octapole moment (field-independent basis, Debye-Ang**2):
  XXX=             -4.9049  YYY=              1.5736  ZZZ=              0.0001  XYY=             -2.2092
  XXY=              2.7892  XXZ=             -0.0002  XZZ=             -0.4920  YZZ=             -0.2693
  YYZ=             -0.0003  XYZ=              0.0003
 Hexadecapole moment (field-independent basis, Debye-Ang**3):
 XXXX=            -59.3062 YYYY=            -18.3175 ZZZZ=            -17.2872 XXXY=             -3.8830
 XXXZ=              0.0006 YYYX=             -1.4377 YYYZ=              0.0000 ZZZX=              0.0003
 ZZZY=              0.0001 XXYY=            -12.1678 XXZZ=            -12.9683 YYZZ=             -6.1430
 XXYZ=              0.0000 YYXZ=             -0.0001 ZZXY=             -0.9035
 N-N= 3.994245249233D+01 E-N=-3.494071760767D+02  KE= 1.140756593439D+02
 No NMR shielding tensors so no spin-rotation constants.
 Leave Link  601 at Fri Jan  8 11:07:20 2021, MaxMem=13421772800 cpu:       0.7
 (Enter /opt/g09gh/gaussian/g09/l9999.exe)


 ALL THINGS ARE POSSIBLE EXCEPT SKIING THROUGH A REVOLVING DOOR.
 Error termination request processed by link 9999.
 Error termination via Lnk1e in /opt/g09gh/gaussian/g09/l9999.exe at Fri Jan  8 11:07:20 2021.
 Job cpu time:  0 days  0 hours  0 minutes 14.5 seconds.
 File lengths (MBytes):  RWF=      5 Int=      0 D2E=      0 Chk=      1 Scr=      1
