 Entering Gaussian System, Link 0=/opt/g09gh/gaussian/g09/g09
 Input=methanol-opt-1_2-1-062.com
 Output=methanol-opt-1_2-1-062.log
 Initial command:
 /opt/g09gh/gaussian/g09/l1.exe /scratch/bdw2292/Gau-methanol/Gau-33878.inp -scrdir=/scratch/bdw2292/Gau-methanol/
 Entering Link 1 = /opt/g09gh/gaussian/g09/l1.exe PID=     33879.
  
 Copyright (c) 1988,1990,1992,1993,1995,1998,2003,2009, Gaussian, Inc.
                  All Rights Reserved.
  
 This is part of the Gaussian(R) 09 program.  It is based on
 the Gaussian(R) 03 system (copyright 2003, Gaussian, Inc.),
 the Gaussian(R) 98 system (copyright 1998, Gaussian, Inc.),
 the Gaussian(R) 94 system (copyright 1995, Gaussian, Inc.),
 the Gaussian 92(TM) system (copyright 1992, Gaussian, Inc.),
 the Gaussian 90(TM) system (copyright 1990, Gaussian, Inc.),
 the Gaussian 88(TM) system (copyright 1988, Gaussian, Inc.),
 the Gaussian 86(TM) system (copyright 1986, Carnegie Mellon
 University), and the Gaussian 82(TM) system (copyright 1983,
 Carnegie Mellon University). Gaussian is a federally registered
 trademark of Gaussian, Inc.
  
 This software contains proprietary and confidential information,
 including trade secrets, belonging to Gaussian, Inc.
  
 This software is provided under written license and may be
 used, copied, transmitted, or stored only in accord with that
 written license.
  
 The following legend is applicable only to US Government
 contracts under FAR:
  
                    RESTRICTED RIGHTS LEGEND
  
 Use, reproduction and disclosure by the US Government is
 subject to restrictions as set forth in subparagraphs (a)
 and (c) of the Commercial Computer Software - Restricted
 Rights clause in FAR 52.227-19.
  
 Gaussian, Inc.
 340 Quinnipiac St., Bldg. 40, Wallingford CT 06492
  
  
 ---------------------------------------------------------------
 Warning -- This program may not be used in any manner that
 competes with the business of Gaussian, Inc. or will provide
 assistance to any competitor of Gaussian, Inc.  The licensee
 of this program is prohibited from giving any competitor of
 Gaussian, Inc. access to this program.  By using this program,
 the user acknowledges that Gaussian, Inc. is engaged in the
 business of creating and licensing software in the field of
 computational chemistry and represents and warrants to the
 licensee that it is not a competitor of Gaussian, Inc. and that
 it will not use this program in any manner prohibited above.
 ---------------------------------------------------------------
  

 Cite this work as:
 Gaussian 09, Revision A.02,
 M. J. Frisch, G. W. Trucks, H. B. Schlegel, G. E. Scuseria, 
 M. A. Robb, J. R. Cheeseman, G. Scalmani, V. Barone, B. Mennucci, 
 G. A. Petersson, H. Nakatsuji, M. Caricato, X. Li, H. P. Hratchian, 
 A. F. Izmaylov, J. Bloino, G. Zheng, J. L. Sonnenberg, M. Hada, 
 M. Ehara, K. Toyota, R. Fukuda, J. Hasegawa, M. Ishida, T. Nakajima, 
 Y. Honda, O. Kitao, H. Nakai, T. Vreven, J. A. Montgomery, Jr., 
 J. E. Peralta, F. Ogliaro, M. Bearpark, J. J. Heyd, E. Brothers, 
 K. N. Kudin, V. N. Staroverov, R. Kobayashi, J. Normand, 
 K. Raghavachari, A. Rendell, J. C. Burant, S. S. Iyengar, J. Tomasi, 
 M. Cossi, N. Rega, J. M. Millam, M. Klene, J. E. Knox, J. B. Cross, 
 V. Bakken, C. Adamo, J. Jaramillo, R. Gomperts, R. E. Stratmann, 
 O. Yazyev, A. J. Austin, R. Cammi, C. Pomelli, J. W. Ochterski, 
 R. L. Martin, K. Morokuma, V. G. Zakrzewski, G. A. Voth, 
 P. Salvador, J. J. Dannenberg, S. Dapprich, A. D. Daniels, 
 O. Farkas, J. B. Foresman, J. V. Ortiz, J. Cioslowski, 
 and D. J. Fox, Gaussian, Inc., Wallingford CT, 2009.
 
 ******************************************
 Gaussian 09:  EM64L-G09RevA.02 11-Jun-2009
                 8-Jan-2021 
 ******************************************
 %RWF=/scratch/bdw2292/Gau-methanol/,200GB
 %Nosave
 %Chk=methanol-opt-1_2-1-062.chk
 %Mem=100GB
 %Nproc=8
 Will use up to    8 processors via shared memory.
 -------------------------------------------------------------
 #P opt=(ModRedundant,maxcycle=2,Loose) HF/3-21G MaxDisk=200GB
 -------------------------------------------------------------
 1/6=2,7=-1,18=120,19=15,38=1/1,3;
 2/9=110,12=2,17=6,18=5,40=1/2;
 3/5=5,11=9,16=1,25=1,30=1,71=1/1,2,3;
 4//1;
 5/5=2,38=5/2;
 6/7=2,8=2,9=2,10=2,28=1/1;
 7//1,2,3,16;
 1/6=2,7=-1,18=20,19=15/3(2);
 2/9=110/2;
 99//99;
 2/9=110/2;
 3/5=5,11=9,16=1,25=1,30=1,71=1/1,2,3;
 4/5=5,16=3/1;
 5/5=2,38=5/2;
 7//1,2,3,16;
 1/6=2,7=-1,18=20,19=15/3(-5);
 2/9=110/2;
 6/7=2,8=2,9=2,10=2,19=2,28=1/1;
 99/9=1/99;
 Leave Link    1 at Fri Jan  8 10:56:02 2021, MaxMem=13421772800 cpu:       0.3
 (Enter /opt/g09gh/gaussian/g09/l101.exe)
 -------------------------------------------------------------
 methanol Rotatable Bond Optimization on node37.bme.utexas.edu
 -------------------------------------------------------------
 Symbolic Z-matrix:
 Charge =  0 Multiplicity = 1
 O                     0.7496    0.10466   0.00236 
 C                    -0.66605  -0.01474  -0.00047 
 H                    -1.02254  -0.53698   0.90041 
 H                    -1.01971  -0.52954  -0.90674 
 H                    -1.12031   0.98695   0.0029 
 H                     1.12841  -0.78875  -0.00068 
 
 NAtoms=      6 NQM=      6 NQMF=      0 NMic=      0 NMicF=      0 NTot=      6.
 The following ModRedundant input section has been read:
 D    6    1    2    3 F                                                       
 D    6    1    2    4 F                                                       
 D    6    1    2    5 F                                                       
                    Isotopes and Nuclear Properties:
 (Nuclear quadrupole moments (NQMom) in fm**2, nuclear magnetic moments (NMagM)
  in nuclear magnetons)

  Atom         1           2           3           4           5           6
 IAtWgt=          16          12           1           1           1           1
 AtmWgt=  15.9949146  12.0000000   1.0078250   1.0078250   1.0078250   1.0078250
 NucSpn=           0           0           1           1           1           1
 AtZEff=   0.0000000   0.0000000   0.0000000   0.0000000   0.0000000   0.0000000
 NQMom=    0.0000000   0.0000000   0.0000000   0.0000000   0.0000000   0.0000000
 NMagM=    0.0000000   0.0000000   2.7928460   2.7928460   2.7928460   2.7928460
 Leave Link  101 at Fri Jan  8 10:56:02 2021, MaxMem=13421772800 cpu:       1.0
 (Enter /opt/g09gh/gaussian/g09/l103.exe)

 GradGradGradGradGradGradGradGradGradGradGradGradGradGradGradGradGradGrad
 Berny optimization.
 Initialization pass.
                           ----------------------------
                           !    Initial Parameters    !
                           ! (Angstroms and Degrees)  !
 --------------------------                            --------------------------
 ! Name  Definition              Value          Derivative Info.                !
 --------------------------------------------------------------------------------
 ! R1    R(1,2)                  1.4207         estimate D2E/DX2                !
 ! R2    R(1,6)                  0.9704         estimate D2E/DX2                !
 ! R3    R(2,3)                  1.1006         estimate D2E/DX2                !
 ! R4    R(2,4)                  1.1006         estimate D2E/DX2                !
 ! R5    R(2,5)                  1.0999         estimate D2E/DX2                !
 ! A1    A(2,1,6)              108.1556         estimate D2E/DX2                !
 ! A2    A(1,2,3)              111.1615         estimate D2E/DX2                !
 ! A3    A(1,2,4)              111.1699         estimate D2E/DX2                !
 ! A4    A(1,2,5)              109.5724         estimate D2E/DX2                !
 ! A5    A(3,2,4)              110.3623         estimate D2E/DX2                !
 ! A6    A(3,2,5)              107.2083         estimate D2E/DX2                !
 ! A7    A(4,2,5)              107.2043         estimate D2E/DX2                !
 ! D1    D(6,1,2,3)             61.6842         Frozen                          !
 ! D2    D(6,1,2,4)            -61.6849         Frozen                          !
 ! D3    D(6,1,2,5)            179.9995         Frozen                          !
 --------------------------------------------------------------------------------
 Trust Radius=3.00D-01 FncErr=1.00D-07 GrdErr=1.00D-07
 Number of steps in this run=   2 maximum allowed number of steps= 100.
 GradGradGradGradGradGradGradGradGradGradGradGradGradGradGradGradGradGrad

 Leave Link  103 at Fri Jan  8 10:56:02 2021, MaxMem=13421772800 cpu:       0.1
 (Enter /opt/g09gh/gaussian/g09/l202.exe)
                          Input orientation:                          
 ---------------------------------------------------------------------
 Center     Atomic      Atomic             Coordinates (Angstroms)
 Number     Number       Type             X           Y           Z
 ---------------------------------------------------------------------
      1          8           0        0.749597    0.104659    0.002363
      2          6           0       -0.666048   -0.014741   -0.000467
      3          1           0       -1.022542   -0.536980    0.900414
      4          1           0       -1.019709   -0.529535   -0.906735
      5          1           0       -1.120306    0.986946    0.002904
      6          1           0        1.128408   -0.788750   -0.000679
 ---------------------------------------------------------------------
                    Distance matrix (angstroms):
                    1          2          3          4          5
     1  O    0.000000
     2  C    1.420674   0.000000
     3  H    2.087743   1.100640   0.000000
     4  H    2.087847   1.100641   1.807167   0.000000
     5  H    2.067600   1.099881   1.771280   1.771236   0.000000
     6  H    0.970405   1.954268   2.345622   2.345749   2.865279
                    6
     6  H    0.000000
 Stoichiometry    CH4O
 Framework group  C1[X(CH4O)]
 Deg. of freedom    12
 Full point group                 C1      NOp   1
 Largest Abelian subgroup         C1      NOp   1
 Largest concise Abelian subgroup C1      NOp   1
                         Standard orientation:                         
 ---------------------------------------------------------------------
 Center     Atomic      Atomic             Coordinates (Angstroms)
 Number     Number       Type             X           Y           Z
 ---------------------------------------------------------------------
      1          8           0       -0.748693    0.128653    0.000002
      2          6           0        0.663814   -0.023465   -0.000001
      3          1           0        1.006720   -0.550124   -0.903579
      4          1           0        1.006890   -0.549999    0.903587
      5          1           0        1.141117    0.967454   -0.000071
      6          1           0       -1.148065   -0.755761    0.000056
 ---------------------------------------------------------------------
 Rotational constants (GHZ):    126.8972709     24.6539264     23.8497663
 Leave Link  202 at Fri Jan  8 10:56:02 2021, MaxMem=13421772800 cpu:       0.0
 (Enter /opt/g09gh/gaussian/g09/l301.exe)
 Standard basis: 3-21G (6D, 7F)
 Ernie: Thresh=  0.10000D-02 Tol=  0.10000D-05 Strict=F.
 There are    26 symmetry adapted basis functions of A   symmetry.
 Integral buffers will be    131072 words long.
 Raffenetti 1 integral format.
 Two-electron integral symmetry is turned on.
    26 basis functions,    42 primitive gaussians,    26 cartesian basis functions
     9 alpha electrons        9 beta electrons
       nuclear repulsion energy        40.1517288977 Hartrees.
 IExCor=    0 DFT=F Ex=HF Corr=None ExCW=0 ScaHFX=  1.000000
 ScaDFX=  1.000000  1.000000  1.000000  1.000000 ScalE2=  1.000000  1.000000
 IRadAn=      0 IRanWt=     -1 IRanGd=            0 ICorTp=0
 NAtoms=    6 NActive=    6 NUniq=    6 SFac= 7.50D-01 NAtFMM=   80 NAOKFM=F Big=F
 Leave Link  301 at Fri Jan  8 10:56:03 2021, MaxMem=13421772800 cpu:       0.5
 (Enter /opt/g09gh/gaussian/g09/l302.exe)
 NPDir=0 NMtPBC=     1 NCelOv=     1 NCel=       1 NClECP=     1 NCelD=      1
         NCelK=      1 NCelE2=     1 NClLst=     1 CellRange=     0.0.
 One-electron integrals computed using PRISM.
 NBasis=    26 RedAO= T  NBF=    26
 NBsUse=    26 1.00D-06 NBFU=    26
 Leave Link  302 at Fri Jan  8 10:56:03 2021, MaxMem=13421772800 cpu:       0.9
 (Enter /opt/g09gh/gaussian/g09/l303.exe)
 DipDrv:  MaxL=1.
 Leave Link  303 at Fri Jan  8 10:56:03 2021, MaxMem=13421772800 cpu:       0.3
 (Enter /opt/g09gh/gaussian/g09/l401.exe)
 Harris functional with IExCor=  205 diagonalized for initial guess.
 ExpMin= 1.83D-01 ExpMax= 3.22D+02 ExpMxC= 3.22D+02 IAcc=1 IRadAn=         1 AccDes= 0.00D+00
 HarFok:  IExCor=  205 AccDes= 0.00D+00 IRadAn=         1 IDoV= 1
 ScaDFX=  1.000000  1.000000  1.000000  1.000000
 FoFCou: FMM=F IPFlag=           0 FMFlag=      100000 FMFlg1=           0
         NFxFlg=           0 DoJE=T BraDBF=F KetDBF=T FulRan=T
         Omega=  0.000000  0.000000  1.000000  0.000000  0.000000 ICntrl=     500 IOpCl=  0
         NMat0=    1 NMatS0=    1 NMatT0=    0 NMatD0=    1 NMtDS0=    0 NMtDT0=    0
         I1Cent=           4 NGrid=           0.
 Petite list used in FoFCou.
 Harris En= -114.571572400583    
 Initial guess orbital symmetries:
       Occupied  (A) (A) (A) (A) (A) (A) (A) (A) (A)
       Virtual   (A) (A) (A) (A) (A) (A) (A) (A) (A) (A) (A) (A)
                 (A) (A) (A) (A) (A)
 The electronic state of the initial guess is 1-A.
 Leave Link  401 at Fri Jan  8 10:56:03 2021, MaxMem=13421772800 cpu:       1.2
 (Enter /opt/g09gh/gaussian/g09/l502.exe)
 Closed shell SCF:
 Requested convergence on RMS density matrix=1.00D-08 within 128 cycles.
 Requested convergence on MAX density matrix=1.00D-06.
 Requested convergence on             energy=1.00D-06.
 No special actions if energy rises.
 Using DIIS extrapolation, IDIIS=  1040.
 Integral symmetry usage will be decided dynamically.
 Keep R1 ints in memory in canonical form, NReq=882380.
 IEnd=       20590 IEndB=       20590 NGot= 13421772800 MDV= 13421707749
 LenX= 13421707749 LenY= 13421706632
 Symmetry not used in FoFDir.
 MinBra= 0 MaxBra= 1 Meth= 1.
 IRaf=       0 NMat=   1 IRICut=       1 DoRegI=T DoRafI=F ISym2E= 0 JSym2E=0.

 Cycle   1  Pass 1  IDiag  1:
 E= -114.311623771314    
 DIIS: error= 4.98D-02 at cycle   1 NSaved=   1.
 NSaved= 1 IEnMin= 1 EnMin= -114.311623771314     IErMin= 1 ErrMin= 4.98D-02
 ErrMax= 4.98D-02 EMaxC= 1.00D-01 BMatC= 1.28D-01 BMatP= 1.28D-01
 IDIUse=3 WtCom= 5.02D-01 WtEn= 4.98D-01
 Coeff-Com:  0.100D+01
 Coeff-En:   0.100D+01
 Coeff:      0.100D+01
 Gap=     0.675 Goal=   None    Shift=    0.000
 GapD=    0.675 DampG=2.000 DampE=0.500 DampFc=1.0000 IDamp=-1.
 RMSDP=1.16D-02 MaxDP=6.44D-02              OVMax= 8.41D-02

 Cycle   2  Pass 1  IDiag  1:
 E= -114.383577289850     Delta-E=       -0.071953518536 Rises=F Damp=F
 DIIS: error= 2.57D-02 at cycle   2 NSaved=   2.
 NSaved= 2 IEnMin= 2 EnMin= -114.383577289850     IErMin= 2 ErrMin= 2.57D-02
 ErrMax= 2.57D-02 EMaxC= 1.00D-01 BMatC= 1.99D-02 BMatP= 1.28D-01
 IDIUse=3 WtCom= 7.43D-01 WtEn= 2.57D-01
 Coeff-Com:  0.242D+00 0.758D+00
 Coeff-En:   0.000D+00 0.100D+01
 Coeff:      0.180D+00 0.820D+00
 Gap=     0.713 Goal=   None    Shift=    0.000
 RMSDP=4.06D-03 MaxDP=2.52D-02 DE=-7.20D-02 OVMax= 2.25D-02

 Cycle   3  Pass 1  IDiag  1:
 E= -114.395844507753     Delta-E=       -0.012267217904 Rises=F Damp=F
 DIIS: error= 6.13D-03 at cycle   3 NSaved=   3.
 NSaved= 3 IEnMin= 3 EnMin= -114.395844507753     IErMin= 3 ErrMin= 6.13D-03
 ErrMax= 6.13D-03 EMaxC= 1.00D-01 BMatC= 8.56D-04 BMatP= 1.99D-02
 IDIUse=3 WtCom= 9.39D-01 WtEn= 6.13D-02
 Coeff-Com: -0.158D-01 0.136D+00 0.880D+00
 Coeff-En:   0.000D+00 0.000D+00 0.100D+01
 Coeff:     -0.148D-01 0.128D+00 0.887D+00
 Gap=     0.694 Goal=   None    Shift=    0.000
 RMSDP=7.56D-04 MaxDP=5.73D-03 DE=-1.23D-02 OVMax= 6.57D-03

 Cycle   4  Pass 1  IDiag  1:
 E= -114.396433426779     Delta-E=       -0.000588919026 Rises=F Damp=F
 DIIS: error= 1.43D-03 at cycle   4 NSaved=   4.
 NSaved= 4 IEnMin= 4 EnMin= -114.396433426779     IErMin= 4 ErrMin= 1.43D-03
 ErrMax= 1.43D-03 EMaxC= 1.00D-01 BMatC= 3.77D-05 BMatP= 8.56D-04
 IDIUse=3 WtCom= 9.86D-01 WtEn= 1.43D-02
 Coeff-Com: -0.781D-02 0.936D-02 0.219D+00 0.779D+00
 Coeff-En:   0.000D+00 0.000D+00 0.000D+00 0.100D+01
 Coeff:     -0.770D-02 0.922D-02 0.216D+00 0.782D+00
 Gap=     0.695 Goal=   None    Shift=    0.000
 RMSDP=1.78D-04 MaxDP=1.07D-03 DE=-5.89D-04 OVMax= 1.30D-03

 Cycle   5  Pass 1  IDiag  1:
 E= -114.396463394378     Delta-E=       -0.000029967599 Rises=F Damp=F
 DIIS: error= 2.51D-04 at cycle   5 NSaved=   5.
 NSaved= 5 IEnMin= 5 EnMin= -114.396463394378     IErMin= 5 ErrMin= 2.51D-04
 ErrMax= 2.51D-04 EMaxC= 1.00D-01 BMatC= 1.34D-06 BMatP= 3.77D-05
 IDIUse=3 WtCom= 9.97D-01 WtEn= 2.51D-03
 Coeff-Com:  0.269D-02-0.145D-01-0.107D+00-0.139D+00 0.126D+01
 Coeff-En:   0.000D+00 0.000D+00 0.000D+00 0.000D+00 0.100D+01
 Coeff:      0.268D-02-0.145D-01-0.106D+00-0.138D+00 0.126D+01
 Gap=     0.696 Goal=   None    Shift=    0.000
 RMSDP=7.97D-05 MaxDP=4.07D-04 DE=-3.00D-05 OVMax= 5.66D-04

 Cycle   6  Pass 1  IDiag  1:
 E= -114.396465735687     Delta-E=       -0.000002341308 Rises=F Damp=F
 DIIS: error= 4.25D-05 at cycle   6 NSaved=   6.
 NSaved= 6 IEnMin= 6 EnMin= -114.396465735687     IErMin= 6 ErrMin= 4.25D-05
 ErrMax= 4.25D-05 EMaxC= 1.00D-01 BMatC= 1.61D-08 BMatP= 1.34D-06
 IDIUse=1 WtCom= 1.00D+00 WtEn= 0.00D+00
 Coeff-Com: -0.684D-03 0.422D-02 0.299D-01 0.233D-01-0.378D+00 0.132D+01
 Coeff:     -0.684D-03 0.422D-02 0.299D-01 0.233D-01-0.378D+00 0.132D+01
 Gap=     0.696 Goal=   None    Shift=    0.000
 RMSDP=1.21D-05 MaxDP=6.69D-05 DE=-2.34D-06 OVMax= 7.58D-05

 Cycle   7  Pass 1  IDiag  1:
 E= -114.396465769550     Delta-E=       -0.000000033863 Rises=F Damp=F
 DIIS: error= 3.25D-06 at cycle   7 NSaved=   7.
 NSaved= 7 IEnMin= 7 EnMin= -114.396465769550     IErMin= 7 ErrMin= 3.25D-06
 ErrMax= 3.25D-06 EMaxC= 1.00D-01 BMatC= 2.69D-10 BMatP= 1.61D-08
 IDIUse=1 WtCom= 1.00D+00 WtEn= 0.00D+00
 Coeff-Com:  0.153D-03-0.971D-03-0.700D-02-0.471D-02 0.909D-01-0.394D+00
 Coeff-Com:  0.132D+01
 Coeff:      0.153D-03-0.971D-03-0.700D-02-0.471D-02 0.909D-01-0.394D+00
 Coeff:      0.132D+01
 Gap=     0.696 Goal=   None    Shift=    0.000
 RMSDP=1.82D-06 MaxDP=9.75D-06 DE=-3.39D-08 OVMax= 1.62D-05

 Cycle   8  Pass 1  IDiag  1:
 E= -114.396465770295     Delta-E=       -0.000000000745 Rises=F Damp=F
 DIIS: error= 7.03D-07 at cycle   8 NSaved=   8.
 NSaved= 8 IEnMin= 8 EnMin= -114.396465770295     IErMin= 8 ErrMin= 7.03D-07
 ErrMax= 7.03D-07 EMaxC= 1.00D-01 BMatC= 1.17D-11 BMatP= 2.69D-10
 IDIUse=1 WtCom= 1.00D+00 WtEn= 0.00D+00
 Coeff-Com: -0.264D-04 0.169D-03 0.124D-02 0.417D-03-0.158D-01 0.823D-01
 Coeff-Com: -0.404D+00 0.134D+01
 Coeff:     -0.264D-04 0.169D-03 0.124D-02 0.417D-03-0.158D-01 0.823D-01
 Coeff:     -0.404D+00 0.134D+01
 Gap=     0.696 Goal=   None    Shift=    0.000
 RMSDP=3.24D-07 MaxDP=1.76D-06 DE=-7.45D-10 OVMax= 3.47D-06

 Cycle   9  Pass 1  IDiag  1:
 E= -114.396465770325     Delta-E=       -0.000000000030 Rises=F Damp=F
 DIIS: error= 1.89D-07 at cycle   9 NSaved=   9.
 NSaved= 9 IEnMin= 9 EnMin= -114.396465770325     IErMin= 9 ErrMin= 1.89D-07
 ErrMax= 1.89D-07 EMaxC= 1.00D-01 BMatC= 4.40D-13 BMatP= 1.17D-11
 IDIUse=1 WtCom= 1.00D+00 WtEn= 0.00D+00
 Coeff-Com:  0.610D-05-0.398D-04-0.294D-03-0.244D-05 0.360D-02-0.213D-01
 Coeff-Com:  0.126D+00-0.591D+00 0.148D+01
 Coeff:      0.610D-05-0.398D-04-0.294D-03-0.244D-05 0.360D-02-0.213D-01
 Coeff:      0.126D+00-0.591D+00 0.148D+01
 Gap=     0.696 Goal=   None    Shift=    0.000
 RMSDP=8.18D-08 MaxDP=7.50D-07 DE=-3.02D-11 OVMax= 8.88D-07

 Cycle  10  Pass 1  IDiag  1:
 E= -114.396465770326     Delta-E=       -0.000000000001 Rises=F Damp=F
 DIIS: error= 1.63D-08 at cycle  10 NSaved=  10.
 NSaved=10 IEnMin=10 EnMin= -114.396465770326     IErMin=10 ErrMin= 1.63D-08
 ErrMax= 1.63D-08 EMaxC= 1.00D-01 BMatC= 7.86D-15 BMatP= 4.40D-13
 IDIUse=1 WtCom= 1.00D+00 WtEn= 0.00D+00
 Coeff-Com: -0.103D-05 0.666D-05 0.509D-04-0.142D-04-0.613D-03 0.409D-02
 Coeff-Com: -0.268D-01 0.140D+00-0.436D+00 0.132D+01
 Coeff:     -0.103D-05 0.666D-05 0.509D-04-0.142D-04-0.613D-03 0.409D-02
 Coeff:     -0.268D-01 0.140D+00-0.436D+00 0.132D+01
 Gap=     0.696 Goal=   None    Shift=    0.000
 RMSDP=8.34D-09 MaxDP=5.88D-08 DE=-1.45D-12 OVMax= 7.34D-08

 SCF Done:  E(RHF) =  -114.396465770     A.U. after   10 cycles
             Convg  =    0.8341D-08             -V/T =  2.0030
 KE= 1.140489885198D+02 PE=-3.497502011802D+02 EE= 8.115301799234D+01
 Leave Link  502 at Fri Jan  8 10:56:03 2021, MaxMem=13421772800 cpu:       0.6
 (Enter /opt/g09gh/gaussian/g09/l601.exe)
 Copying SCF densities to generalized density rwf, IOpCl= 0 IROHF=0.

 **********************************************************************

            Population analysis using the SCF density.

 **********************************************************************

 Orbital symmetries:
       Occupied  (A) (A) (A) (A) (A) (A) (A) (A) (A)
       Virtual   (A) (A) (A) (A) (A) (A) (A) (A) (A) (A) (A) (A)
                 (A) (A) (A) (A) (A)
 The electronic state is 1-A.
 Alpha  occ. eigenvalues --  -20.43848 -11.21681  -1.34413  -0.91988  -0.66898
 Alpha  occ. eigenvalues --   -0.61723  -0.58112  -0.47755  -0.43340
 Alpha virt. eigenvalues --    0.26267   0.31221   0.34259   0.35167   0.42898
 Alpha virt. eigenvalues --    0.95040   0.97515   0.97635   1.23527   1.29295
 Alpha virt. eigenvalues --    1.30779   1.34612   1.87208   1.88486   1.98119
 Alpha virt. eigenvalues --    2.13984   3.33978
          Condensed to atoms (all electrons):
              1          2          3          4          5          6
     1  O    8.277777   0.227928  -0.035699  -0.035689  -0.026304   0.268545
     2  C    0.227928   5.002101   0.353295   0.353280   0.369679  -0.051815
     3  H   -0.035699   0.353295   0.588683  -0.040386  -0.034910  -0.003357
     4  H   -0.035689   0.353280  -0.040386   0.588701  -0.034919  -0.003357
     5  H   -0.026304   0.369679  -0.034910  -0.034919   0.509345   0.004663
     6  H    0.268545  -0.051815  -0.003357  -0.003357   0.004663   0.411485
 Mulliken atomic charges:
              1
     1  O   -0.676559
     2  C   -0.254469
     3  H    0.172375
     4  H    0.172370
     5  H    0.212446
     6  H    0.373837
 Sum of Mulliken atomic charges =   0.00000
 Mulliken charges with hydrogens summed into heavy atoms:
              1
     1  O   -0.302722
     2  C    0.302722
 Sum of Mulliken charges with hydrogens summed into heavy atoms =   0.00000
 Electronic spatial extent (au):  <R**2>=             84.3868
 Charge=              0.0000 electrons
 Dipole moment (field-independent basis, Debye):
    X=              1.1086    Y=             -1.8145    Z=              0.0001  Tot=              2.1263
 Quadrupole moment (field-independent basis, Debye-Ang):
   XX=            -12.6195   YY=            -12.1643   ZZ=            -13.5172
   XY=              2.5418   XZ=              0.0000   YZ=              0.0000
 Traceless Quadrupole moment (field-independent basis, Debye-Ang):
   XX=              0.1475   YY=              0.6027   ZZ=             -0.7502
   XY=              2.5418   XZ=              0.0000   YZ=              0.0000
 Octapole moment (field-independent basis, Debye-Ang**2):
  XXX=             -4.5008  YYY=             -0.4836  ZZZ=              0.0000  XYY=             -1.9662
  XXY=             -2.2322  XXZ=              0.0003  XZZ=             -0.8067  YZZ=             -0.5591
  YYZ=              0.0000  XYZ=              0.0001
 Hexadecapole moment (field-independent basis, Debye-Ang**3):
 XXXX=            -58.8551 YYYY=            -18.5484 ZZZZ=            -18.2043 XXXY=              3.9879
 XXXZ=              0.0001 YYYX=              2.8269 YYYZ=             -0.0001 ZZZX=              0.0000
 ZZZY=              0.0001 XXYY=            -11.6427 XXZZ=            -13.2794 YYZZ=             -6.2548
 XXYZ=             -0.0002 YYXZ=             -0.0002 ZZXY=             -0.1366
 N-N= 4.015172889767D+01 E-N=-3.497502012738D+02  KE= 1.140489885198D+02
 No NMR shielding tensors so no spin-rotation constants.
 Leave Link  601 at Fri Jan  8 10:56:03 2021, MaxMem=13421772800 cpu:       0.8
 (Enter /opt/g09gh/gaussian/g09/l701.exe)
 Compute integral first derivatives.
 ... and contract with generalized density number  0.
 Leave Link  701 at Fri Jan  8 10:56:03 2021, MaxMem=13421772800 cpu:       0.8
 (Enter /opt/g09gh/gaussian/g09/l702.exe)
 L702 exits ... SP integral derivatives will be done elsewhere.
 Leave Link  702 at Fri Jan  8 10:56:03 2021, MaxMem=13421772800 cpu:       0.3
 (Enter /opt/g09gh/gaussian/g09/l703.exe)
 Compute integral first derivatives, UseDBF=F ICtDFT=           0.
 Integral derivatives from FoFDir, PRISM(SPDF).
 Calling FoFJK, ICntrl=      2127 FMM=F ISym2X=0 I1Cent= 0 IOpClX= 0 NMat=1 NMatS=1 NMatT=0.
 FoFCou: FMM=F IPFlag=           0 FMFlag=      100000 FMFlg1=         800
         NFxFlg=           0 DoJE=F BraDBF=F KetDBF=F FulRan=T
         Omega=  0.000000  0.000000  1.000000  0.000000  0.000000 ICntrl=    2127 IOpCl=  0
         NMat0=    1 NMatS0=    1 NMatT0=    0 NMatD0=    1 NMtDS0=    0 NMtDT0=    0
         I1Cent=           0 NGrid=           0.
 Symmetry not used in FoFCou.
 Leave Link  703 at Fri Jan  8 10:56:03 2021, MaxMem=13421772800 cpu:       0.6
 (Enter /opt/g09gh/gaussian/g09/l716.exe)
 Dipole        = 4.36154392D-01-7.13862732D-01 3.78925837D-05
 ***** Axes restored to original set *****
 -------------------------------------------------------------------
 Center     Atomic                   Forces (Hartrees/Bohr)
 Number     Number              X              Y              Z
 -------------------------------------------------------------------
      1        8           0.012385148   -0.001935556    0.000002158
      2        6          -0.025558218    0.001609382   -0.000025631
      3        1          -0.000112046    0.002475192   -0.010768647
      4        1          -0.000128204    0.002381582    0.010785104
      5        1           0.010881707   -0.010289683   -0.000020506
      6        1           0.002531614    0.005759083    0.000027521
 -------------------------------------------------------------------
 Cartesian Forces:  Max     0.025558218 RMS     0.008566497
 Leave Link  716 at Fri Jan  8 10:56:03 2021, MaxMem=13421772800 cpu:       0.3
 (Enter /opt/g09gh/gaussian/g09/l103.exe)

 GradGradGradGradGradGradGradGradGradGradGradGradGradGradGradGradGradGrad
 Berny optimization.
 Internal  Forces:  Max     0.015185363 RMS     0.007784285
 Search for a local minimum.
 Step number   1 out of a maximum of    2
 All quantities printed in internal units (Hartrees-Bohrs-Radians)
 RMS Force = .87010D-02 SwitMx=.10000D-02 MixMth= 1
 Mixed Optimization -- RFO/linear search
 Second derivative matrix not updated -- first step.
 The second derivative matrix:
                          R1        R2        R3        R4        R5
           R1           0.42359
           R2           0.00000   0.53294
           R3           0.00000   0.00000   0.33611
           R4           0.00000   0.00000   0.00000   0.33611
           R5           0.00000   0.00000   0.00000   0.00000   0.33695
           A1           0.00000   0.00000   0.00000   0.00000   0.00000
           A2           0.00000   0.00000   0.00000   0.00000   0.00000
           A3           0.00000   0.00000   0.00000   0.00000   0.00000
           A4           0.00000   0.00000   0.00000   0.00000   0.00000
           A5           0.00000   0.00000   0.00000   0.00000   0.00000
           A6           0.00000   0.00000   0.00000   0.00000   0.00000
           A7           0.00000   0.00000   0.00000   0.00000   0.00000
           D1           0.00000   0.00000   0.00000   0.00000   0.00000
           D2           0.00000   0.00000   0.00000   0.00000   0.00000
           D3           0.00000   0.00000   0.00000   0.00000   0.00000
                          A1        A2        A3        A4        A5
           A1           0.16000
           A2           0.00000   0.16000
           A3           0.00000   0.00000   0.16000
           A4           0.00000   0.00000   0.00000   0.16000
           A5           0.00000   0.00000   0.00000   0.00000   0.16000
           A6           0.00000   0.00000   0.00000   0.00000   0.00000
           A7           0.00000   0.00000   0.00000   0.00000   0.00000
           D1           0.00000   0.00000   0.00000   0.00000   0.00000
           D2           0.00000   0.00000   0.00000   0.00000   0.00000
           D3           0.00000   0.00000   0.00000   0.00000   0.00000
                          A6        A7        D1        D2        D3
           A6           0.16000
           A7           0.00000   0.16000
           D1           0.00000   0.00000   0.01418
           D2           0.00000   0.00000   0.00000   0.01418
           D3           0.00000   0.00000   0.00000   0.00000   0.01418
     Eigenvalues ---    0.16000   0.16000   0.16000   0.16000   0.33611
     Eigenvalues ---    0.33611   0.33695   0.42359   0.532941000.00000
     Eigenvalues --- 1000.000001000.000001000.000001000.000001000.00000
 RFO step:  Lambda=-3.36940196D-03 EMin= 1.60000000D-01
 Linear search not attempted -- first point.
 Iteration  1 RMS(Cart)=  0.05034423 RMS(Int)=  0.00130947
 Iteration  2 RMS(Cart)=  0.00125697 RMS(Int)=  0.00026932
 Iteration  3 RMS(Cart)=  0.00000080 RMS(Int)=  0.00026932
 Iteration  1 RMS(Cart)=  0.00011659 RMS(Int)=  0.00014567
 Iteration  2 RMS(Cart)=  0.00006626 RMS(Int)=  0.00016256
 Iteration  3 RMS(Cart)=  0.00003767 RMS(Int)=  0.00018447
 Iteration  4 RMS(Cart)=  0.00002142 RMS(Int)=  0.00019963
 Iteration  5 RMS(Cart)=  0.00001218 RMS(Int)=  0.00020892
 Iteration  6 RMS(Cart)=  0.00000693 RMS(Int)=  0.00021439
 Iteration  7 RMS(Cart)=  0.00000394 RMS(Int)=  0.00021755
 Iteration  8 RMS(Cart)=  0.00000224 RMS(Int)=  0.00021937
 Iteration  9 RMS(Cart)=  0.00000127 RMS(Int)=  0.00022041
 Iteration 10 RMS(Cart)=  0.00000072 RMS(Int)=  0.00022100
 Variable       Old X    -DE/DX   Delta X   Delta X   Delta X     New X
                                 (Linear)    (Quad)   (Total)
    R1        2.68469   0.01519   0.00000   0.03557   0.03557   2.72025
    R2        1.83380  -0.00431   0.00000  -0.00804  -0.00804   1.82576
    R3        2.07991  -0.00995   0.00000  -0.02932  -0.02932   2.05059
    R4        2.07991  -0.00995   0.00000  -0.02932  -0.02932   2.05059
    R5        2.07847  -0.01387   0.00000  -0.04074  -0.04074   2.03773
    A1        1.88767   0.00840   0.00000   0.05140   0.05140   1.93907
    A2        1.94013   0.00561   0.00000   0.03372   0.03353   1.97367
    A3        1.94028   0.00558   0.00000   0.03354   0.03335   1.97363
    A4        1.91240  -0.00975   0.00000  -0.05849  -0.05775   1.85465
    A5        1.92619  -0.00577   0.00000  -0.03744  -0.03831   1.88788
    A6        1.87114   0.00196   0.00000   0.01318   0.01389   1.88503
    A7        1.87107   0.00198   0.00000   0.01328   0.01398   1.88505
    D1        1.07659   0.00030   0.00000   0.00000   0.00000   1.07659
    D2       -1.07661  -0.00030   0.00000   0.00000   0.00000  -1.07661
    D3        3.14158   0.00000   0.00000   0.00000   0.00000   3.14158
         Item               Value     Threshold  Converged?
 Maximum Force            0.015185     0.002500     NO 
 RMS     Force            0.008701     0.001667     NO 
 Maximum Displacement     0.096361     0.010000     NO 
 RMS     Displacement     0.049868     0.006667     NO 
 Predicted change in Energy=-1.708649D-03
 GradGradGradGradGradGradGradGradGradGradGradGradGradGradGradGradGradGrad

 Leave Link  103 at Fri Jan  8 10:56:03 2021, MaxMem=13421772800 cpu:       0.0
 (Enter /opt/g09gh/gaussian/g09/l202.exe)
                          Input orientation:                          
 ---------------------------------------------------------------------
 Center     Atomic      Atomic             Coordinates (Angstroms)
 Number     Number       Type             X           Y           Z
 ---------------------------------------------------------------------
      1          8           0        0.752175    0.103305    0.002333
      2          6           0       -0.681522   -0.025734   -0.000516
      3          1           0       -1.064218   -0.539057    0.875579
      4          1           0       -1.061335   -0.531856   -0.882038
      5          1           0       -1.075099    0.978189    0.002966
      6          1           0        1.179400   -0.763248   -0.000523
 ---------------------------------------------------------------------
                    Distance matrix (angstroms):
                    1          2          3          4          5
     1  O    0.000000
     2  C    1.439495   0.000000
     3  H    2.115295   1.085126   0.000000
     4  H    2.115269   1.085126   1.757634   0.000000
     5  H    2.025920   1.078322   1.750317   1.750331   0.000000
     6  H    0.966149   2.001738   2.419016   2.418989   2.848751
                    6
     6  H    0.000000
 Stoichiometry    CH4O
 Framework group  C1[X(CH4O)]
 Deg. of freedom    12
 Full point group                 C1      NOp   1
 Largest Abelian subgroup         C1      NOp   1
 Largest concise Abelian subgroup C1      NOp   1
                         Standard orientation:                         
 ---------------------------------------------------------------------
 Center     Atomic      Atomic             Coordinates (Angstroms)
 Number     Number       Type             X           Y           Z
 ---------------------------------------------------------------------
      1          8           0       -0.756308    0.120221    0.000000
      2          6           0        0.676193   -0.021499    0.000000
      3          1           0        1.052948   -0.534564   -0.878817
      4          1           0        1.052907   -0.534594    0.878818
      5          1           0        1.078631    0.978911    0.000013
      6          1           0       -1.191178   -0.742526   -0.000019
 ---------------------------------------------------------------------
 Rotational constants (GHZ):    131.7445468     24.1325134     23.3275921
 Leave Link  202 at Fri Jan  8 10:56:03 2021, MaxMem=13421772800 cpu:       0.0
 (Enter /opt/g09gh/gaussian/g09/l301.exe)
 Standard basis: 3-21G (6D, 7F)
 Ernie: Thresh=  0.10000D-02 Tol=  0.10000D-05 Strict=F.
 There are    26 symmetry adapted basis functions of A   symmetry.
 Integral buffers will be    131072 words long.
 Raffenetti 1 integral format.
 Two-electron integral symmetry is turned on.
    26 basis functions,    42 primitive gaussians,    26 cartesian basis functions
     9 alpha electrons        9 beta electrons
       nuclear repulsion energy        40.0310799479 Hartrees.
 IExCor=    0 DFT=F Ex=HF Corr=None ExCW=0 ScaHFX=  1.000000
 ScaDFX=  1.000000  1.000000  1.000000  1.000000 ScalE2=  1.000000  1.000000
 IRadAn=      0 IRanWt=     -1 IRanGd=            0 ICorTp=0
 NAtoms=    6 NActive=    6 NUniq=    6 SFac= 7.50D-01 NAtFMM=   80 NAOKFM=F Big=F
 Leave Link  301 at Fri Jan  8 10:56:04 2021, MaxMem=13421772800 cpu:       0.4
 (Enter /opt/g09gh/gaussian/g09/l302.exe)
 NPDir=0 NMtPBC=     1 NCelOv=     1 NCel=       1 NClECP=     1 NCelD=      1
         NCelK=      1 NCelE2=     1 NClLst=     1 CellRange=     0.0.
 One-electron integrals computed using PRISM.
 NBasis=    26 RedAO= T  NBF=    26
 NBsUse=    26 1.00D-06 NBFU=    26
 Leave Link  302 at Fri Jan  8 10:56:04 2021, MaxMem=13421772800 cpu:       0.8
 (Enter /opt/g09gh/gaussian/g09/l303.exe)
 DipDrv:  MaxL=1.
 Leave Link  303 at Fri Jan  8 10:56:04 2021, MaxMem=13421772800 cpu:       0.3
 (Enter /opt/g09gh/gaussian/g09/l401.exe)
 Initial guess read from the read-write file.
 B after Tr=     0.000000    0.000000    0.000000
         Rot=    1.000000    0.000000    0.000000    0.000000 Ang=   0.00 deg.
 Guess basis will be translated and rotated to current coordinates.
 Initial guess orbital symmetries:
       Occupied  (A) (A) (A) (A) (A) (A) (A) (A) (A)
       Virtual   (A) (A) (A) (A) (A) (A) (A) (A) (A) (A) (A) (A)
                 (A) (A) (A) (A) (A)
 The electronic state of the initial guess is 1-A.
 Generating alternative initial guess.
 Harris functional with IExCor=  205 diagonalized for initial guess.
 ExpMin= 1.83D-01 ExpMax= 3.22D+02 ExpMxC= 3.22D+02 IAcc=1 IRadAn=         1 AccDes= 0.00D+00
 HarFok:  IExCor=  205 AccDes= 0.00D+00 IRadAn=         1 IDoV= 1
 ScaDFX=  1.000000  1.000000  1.000000  1.000000
 FoFCou: FMM=F IPFlag=           0 FMFlag=      100000 FMFlg1=           0
         NFxFlg=           0 DoJE=T BraDBF=F KetDBF=T FulRan=T
         Omega=  0.000000  0.000000  1.000000  0.000000  0.000000 ICntrl=     500 IOpCl=  0
         NMat0=    1 NMatS0=    1 NMatT0=    0 NMatD0=    1 NMtDS0=    0 NMtDT0=    0
         I1Cent=           4 NGrid=           0.
 Petite list used in FoFCou.
 Harris En= -114.573750630860    
 Leave Link  401 at Fri Jan  8 10:56:04 2021, MaxMem=13421772800 cpu:       1.4
 (Enter /opt/g09gh/gaussian/g09/l502.exe)
 Closed shell SCF:
 Requested convergence on RMS density matrix=1.00D-08 within 128 cycles.
 Requested convergence on MAX density matrix=1.00D-06.
 Requested convergence on             energy=1.00D-06.
 No special actions if energy rises.
 Using DIIS extrapolation, IDIIS=  1040.
 Integral symmetry usage will be decided dynamically.
 Keep R1 ints in memory in canonical form, NReq=882380.
 IEnd=       20590 IEndB=       20590 NGot= 13421772800 MDV= 13421707749
 LenX= 13421707749 LenY= 13421706632
 Symmetry not used in FoFDir.
 MinBra= 0 MaxBra= 1 Meth= 1.
 IRaf=       0 NMat=   1 IRICut=       1 DoRegI=T DoRafI=F ISym2E= 0 JSym2E=0.

 Cycle   1  Pass 1  IDiag  1:
 E= -114.396973816294    
 DIIS: error= 3.96D-03 at cycle   1 NSaved=   1.
 NSaved= 1 IEnMin= 1 EnMin= -114.396973816294     IErMin= 1 ErrMin= 3.96D-03
 ErrMax= 3.96D-03 EMaxC= 1.00D-01 BMatC= 6.85D-04 BMatP= 6.85D-04
 IDIUse=3 WtCom= 9.60D-01 WtEn= 3.96D-02
 Coeff-Com:  0.100D+01
 Coeff-En:   0.100D+01
 Coeff:      0.100D+01
 Gap=     0.704 Goal=   None    Shift=    0.000
 GapD=    0.704 DampG=2.000 DampE=1.000 DampFc=2.0000 IDamp=-1.
 RMSDP=1.04D-03 MaxDP=4.42D-03              OVMax= 9.14D-03

 Cycle   2  Pass 1  IDiag  1:
 E= -114.397840950198     Delta-E=       -0.000867133904 Rises=F Damp=F
 DIIS: error= 1.22D-03 at cycle   2 NSaved=   2.
 NSaved= 2 IEnMin= 2 EnMin= -114.397840950198     IErMin= 2 ErrMin= 1.22D-03
 ErrMax= 1.22D-03 EMaxC= 1.00D-01 BMatC= 4.70D-05 BMatP= 6.85D-04
 IDIUse=3 WtCom= 9.88D-01 WtEn= 1.22D-02
 Coeff-Com: -0.133D+00 0.113D+01
 Coeff-En:   0.000D+00 0.100D+01
 Coeff:     -0.131D+00 0.113D+01
 Gap=     0.702 Goal=   None    Shift=    0.000
 RMSDP=3.38D-04 MaxDP=1.57D-03 DE=-8.67D-04 OVMax= 3.97D-03

 Cycle   3  Pass 1  IDiag  1:
 E= -114.397923926264     Delta-E=       -0.000082976066 Rises=F Damp=F
 DIIS: error= 4.06D-04 at cycle   3 NSaved=   3.
 NSaved= 3 IEnMin= 3 EnMin= -114.397923926264     IErMin= 3 ErrMin= 4.06D-04
 ErrMax= 4.06D-04 EMaxC= 1.00D-01 BMatC= 6.12D-06 BMatP= 4.70D-05
 IDIUse=3 WtCom= 9.96D-01 WtEn= 4.06D-03
 Coeff-Com: -0.711D-01 0.191D+00 0.880D+00
 Coeff-En:   0.000D+00 0.000D+00 0.100D+01
 Coeff:     -0.708D-01 0.190D+00 0.881D+00
 Gap=     0.702 Goal=   None    Shift=    0.000
 RMSDP=1.11D-04 MaxDP=5.74D-04 DE=-8.30D-05 OVMax= 1.23D-03

 Cycle   4  Pass 1  IDiag  1:
 E= -114.397932772794     Delta-E=       -0.000008846530 Rises=F Damp=F
 DIIS: error= 1.71D-04 at cycle   4 NSaved=   4.
 NSaved= 4 IEnMin= 4 EnMin= -114.397932772794     IErMin= 4 ErrMin= 1.71D-04
 ErrMax= 1.71D-04 EMaxC= 1.00D-01 BMatC= 4.71D-07 BMatP= 6.12D-06
 IDIUse=3 WtCom= 9.98D-01 WtEn= 1.71D-03
 Coeff-Com:  0.738D-02-0.887D-01 0.302D-01 0.105D+01
 Coeff-En:   0.000D+00 0.000D+00 0.000D+00 0.100D+01
 Coeff:      0.737D-02-0.886D-01 0.301D-01 0.105D+01
 Gap=     0.702 Goal=   None    Shift=    0.000
 RMSDP=4.61D-05 MaxDP=2.13D-04 DE=-8.85D-06 OVMax= 4.81D-04

 Cycle   5  Pass 1  IDiag  1:
 E= -114.397933725831     Delta-E=       -0.000000953037 Rises=F Damp=F
 DIIS: error= 3.32D-05 at cycle   5 NSaved=   5.
 NSaved= 5 IEnMin= 5 EnMin= -114.397933725831     IErMin= 5 ErrMin= 3.32D-05
 ErrMax= 3.32D-05 EMaxC= 1.00D-01 BMatC= 3.74D-08 BMatP= 4.71D-07
 IDIUse=1 WtCom= 1.00D+00 WtEn= 0.00D+00
 Coeff-Com:  0.578D-02-0.284D-01-0.535D-01 0.158D+00 0.918D+00
 Coeff:      0.578D-02-0.284D-01-0.535D-01 0.158D+00 0.918D+00
 Gap=     0.702 Goal=   None    Shift=    0.000
 RMSDP=1.23D-05 MaxDP=5.06D-05 DE=-9.53D-07 OVMax= 1.29D-04

 Cycle   6  Pass 1  IDiag  1:
 E= -114.397933786128     Delta-E=       -0.000000060297 Rises=F Damp=F
 DIIS: error= 9.97D-06 at cycle   6 NSaved=   6.
 NSaved= 6 IEnMin= 6 EnMin= -114.397933786128     IErMin= 6 ErrMin= 9.97D-06
 ErrMax= 9.97D-06 EMaxC= 1.00D-01 BMatC= 2.02D-09 BMatP= 3.74D-08
 IDIUse=1 WtCom= 1.00D+00 WtEn= 0.00D+00
 Coeff-Com: -0.104D-02 0.937D-02 0.174D-02-0.102D+00-0.221D-01 0.111D+01
 Coeff:     -0.104D-02 0.937D-02 0.174D-02-0.102D+00-0.221D-01 0.111D+01
 Gap=     0.702 Goal=   None    Shift=    0.000
 RMSDP=3.43D-06 MaxDP=1.76D-05 DE=-6.03D-08 OVMax= 3.94D-05

 Cycle   7  Pass 1  IDiag  1:
 E= -114.397933789834     Delta-E=       -0.000000003706 Rises=F Damp=F
 DIIS: error= 1.88D-06 at cycle   7 NSaved=   7.
 NSaved= 7 IEnMin= 7 EnMin= -114.397933789834     IErMin= 7 ErrMin= 1.88D-06
 ErrMax= 1.88D-06 EMaxC= 1.00D-01 BMatC= 5.33D-11 BMatP= 2.02D-09
 IDIUse=1 WtCom= 1.00D+00 WtEn= 0.00D+00
 Coeff-Com:  0.255D-03-0.293D-02 0.115D-02 0.327D-01-0.427D-02-0.437D+00
 Coeff-Com:  0.141D+01
 Coeff:      0.255D-03-0.293D-02 0.115D-02 0.327D-01-0.427D-02-0.437D+00
 Coeff:      0.141D+01
 Gap=     0.702 Goal=   None    Shift=    0.000
 RMSDP=6.50D-07 MaxDP=3.88D-06 DE=-3.71D-09 OVMax= 6.83D-06

 Cycle   8  Pass 1  IDiag  1:
 E= -114.397933789971     Delta-E=       -0.000000000137 Rises=F Damp=F
 DIIS: error= 2.38D-07 at cycle   8 NSaved=   8.
 NSaved= 8 IEnMin= 8 EnMin= -114.397933789971     IErMin= 8 ErrMin= 2.38D-07
 ErrMax= 2.38D-07 EMaxC= 1.00D-01 BMatC= 1.65D-12 BMatP= 5.33D-11
 IDIUse=1 WtCom= 1.00D+00 WtEn= 0.00D+00
 Coeff-Com: -0.675D-04 0.866D-03-0.481D-03-0.985D-02 0.248D-02 0.139D+00
 Coeff-Com: -0.572D+00 0.144D+01
 Coeff:     -0.675D-04 0.866D-03-0.481D-03-0.985D-02 0.248D-02 0.139D+00
 Coeff:     -0.572D+00 0.144D+01
 Gap=     0.702 Goal=   None    Shift=    0.000
 RMSDP=1.44D-07 MaxDP=9.40D-07 DE=-1.37D-10 OVMax= 1.23D-06

 Cycle   9  Pass 1  IDiag  1:
 E= -114.397933789976     Delta-E=       -0.000000000005 Rises=F Damp=F
 DIIS: error= 3.81D-08 at cycle   9 NSaved=   9.
 NSaved= 9 IEnMin= 9 EnMin= -114.397933789976     IErMin= 9 ErrMin= 3.81D-08
 ErrMax= 3.81D-08 EMaxC= 1.00D-01 BMatC= 3.33D-14 BMatP= 1.65D-12
 IDIUse=1 WtCom= 1.00D+00 WtEn= 0.00D+00
 Coeff-Com:  0.156D-04-0.207D-03 0.134D-03 0.230D-02-0.556D-03-0.334D-01
 Coeff-Com:  0.145D+00-0.456D+00 0.134D+01
 Coeff:      0.156D-04-0.207D-03 0.134D-03 0.230D-02-0.556D-03-0.334D-01
 Coeff:      0.145D+00-0.456D+00 0.134D+01
 Gap=     0.702 Goal=   None    Shift=    0.000
 RMSDP=2.04D-08 MaxDP=8.62D-08 DE=-5.29D-12 OVMax= 1.64D-07

 Cycle  10  Pass 1  IDiag  1:
 E= -114.397933789976     Delta-E=        0.000000000000 Rises=F Damp=F
 DIIS: error= 6.29D-09 at cycle  10 NSaved=  10.
 NSaved=10 IEnMin= 9 EnMin= -114.397933789976     IErMin=10 ErrMin= 6.29D-09
 ErrMax= 6.29D-09 EMaxC= 1.00D-01 BMatC= 6.91D-16 BMatP= 3.33D-14
 IDIUse=1 WtCom= 1.00D+00 WtEn= 0.00D+00
 Coeff-Com: -0.274D-05 0.378D-04-0.260D-04-0.418D-03 0.999D-04 0.610D-02
 Coeff-Com: -0.275D-01 0.962D-01-0.385D+00 0.131D+01
 Coeff:     -0.274D-05 0.378D-04-0.260D-04-0.418D-03 0.999D-04 0.610D-02
 Coeff:     -0.275D-01 0.962D-01-0.385D+00 0.131D+01
 Gap=     0.702 Goal=   None    Shift=    0.000
 RMSDP=2.66D-09 MaxDP=1.19D-08 DE= 8.53D-14 OVMax= 2.75D-08

 SCF Done:  E(RHF) =  -114.397933790     A.U. after   10 cycles
             Convg  =    0.2658D-08             -V/T =  2.0028
 KE= 1.140824016150D+02 PE=-3.495688791427D+02 EE= 8.105746378985D+01
 Leave Link  502 at Fri Jan  8 10:56:04 2021, MaxMem=13421772800 cpu:       0.5
 (Enter /opt/g09gh/gaussian/g09/l701.exe)
 Compute integral first derivatives.
 ... and contract with generalized density number  0.
 Leave Link  701 at Fri Jan  8 10:56:04 2021, MaxMem=13421772800 cpu:       0.7
 (Enter /opt/g09gh/gaussian/g09/l702.exe)
 L702 exits ... SP integral derivatives will be done elsewhere.
 Leave Link  702 at Fri Jan  8 10:56:04 2021, MaxMem=13421772800 cpu:       0.3
 (Enter /opt/g09gh/gaussian/g09/l703.exe)
 Compute integral first derivatives, UseDBF=F ICtDFT=           0.
 Integral derivatives from FoFDir, PRISM(SPDF).
 Calling FoFJK, ICntrl=      2127 FMM=F ISym2X=0 I1Cent= 0 IOpClX= 0 NMat=1 NMatS=1 NMatT=0.
 FoFCou: FMM=F IPFlag=           0 FMFlag=      100000 FMFlg1=         800
         NFxFlg=           0 DoJE=F BraDBF=F KetDBF=F FulRan=T
         Omega=  0.000000  0.000000  1.000000  0.000000  0.000000 ICntrl=    2127 IOpCl=  0
         NMat0=    1 NMatS0=    1 NMatT0=    0 NMatD0=    1 NMtDS0=    0 NMtDT0=    0
         I1Cent=           0 NGrid=           0.
 Symmetry not used in FoFCou.
 Leave Link  703 at Fri Jan  8 10:56:04 2021, MaxMem=13421772800 cpu:       0.6
 (Enter /opt/g09gh/gaussian/g09/l716.exe)
 Dipole        = 4.33041857D-01-7.04556752D-01-1.50545611D-05
 ***** Axes restored to original set *****
 -------------------------------------------------------------------
 Center     Atomic                   Forces (Hartrees/Bohr)
 Number     Number              X              Y              Z
 -------------------------------------------------------------------
      1        8          -0.000032110   -0.000301621    0.000001262
      2        6          -0.003193265    0.000668317   -0.000004627
      3        1           0.002056071   -0.000598625    0.000866298
      4        1           0.002054421   -0.000589651   -0.000863497
      5        1           0.000582362    0.000879103    0.000003129
      6        1          -0.001467480   -0.000057523   -0.000002565
 -------------------------------------------------------------------
 Cartesian Forces:  Max     0.003193265 RMS     0.001170342
 Leave Link  716 at Fri Jan  8 10:56:04 2021, MaxMem=13421772800 cpu:       0.3
 (Enter /opt/g09gh/gaussian/g09/l103.exe)

 GradGradGradGradGradGradGradGradGradGradGradGradGradGradGradGradGradGrad
 Berny optimization.
 Using GEDIIS/GDIIS optimizer.
 Internal  Forces:  Max     0.002640725 RMS     0.001514405
 Search for a local minimum.
 Step number   2 out of a maximum of    2
 All quantities printed in internal units (Hartrees-Bohrs-Radians)
 RMS Force = .16413D-02 SwitMx=.10000D-02 MixMth= 1
 Mixed Optimization -- RFO/linear search
 Update second derivatives using D2CorX and points    1    2
 DE= -1.47D-03 DEPred=-1.71D-03 R= 8.59D-01
 SS=  1.41D+00  RLast= 1.22D-01 DXNew= 5.0454D-01 3.6469D-01
 Trust test= 8.59D-01 RLast= 1.22D-01 DXMaxT set to 3.65D-01
 The second derivative matrix:
                          R1        R2        R3        R4        R5
           R1           0.42878
           R2           0.00310   0.53104
           R3          -0.00022  -0.00273   0.33432
           R4          -0.00022  -0.00273  -0.00179   0.33432
           R5          -0.00140  -0.00356  -0.00183  -0.00183   0.33534
           A1           0.01043   0.00000  -0.00476  -0.00476  -0.00734
           A2           0.01197  -0.00115  -0.00626  -0.00626  -0.00926
           A3           0.01193  -0.00115  -0.00624  -0.00625  -0.00923
           A4          -0.00122  -0.00233  -0.00106  -0.00106  -0.00084
           A5          -0.00685  -0.00021   0.00299   0.00299   0.00467
           A6          -0.00906   0.00264   0.00597   0.00597   0.00830
           A7          -0.00906   0.00265   0.00597   0.00597   0.00830
           D1           0.00425  -0.00095  -0.00260  -0.00260  -0.00368
           D2          -0.00426   0.00095   0.00260   0.00260   0.00369
           D3           0.00001   0.00000  -0.00001  -0.00001  -0.00001
                          A1        A2        A3        A4        A5
           A1           0.17062
           A2           0.01028   0.16926
           A3           0.01024   0.00922   0.16918
           A4          -0.00512  -0.00637  -0.00635   0.15960
           A5          -0.00732  -0.00721  -0.00718   0.00328   0.16502
           A6          -0.00484  -0.00308  -0.00307   0.00558   0.00362
           A7          -0.00483  -0.00307  -0.00306   0.00558   0.00361
           D1           0.00276   0.00210   0.00209  -0.00250  -0.00200
           D2          -0.00276  -0.00210  -0.00209   0.00250   0.00201
           D3           0.00001   0.00000   0.00000  -0.00001   0.00000
                          A6        A7        D1        D2        D3
           A6           0.15853
           A7          -0.00148   0.15851
           D1           0.00006   0.00006   0.01443
           D2          -0.00006  -0.00006  -0.00025   0.01443
           D3           0.00000   0.00000   0.00000   0.00000   0.01418
 Use linear search instead of GDIIS.
     Eigenvalues ---    0.14932   0.16000   0.16000   0.19360   0.33444
     Eigenvalues ---    0.33611   0.33750   0.43112   0.531311000.00000
     Eigenvalues --- 1000.000001000.000001000.000001000.000001000.00000
 RFO step:  Lambda=-1.06236561D-04 EMin= 1.49324216D-01
 Quartic linear search produced a step of -0.11292.
 Iteration  1 RMS(Cart)=  0.01061975 RMS(Int)=  0.00008610
 Iteration  2 RMS(Cart)=  0.00006324 RMS(Int)=  0.00004213
 Iteration  3 RMS(Cart)=  0.00000000 RMS(Int)=  0.00004213
 Iteration  1 RMS(Cart)=  0.00000885 RMS(Int)=  0.00001128
 Iteration  2 RMS(Cart)=  0.00000511 RMS(Int)=  0.00001258
 Iteration  3 RMS(Cart)=  0.00000295 RMS(Int)=  0.00001430
 Iteration  4 RMS(Cart)=  0.00000171 RMS(Int)=  0.00001552
 Iteration  5 RMS(Cart)=  0.00000098 RMS(Int)=  0.00001627
 Variable       Old X    -DE/DX   Delta X   Delta X   Delta X     New X
                                 (Linear)    (Quad)   (Total)
    R1        2.72025  -0.00153  -0.00402   0.00197  -0.00205   2.71820
    R2        1.82576  -0.00060   0.00091  -0.00216  -0.00125   1.82450
    R3        2.05059   0.00026   0.00331  -0.00358  -0.00027   2.05032
    R4        2.05059   0.00026   0.00331  -0.00358  -0.00027   2.05032
    R5        2.03773   0.00061   0.00460  -0.00432   0.00028   2.03801
    A1        1.93907  -0.00245  -0.00580  -0.00608  -0.01188   1.92719
    A2        1.97367  -0.00264  -0.00379  -0.00849  -0.01231   1.96136
    A3        1.97363  -0.00263  -0.00377  -0.00847  -0.01227   1.96136
    A4        1.85465   0.00005   0.00652  -0.01046  -0.00404   1.85061
    A5        1.88788   0.00211   0.00433   0.00998   0.01432   1.90220
    A6        1.88503   0.00173  -0.00157   0.00938   0.00771   1.89274
    A7        1.88505   0.00173  -0.00158   0.00937   0.00769   1.89274
    D1        1.07659  -0.00067   0.00000   0.00000   0.00000   1.07659
    D2       -1.07661   0.00067   0.00000   0.00000   0.00000  -1.07660
    D3        3.14158   0.00000   0.00000   0.00000   0.00000   3.14158
         Item               Value     Threshold  Converged?
 Maximum Force            0.002830     0.002500     NO 
 RMS     Force            0.001641     0.001667     YES
 Maximum Displacement     0.025924     0.010000     NO 
 RMS     Displacement     0.010641     0.006667     NO 
 Predicted change in Energy=-7.710924D-05
 Optimization stopped.
    -- Number of steps exceeded,  NStep=   2
    -- Flag reset to prevent archiving.
                           ----------------------------
                           ! Non-Optimized Parameters !
                           ! (Angstroms and Degrees)  !
 --------------------------                            --------------------------
 ! Name  Definition              Value          Derivative Info.                !
 --------------------------------------------------------------------------------
 ! R1    R(1,2)                  1.4384         -DE/DX =   -0.0015              !
 ! R2    R(1,6)                  0.9655         -DE/DX =   -0.0006              !
 ! R3    R(2,3)                  1.085          -DE/DX =    0.0003              !
 ! R4    R(2,4)                  1.085          -DE/DX =    0.0003              !
 ! R5    R(2,5)                  1.0785         -DE/DX =    0.0006              !
 ! A1    A(2,1,6)              110.4198         -DE/DX =   -0.0024              !
 ! A2    A(1,2,3)              112.3775         -DE/DX =   -0.0026              !
 ! A3    A(1,2,4)              112.3774         -DE/DX =   -0.0026              !
 ! A4    A(1,2,5)              106.0319         -DE/DX =    0.0001              !
 ! A5    A(3,2,4)              108.988          -DE/DX =    0.0021              !
 ! A6    A(3,2,5)              108.4458         -DE/DX =    0.0017              !
 ! A7    A(4,2,5)              108.4461         -DE/DX =    0.0017              !
 ! D1    D(6,1,2,3)             61.6841         -DE/DX =   -0.0007              !
 ! D2    D(6,1,2,4)            -61.6848         -DE/DX =    0.0007              !
 ! D3    D(6,1,2,5)            179.9995         -DE/DX =    0.0                 !
 --------------------------------------------------------------------------------
 GradGradGradGradGradGradGradGradGradGradGradGradGradGradGradGradGradGrad

 Largest change from initial coordinates is atom    5       0.045 Angstoms.
 Leave Link  103 at Fri Jan  8 10:56:04 2021, MaxMem=13421772800 cpu:       0.0
 (Enter /opt/g09gh/gaussian/g09/l202.exe)
                          Input orientation:                          
 ---------------------------------------------------------------------
 Center     Atomic      Atomic             Coordinates (Angstroms)
 Number     Number       Type             X           Y           Z
 ---------------------------------------------------------------------
      1          8           0        0.752175    0.103305    0.002333
      2          6           0       -0.681522   -0.025734   -0.000516
      3          1           0       -1.064218   -0.539057    0.875579
      4          1           0       -1.061335   -0.531856   -0.882038
      5          1           0       -1.075099    0.978189    0.002966
      6          1           0        1.179400   -0.763248   -0.000523
 ---------------------------------------------------------------------
                    Distance matrix (angstroms):
                    1          2          3          4          5
     1  O    0.000000
     2  C    1.439495   0.000000
     3  H    2.115295   1.085126   0.000000
     4  H    2.115269   1.085126   1.757634   0.000000
     5  H    2.025920   1.078322   1.750317   1.750331   0.000000
     6  H    0.966149   2.001738   2.419016   2.418989   2.848751
                    6
     6  H    0.000000
 Stoichiometry    CH4O
 Framework group  C1[X(CH4O)]
 Deg. of freedom    12
 Full point group                 C1      NOp   1
 Largest Abelian subgroup         C1      NOp   1
 Largest concise Abelian subgroup C1      NOp   1
                         Standard orientation:                         
 ---------------------------------------------------------------------
 Center     Atomic      Atomic             Coordinates (Angstroms)
 Number     Number       Type             X           Y           Z
 ---------------------------------------------------------------------
      1          8           0       -0.756308    0.120221    0.000000
      2          6           0        0.676193   -0.021499    0.000000
      3          1           0        1.052948   -0.534564   -0.878817
      4          1           0        1.052907   -0.534594    0.878818
      5          1           0        1.078631    0.978911    0.000013
      6          1           0       -1.191178   -0.742526   -0.000019
 ---------------------------------------------------------------------
 Rotational constants (GHZ):    131.7445468     24.1325134     23.3275921
 Leave Link  202 at Fri Jan  8 10:56:04 2021, MaxMem=13421772800 cpu:       0.0
 (Enter /opt/g09gh/gaussian/g09/l601.exe)
 Copying SCF densities to generalized density rwf, IOpCl= 0 IROHF=0.

 **********************************************************************

            Population analysis using the SCF density.

 **********************************************************************

 Orbital symmetries:
       Occupied  (A) (A) (A) (A) (A) (A) (A) (A) (A)
       Virtual   (A) (A) (A) (A) (A) (A) (A) (A) (A) (A) (A) (A)
                 (A) (A) (A) (A) (A)
 The electronic state is 1-A.
 Alpha  occ. eigenvalues --  -20.43615 -11.21158  -1.33462  -0.92790  -0.67014
 Alpha  occ. eigenvalues --   -0.61285  -0.57747  -0.48036  -0.43472
 Alpha virt. eigenvalues --    0.26717   0.31432   0.34488   0.35644   0.42632
 Alpha virt. eigenvalues --    0.94038   0.96182   0.96833   1.24959   1.31812
 Alpha virt. eigenvalues --    1.31911   1.35556   1.88737   1.89145   1.96941
 Alpha virt. eigenvalues --    2.15008   3.32103
          Condensed to atoms (all electrons):
              1          2          3          4          5          6
     1  O    8.267189   0.237146  -0.032274  -0.032277  -0.028853   0.266160
     2  C    0.237146   5.003611   0.350961   0.350965   0.373547  -0.046996
     3  H   -0.032274   0.350961   0.587852  -0.045214  -0.034612  -0.002718
     4  H   -0.032277   0.350965  -0.045214   0.587847  -0.034610  -0.002718
     5  H   -0.028853   0.373547  -0.034612  -0.034610   0.500072   0.004510
     6  H    0.266160  -0.046996  -0.002718  -0.002718   0.004510   0.407392
 Mulliken atomic charges:
              1
     1  O   -0.677091
     2  C   -0.269236
     3  H    0.176005
     4  H    0.176006
     5  H    0.219946
     6  H    0.374369
 Sum of Mulliken atomic charges =   0.00000
 Mulliken charges with hydrogens summed into heavy atoms:
              1
     1  O   -0.302722
     2  C    0.302722
 Sum of Mulliken charges with hydrogens summed into heavy atoms =   0.00000
 Electronic spatial extent (au):  <R**2>=             84.8656
 Charge=              0.0000 electrons
 Dipole moment (field-independent basis, Debye):
    X=              1.1007    Y=             -1.7908    Z=              0.0000  Tot=              2.1020
 Quadrupole moment (field-independent basis, Debye-Ang):
   XX=            -12.3248   YY=            -12.0975   ZZ=            -13.5301
   XY=              2.4931   XZ=              0.0000   YZ=              0.0000
 Traceless Quadrupole moment (field-independent basis, Debye-Ang):
   XX=              0.3260   YY=              0.5533   ZZ=             -0.8793
   XY=              2.4931   XZ=              0.0000   YZ=              0.0000
 Octapole moment (field-independent basis, Debye-Ang**2):
  XXX=             -4.7180  YYY=             -0.4314  ZZZ=              0.0000  XYY=             -1.9191
  XXY=             -2.5104  XXZ=             -0.0001  XZZ=             -0.7845  YZZ=             -0.5220
  YYZ=              0.0000  XYZ=              0.0000
 Hexadecapole moment (field-independent basis, Debye-Ang**3):
 XXXX=            -59.2122 YYYY=            -18.0535 ZZZZ=            -17.7849 XXXY=              3.9624
 XXXZ=              0.0000 YYYX=              2.8079 YYYZ=              0.0000 ZZZX=              0.0000
 ZZZY=              0.0000 XXYY=            -11.7046 XXZZ=            -13.3209 YYZZ=             -6.1220
 XXYZ=              0.0001 YYXZ=              0.0001 ZZXY=             -0.1098
 N-N= 4.003107994786D+01 E-N=-3.495688791355D+02  KE= 1.140824016150D+02
 No NMR shielding tensors so no spin-rotation constants.
 Leave Link  601 at Fri Jan  8 10:56:04 2021, MaxMem=13421772800 cpu:       0.7
 (Enter /opt/g09gh/gaussian/g09/l9999.exe)


 Happiness is a conscious choice, not an automatic response.
 -- Mildred Barthel
 Error termination request processed by link 9999.
 Error termination via Lnk1e in /opt/g09gh/gaussian/g09/l9999.exe at Fri Jan  8 10:56:05 2021.
 Job cpu time:  0 days  0 hours  0 minutes 14.0 seconds.
 File lengths (MBytes):  RWF=      5 Int=      0 D2E=      0 Chk=      1 Scr=      1
