
    -----------------------------------------------------------------------
          Psi4: An Open-Source Ab Initio Electronic Structure Package
                               Psi4 1.3.2 release

                         Git: Rev {HEAD} ecbda83 


    R. M. Parrish, L. A. Burns, D. G. A. Smith, A. C. Simmonett,
    A. E. DePrince III, E. G. Hohenstein, U. Bozkaya, A. Yu. Sokolov,
    R. Di Remigio, R. M. Richard, J. F. Gonthier, A. M. James,
    H. R. McAlexander, A. Kumar, M. Saitow, X. Wang, B. P. Pritchard,
    P. Verma, H. F. Schaefer III, K. Patkowski, R. A. King, E. F. Valeev,
    F. A. Evangelista, J. M. Turney, T. D. Crawford, and C. D. Sherrill,
    J. Chem. Theory Comput. 13(7) pp 3185--3197 (2017).
    (doi: 10.1021/acs.jctc.7b00174)


                         Additional Contributions by
    P. Kraus, H. Kruse, M. H. Lechner, M. C. Schieber, R. A. Shaw,
    A. Alenaizan, R. Galvelis, Z. L. Glick, S. Lehtola, and J. P. Misiewicz

    -----------------------------------------------------------------------


    Psi4 started on: Monday, 05 October 2020 03:31PM

    Process ID: 57714
    Host:       node35.bme.utexas.edu
    PSIDATADIR: /home/bdw2292/miniconda3/envs/p4env/share/psi4
    Memory:     500.0 MiB
    Threads:    1
    
  ==> Input File <==

--------------------------------------------------------------------------
molecule { 
0 1
 O    0.672418    0.010387    0.006579
 C   -0.742784    0.038712    0.013766
 H   -1.107597   -0.722189    0.717133
 H   -1.101345   -0.118877   -1.012323
 H   -1.065647    1.031700    0.358955
 H    0.993256    0.600467    0.696790
}
set optking { 
  frozen_dihedral = ("
  ")
}
set {
  geom_maxiter 3
  g_convergence GAU_LOOSE
}
memory 100GB
set_num_threads(8)
psi4_io.set_default_path("/scratch/bdw2292/Psi4-methanol")
for _ in range(1):
  try:
    optimize('wb97x-d/6-31G*')
    break
  except OptimizationConvergenceError:
    try:
      set opt_coordinates cartesian
      optimize('wb97x-d/6-31G*')
      break
    except OptimizationConvergenceError:
      pass
clean()
--------------------------------------------------------------------------

  Memory set to  93.132 GiB by Python driver.
  Threads set to 8 by Python driver.
gradient() will perform analytic gradient computation.

*** tstart() called on node35.bme.utexas.edu
*** at Mon Oct  5 15:31:26 2020

   => Loading Basis Set <=

    Name: 6-31G*
    Role: ORBITAL
    Keyword: BASIS
    atoms 1   entry O          line   145 file /home/bdw2292/miniconda3/envs/p4env/share/psi4/basis/6-31gs.gbs 
    atoms 2   entry C          line   111 file /home/bdw2292/miniconda3/envs/p4env/share/psi4/basis/6-31gs.gbs 
    atoms 3-6 entry H          line    44 file /home/bdw2292/miniconda3/envs/p4env/share/psi4/basis/6-31gs.gbs 


         ---------------------------------------------------------
                                   SCF
               by Justin Turney, Rob Parrish, Andy Simmonett
                          and Daniel G. A. Smith
                              RKS Reference
                        8 Threads,  95367 MiB Core
         ---------------------------------------------------------

  ==> Geometry <==

    Molecular point group: c1
    Full point group: C1

    Geometry (in Angstrom), charge = 0, multiplicity = 1:

       Center              X                  Y                   Z               Mass       
    ------------   -----------------  -----------------  -----------------  -----------------
         O            0.686697677108    -0.034200678569    -0.025798504454    15.994914619570
         C           -0.728504322892    -0.005875678569    -0.018611504454    12.000000000000
         H           -1.093317322892    -0.766776678569     0.684755495546     1.007825032230
         H           -1.087065322892    -0.163464678569    -1.044700504454     1.007825032230
         H           -1.051367322892     0.987112321431     0.326577495546     1.007825032230
         H            1.007535677108     0.555879321431     0.664412495546     1.007825032230

  Running in c1 symmetry.

  Rotational constants: A =      4.16589  B =      0.83734  C =      0.80844 [cm^-1]
  Rotational constants: A = 124890.13744  B =  25102.75947  C =  24236.34680 [MHz]
  Nuclear repulsion =   40.366108367468996

  Charge       = 0
  Multiplicity = 1
  Electrons    = 18
  Nalpha       = 9
  Nbeta        = 9

  ==> Algorithm <==

  SCF Algorithm Type is DF.
  DIIS enabled.
  MOM disabled.
  Fractional occupation disabled.
  Guess Type is SAD.
  Energy threshold   = 1.00e-08
  Density threshold  = 1.00e-08
  Integral threshold = 0.00e+00

  ==> Primary Basis <==

  Basis Set: 6-31G*
    Blend: 6-31G*
    Number of shells: 20
    Number of basis function: 38
    Number of Cartesian functions: 38
    Spherical Harmonics?: false
    Max angular momentum: 2

  ==> DFT Potential <==

   => Composite Functional: WB97X-D <= 

    wB97X-D Hyb-GGA Exchange-Correlation Functional

    J.-D. Chai and M. Head-Gordon, Phys. Chem. Chem. Phys. 10, 6615 (2008)

    Deriv               =              1
    GGA                 =           TRUE
    Meta                =          FALSE

    Exchange Hybrid     =           TRUE
    MP2 Hybrid          =          FALSE

   => Exchange-Correlation Functionals <=

    1.0000   wB97D range-separated functional

   => Exact (HF) Exchange <=

    0.7780            HF,LR [omega = 0.2000]
    0.2220               HF 

   => Molecular Quadrature <=

    Radial Scheme          =       TREUTLER
    Pruning Scheme         =           FLAT
    Nuclear Scheme         =       TREUTLER

    BS radius alpha        =              1
    Pruning alpha          =              1
    Radial Points          =             75
    Spherical Points       =            302
    Total Points           =         131904
    Total Blocks           =           1054
    Max Points             =            256
    Max Functions          =             38

   => WB97X-D: Empirical Dispersion <=

    Chai and Head-Gordon Dispersion Correction
    Chai, J.-D.; Head-Gordon, M. (2010), J. Chem. Phys., 132: 6615-6620

        s6 =       1.000000

   => Loading Basis Set <=

    Name: (6-31G* AUX)
    Role: JKFIT
    Keyword: DF_BASIS_SCF
    atoms 1   entry O          line   221 file /home/bdw2292/miniconda3/envs/p4env/share/psi4/basis/cc-pvdz-jkfit.gbs 
    atoms 2   entry C          line   121 file /home/bdw2292/miniconda3/envs/p4env/share/psi4/basis/cc-pvdz-jkfit.gbs 
    atoms 3-6 entry H          line    51 file /home/bdw2292/miniconda3/envs/p4env/share/psi4/basis/cc-pvdz-jkfit.gbs 

  ==> Pre-Iterations <==

   -------------------------------------------------------
    Irrep   Nso     Nmo     Nalpha   Nbeta   Ndocc  Nsocc
   -------------------------------------------------------
     A         38      38       0       0       0       0
   -------------------------------------------------------
    Total      38      38       9       9       9       0
   -------------------------------------------------------

  ==> Integral Setup <==

  ==> DiskDFJK: Density-Fitted J/K Matrices <==

    J tasked:                  Yes
    K tasked:                  Yes
    wK tasked:                 Yes
    Omega:               2.000E-01
    OpenMP threads:              8
    Integrals threads:           8
    Memory [MiB]:            71385
    Algorithm:                Core
    Integral Cache:           NONE
    Schwarz Cutoff:          1E-12
    Fitting Condition:       1E-10

   => Auxiliary Basis Set <=

  Basis Set: (6-31G* AUX)
    Blend: CC-PVDZ-JKFIT
    Number of shells: 84
    Number of basis function: 262
    Number of Cartesian functions: 262
    Spherical Harmonics?: false
    Max angular momentum: 3

  Cached 100.0% of DFT collocation blocks in 0.136 [GiB].

  Minimum eigenvalue in the overlap matrix is 9.3452515030E-03.
  Using Symmetric Orthogonalization.

  SCF Guess: Superposition of Atomic Densities via on-the-fly atomic UHF.

  ==> Iterations <==

                           Total Energy        Delta E     RMS |[F,P]|

   @DF-RKS iter SAD:  -115.13604819633407   -1.15136e+02   0.00000e+00 
   @DF-RKS iter   1:  -115.56808388844570   -4.32036e-01   1.31900e-02 DIIS
   @DF-RKS iter   2:  -115.59045087892041   -2.23670e-02   1.27430e-02 DIIS
   @DF-RKS iter   3:  -115.67374149445114   -8.32906e-02   1.11819e-03 DIIS
   @DF-RKS iter   4:  -115.67442976625316   -6.88272e-04   3.72913e-04 DIIS
   @DF-RKS iter   5:  -115.67452557027173   -9.58040e-05   6.94905e-05 DIIS
   @DF-RKS iter   6:  -115.67452960180547   -4.03153e-06   6.93124e-06 DIIS
   @DF-RKS iter   7:  -115.67452968811645   -8.63110e-08   1.04788e-06 DIIS
   @DF-RKS iter   8:  -115.67452969054870   -2.43224e-09   2.36679e-07 DIIS
   @DF-RKS iter   9:  -115.67452969067807   -1.29376e-10   5.78392e-08 DIIS
   @DF-RKS iter  10:  -115.67452969068519   -7.11964e-12   1.10244e-08 DIIS
   @DF-RKS iter  11:  -115.67452969068539   -1.98952e-13   1.85915e-09 DIIS
  Energy and wave function converged.


  ==> Post-Iterations <==

    Orbital Energies [Eh]
    ---------------------

    Doubly Occupied:                                                      

       1A    -19.257024     2A    -10.333966     3A     -1.110457  
       4A     -0.772220     5A     -0.588309     6A     -0.525448  
       7A     -0.506343     8A     -0.408351     9A     -0.344849  

    Virtual:                                                              

      10A      0.161117    11A      0.220789    12A      0.251635  
      13A      0.262529    14A      0.296431    15A      0.631571  
      16A      0.654262    17A      0.667631    18A      0.894722  
      19A      0.947363    20A      0.961883    21A      0.998147  
      22A      1.041263    23A      1.066456    24A      1.112457  
      25A      1.224160    26A      1.552719    27A      1.573100  
      28A      1.661689    29A      1.840821    30A      2.164179  
      31A      2.205483    32A      2.275012    33A      2.408012  
      34A      2.458100    35A      2.575835    36A      2.892784  
      37A      3.811750    38A      4.318672  

    Final Occupation by Irrep:
              A 
    DOCC [     9 ]

  @DF-RKS Final Energy:  -115.67452969068539

   => Energetics <=

    Nuclear Repulsion Energy =             40.3661083674689962
    One-Electron Energy =                -237.1682147644441727
    Two-Electron Energy =                  91.7877753183001062
    DFT Exchange-Correlation Energy =     -10.6593827488619759
    Empirical Dispersion Energy =          -0.0008158631483504
    VV10 Nonlocal Energy =                  0.0000000000000000
    Total Energy =                       -115.6745296906853895

Computation Completed


Properties will be evaluated at   0.000000,   0.000000,   0.000000 [a0]

Properties computed using the SCF density matrix

  Nuclear Dipole Moment: [e a0]
     X:    -2.0818      Y:     0.5743      Z:     0.5915

  Electronic Dipole Moment: [e a0]
     X:     1.7159      Y:    -0.1482      Z:    -0.1422

  Dipole Moment: [e a0]
     X:    -0.3660      Y:     0.4260      Z:     0.4493     Total:     0.7192

  Dipole Moment: [D]
     X:    -0.9302      Y:     1.0828      Z:     1.1420     Total:     1.8281


*** tstop() called on node35.bme.utexas.edu at Mon Oct  5 15:31:29 2020
Module time:
	user time   =      22.30 seconds =       0.37 minutes
	system time =       1.55 seconds =       0.03 minutes
	total time  =          3 seconds =       0.05 minutes
Total time:
	user time   =      22.30 seconds =       0.37 minutes
	system time =       1.55 seconds =       0.03 minutes
	total time  =          3 seconds =       0.05 minutes

*** tstart() called on node35.bme.utexas.edu
*** at Mon Oct  5 15:31:29 2020


         ------------------------------------------------------------
                                   SCF GRAD                          
                          Rob Parrish, Justin Turney,                
                       Andy Simmonett, and Alex Sokolov              
         ------------------------------------------------------------

  ==> Geometry <==

    Molecular point group: c1
    Full point group: C1

    Geometry (in Angstrom), charge = 0, multiplicity = 1:

       Center              X                  Y                   Z               Mass       
    ------------   -----------------  -----------------  -----------------  -----------------
         O            0.686697677108    -0.034200678569    -0.025798504454    15.994914619570
         C           -0.728504322892    -0.005875678569    -0.018611504454    12.000000000000
         H           -1.093317322892    -0.766776678569     0.684755495546     1.007825032230
         H           -1.087065322892    -0.163464678569    -1.044700504454     1.007825032230
         H           -1.051367322892     0.987112321431     0.326577495546     1.007825032230
         H            1.007535677108     0.555879321431     0.664412495546     1.007825032230

  Nuclear repulsion =   40.366108367468996

  ==> Basis Set <==

  Basis Set: 6-31G*
    Blend: 6-31G*
    Number of shells: 20
    Number of basis function: 38
    Number of Cartesian functions: 38
    Spherical Harmonics?: false
    Max angular momentum: 2

  ==> DFJKGrad: Density-Fitted SCF Gradients <==

    Gradient:                    1
    J tasked:                  Yes
    K tasked:                  Yes
    wK tasked:                 Yes
    Omega:               2.000E-01
    OpenMP threads:              8
    Integrals threads:           8
    Memory [MiB]:            71525
    Schwarz Cutoff:          0E+00
    Fitting Condition:       1E-10

   => Auxiliary Basis Set <=

  Basis Set: (6-31G* AUX)
    Blend: CC-PVDZ-JKFIT
    Number of shells: 84
    Number of basis function: 262
    Number of Cartesian functions: 262
    Spherical Harmonics?: false
    Max angular momentum: 3

  ==> DFT Potential <==

   => Composite Functional: WB97X-D <= 

    wB97X-D Hyb-GGA Exchange-Correlation Functional

    J.-D. Chai and M. Head-Gordon, Phys. Chem. Chem. Phys. 10, 6615 (2008)

    Deriv               =              1
    GGA                 =           TRUE
    Meta                =          FALSE

    Exchange Hybrid     =           TRUE
    MP2 Hybrid          =          FALSE

   => Exchange-Correlation Functionals <=

    1.0000   wB97D range-separated functional

   => Exact (HF) Exchange <=

    0.7780            HF,LR [omega = 0.2000]
    0.2220               HF 

   => Molecular Quadrature <=

    Radial Scheme          =       TREUTLER
    Pruning Scheme         =           FLAT
    Nuclear Scheme         =       TREUTLER

    BS radius alpha        =              1
    Pruning alpha          =              1
    Radial Points          =             75
    Spherical Points       =            302
    Total Points           =         131904
    Total Blocks           =           1054
    Max Points             =            256
    Max Functions          =             38


  -Total Gradient:
     Atom            X                  Y                   Z
    ------   -----------------  -----------------  -----------------
       1       -0.006099232923     0.001084670296     0.006730027290
       2       -0.011840340726    -0.009537738585    -0.009190678603
       3        0.007885161466     0.000407561442     0.005110351806
       4        0.000133352337     0.003181893338    -0.005493362711
       5        0.008534434167     0.002592397813     0.002578060219
       6        0.001434575798     0.002305604465     0.000346457258


*** tstop() called on node35.bme.utexas.edu at Mon Oct  5 15:31:30 2020
Module time:
	user time   =       9.17 seconds =       0.15 minutes
	system time =       0.68 seconds =       0.01 minutes
	total time  =          1 seconds =       0.02 minutes
Total time:
	user time   =      31.48 seconds =       0.52 minutes
	system time =       2.23 seconds =       0.04 minutes
	total time  =          4 seconds =       0.07 minutes

			-----------------------------------------
			 OPTKING 2.0: for geometry optimizations 
			  - R.A. King,  Bethel University        
			-----------------------------------------

	Internal coordinates to be generated automatically.
	Detected frag 1 with atoms:  1 2 3 4 5 6
	---Fragment 1 Bond Connectivity---
	 1 : 2 6
	 2 : 1 3 4 5
	 3 : 2
	 4 : 2
	 5 : 2
	 6 : 1

	Assuming in current code that numbering for constraints corresponds to unified fragment.
	---Fragment 1 Geometry and Gradient---
	 O           1.2976705407       -0.0646299158       -0.0487521079
	 C          -1.3766736515       -0.0111034233       -0.0351706462
	 H          -2.0660703085       -1.4489979219        1.2940003495
	 H          -2.0542557407       -0.3089034737       -1.9741978365
	 H          -1.9867962975        1.8653719426        0.6171420253
	 H           1.9039664914        1.0504596763        1.2555576509
	            -0.0060992329        0.0010846703        0.0067300273
	            -0.0118403407       -0.0095377386       -0.0091906786
	             0.0078851615        0.0004075614        0.0051103518
	             0.0001333523        0.0031818933       -0.0054933627
	             0.0085344342        0.0025923978        0.0025780602
	             0.0014345758        0.0023056045        0.0003464573

	Previous optimization step data not found.  Starting new optimization.

	---Fragment 1 Intrafragment Coordinates---
	 - Coordinate -           - BOHR/RAD -       - ANG/DEG -
	 R(1,2)           =         2.674914	       1.415504
	 R(1,6)           =         1.819957	       0.963080
	 R(2,3)           =         2.075934	       1.098537
	 R(2,4)           =         2.075483	       1.098298
	 R(2,5)           =         2.078201	       1.099737
	 B(1,2,3)         =         1.898014	     108.748195
	 B(1,2,4)         =         1.895244	     108.589482
	 B(1,2,5)         =         1.889337	     108.251058
	 B(2,1,6)         =         1.893537	     108.491698
	 B(3,2,4)         =         1.971839	     112.978041
	 B(3,2,5)         =         1.903869	     109.083631
	 B(4,2,5)         =         1.903879	     109.084238
	 D(3,2,1,6)       =        -1.542076	     -88.354423
	 D(4,2,1,6)       =         2.589023	     148.340115
	 D(5,2,1,6)       =         0.524239	      30.036685

	Current energy   :      -115.6745296907

	Generating empirical Hessian (Schlegel '84) for each fragment.
	Taking RFO optimization step.
	Going to follow RFO solution 1.
	Using RFO vector 1.
	Norm of target step-size    0.27578
	Projected energy change by RFO approximation:         0.0020100274

	Back-transformation to cartesian coordinates...
	Successfully converged to displaced geometry.

	--- Internal Coordinate Step in ANG or DEG, aJ/ANG or AJ/DEG ---
	 ---------------------------------------------------------------------------
	   Coordinate                Previous        Force       Change         New 
	   ----------                --------       ------       ------       ------
	    1 R(1,2)          =      1.415504     0.039421     0.005815     1.421319
	    2 R(1,6)          =      0.963080    -0.017519    -0.002038     0.961042
	    3 R(2,3)          =      1.098537    -0.003058    -0.000574     1.097964
	    4 R(2,4)          =      1.098298    -0.038291    -0.007177     1.091121
	    5 R(2,5)          =      1.099737    -0.005234    -0.000986     1.098751
	    6 B(1,2,3)        =    108.748195     0.000767     3.336503   112.084698
	    7 B(1,2,4)        =    108.589482    -0.000286    -1.725765   106.863716
	    8 B(1,2,5)        =    108.251058     0.001094     5.637090   113.888148
	    9 B(2,1,6)        =    108.491698    -0.000102    -1.173895   107.317803
	   10 B(3,2,4)        =    112.978041    -0.000750    -4.405938   108.572103
	   11 B(3,2,5)        =    109.083631    -0.000382    -1.364591   107.719041
	   12 B(4,2,5)        =    109.084238    -0.000355    -1.572647   107.511591
	   13 D(3,2,1,6)      =    -88.354423    -0.000077     4.548601   -83.805822
	   14 D(4,2,1,6)      =    148.340115     0.000065     9.027744   157.367859
	   15 D(5,2,1,6)      =     30.036685     0.000058     8.767751    38.804436
	 ---------------------------------------------------------------------------
	Successfully symmetrized geometry.

  ==> Convergence Check <==

  Measures of convergence in internal coordinates in au.
  Criteria marked as inactive (o), active & met (*), and active & unmet ( ).
  --------------------------------------------------------------------------------------------- ~
   Step     Total Energy     Delta E     MAX Force     RMS Force      MAX Disp      RMS Disp    ~
  --------------------------------------------------------------------------------------------- ~
    Convergence Criteria             o    2.50e-03 *    1.70e-03 *    1.00e-02 *    6.70e-03 *  ~
  --------------------------------------------------------------------------------------------- ~
      1    -115.67452969   -1.16e+02 o    1.44e-02      6.12e-03      1.58e-01      7.14e-02    ~
  ---------------------------------------------------------------------------------------------

	Writing optimization data to binary file.
	Structure for next step:
	Cartesian Geometry (in Angstrom)
	    O     0.7130695857  -0.0146412939  -0.0377734495
	    C    -0.7074052347   0.0291040174  -0.0157531567
	    H    -1.1351365023  -0.7635546237   0.6121500315
	    H    -1.0446606046  -0.1209064534  -1.0425448616
	    H    -1.1177222491   0.9878308431   0.3302773485
	    H     1.0258340766   0.4548414369   0.7402790589
			--------------------------
			 OPTKING Finished Execution 
			--------------------------

    Structure for next step:
    Molecular point group: c1
    Full point group: C1

    Geometry (in Angstrom), charge = 0, multiplicity = 1:

    O            0.693486786031    -0.035800247479    -0.033150670486
    C           -0.726988039942     0.007945064002    -0.011130377598
    H           -1.154719309233    -0.784713580177     0.616772813104
    H           -1.064243411141    -0.142065407391    -1.037922086527
    H           -1.137305055999     0.966671893449     0.334900129040
    H            1.006251278161     0.433682485189     0.744901840988

gradient() will perform analytic gradient computation.

*** tstart() called on node35.bme.utexas.edu
*** at Mon Oct  5 15:31:31 2020

   => Loading Basis Set <=

    Name: 6-31G*
    Role: ORBITAL
    Keyword: BASIS
    atoms 1   entry O          line   145 file /home/bdw2292/miniconda3/envs/p4env/share/psi4/basis/6-31gs.gbs 
    atoms 2   entry C          line   111 file /home/bdw2292/miniconda3/envs/p4env/share/psi4/basis/6-31gs.gbs 
    atoms 3-6 entry H          line    44 file /home/bdw2292/miniconda3/envs/p4env/share/psi4/basis/6-31gs.gbs 


         ---------------------------------------------------------
                                   SCF
               by Justin Turney, Rob Parrish, Andy Simmonett
                          and Daniel G. A. Smith
                              RKS Reference
                        8 Threads,  95367 MiB Core
         ---------------------------------------------------------

  ==> Geometry <==

    Molecular point group: c1
    Full point group: C1

    Geometry (in Angstrom), charge = 0, multiplicity = 1:

       Center              X                  Y                   Z               Mass       
    ------------   -----------------  -----------------  -----------------  -----------------
         O            0.693486786031    -0.035800247479    -0.033150670486    15.994914619570
         C           -0.726988039942     0.007945064002    -0.011130377598    12.000000000000
         H           -1.154719309233    -0.784713580177     0.616772813104     1.007825032230
         H           -1.064243411141    -0.142065407391    -1.037922086527     1.007825032230
         H           -1.137305055999     0.966671893449     0.334900129040     1.007825032230
         H            1.006251278161     0.433682485189     0.744901840988     1.007825032230

  Running in c1 symmetry.

  Rotational constants: A =      4.27971  B =      0.82425  C =      0.79500 [cm^-1]
  Rotational constants: A = 128302.45314  B =  24710.53700  C =  23833.51327 [MHz]
  Nuclear repulsion =   40.243157695409174

  Charge       = 0
  Multiplicity = 1
  Electrons    = 18
  Nalpha       = 9
  Nbeta        = 9

  ==> Algorithm <==

  SCF Algorithm Type is DF.
  DIIS enabled.
  MOM disabled.
  Fractional occupation disabled.
  Guess Type is READ.
  Energy threshold   = 1.00e-08
  Density threshold  = 1.00e-08
  Integral threshold = 0.00e+00

  ==> Primary Basis <==

  Basis Set: 6-31G*
    Blend: 6-31G*
    Number of shells: 20
    Number of basis function: 38
    Number of Cartesian functions: 38
    Spherical Harmonics?: false
    Max angular momentum: 2

  ==> DFT Potential <==

   => Composite Functional: WB97X-D <= 

    wB97X-D Hyb-GGA Exchange-Correlation Functional

    J.-D. Chai and M. Head-Gordon, Phys. Chem. Chem. Phys. 10, 6615 (2008)

    Deriv               =              1
    GGA                 =           TRUE
    Meta                =          FALSE

    Exchange Hybrid     =           TRUE
    MP2 Hybrid          =          FALSE

   => Exchange-Correlation Functionals <=

    1.0000   wB97D range-separated functional

   => Exact (HF) Exchange <=

    0.7780            HF,LR [omega = 0.2000]
    0.2220               HF 

   => Molecular Quadrature <=

    Radial Scheme          =       TREUTLER
    Pruning Scheme         =           FLAT
    Nuclear Scheme         =       TREUTLER

    BS radius alpha        =              1
    Pruning alpha          =              1
    Radial Points          =             75
    Spherical Points       =            302
    Total Points           =         131919
    Total Blocks           =           1055
    Max Points             =            256
    Max Functions          =             38

   => WB97X-D: Empirical Dispersion <=

    Chai and Head-Gordon Dispersion Correction
    Chai, J.-D.; Head-Gordon, M. (2010), J. Chem. Phys., 132: 6615-6620

        s6 =       1.000000

   => Loading Basis Set <=

    Name: (6-31G* AUX)
    Role: JKFIT
    Keyword: DF_BASIS_SCF
    atoms 1   entry O          line   221 file /home/bdw2292/miniconda3/envs/p4env/share/psi4/basis/cc-pvdz-jkfit.gbs 
    atoms 2   entry C          line   121 file /home/bdw2292/miniconda3/envs/p4env/share/psi4/basis/cc-pvdz-jkfit.gbs 
    atoms 3-6 entry H          line    51 file /home/bdw2292/miniconda3/envs/p4env/share/psi4/basis/cc-pvdz-jkfit.gbs 

   => Loading Basis Set <=

    Name: 6-31G*
    Role: ORBITAL
    Keyword: BASIS
    atoms 1   entry O          line   145 file /home/bdw2292/miniconda3/envs/p4env/share/psi4/basis/6-31gs.gbs 
    atoms 2   entry C          line   111 file /home/bdw2292/miniconda3/envs/p4env/share/psi4/basis/6-31gs.gbs 
    atoms 3-6 entry H          line    44 file /home/bdw2292/miniconda3/envs/p4env/share/psi4/basis/6-31gs.gbs 

  Reading orbitals from file 180, no projection.

  ==> Pre-Iterations <==

   -------------------------------------------------------
    Irrep   Nso     Nmo     Nalpha   Nbeta   Ndocc  Nsocc
   -------------------------------------------------------
     A         38      38       0       0       0       0
   -------------------------------------------------------
    Total      38      38       9       9       9       0
   -------------------------------------------------------

  ==> Integral Setup <==

  ==> DiskDFJK: Density-Fitted J/K Matrices <==

    J tasked:                  Yes
    K tasked:                  Yes
    wK tasked:                 Yes
    Omega:               2.000E-01
    OpenMP threads:              8
    Integrals threads:           8
    Memory [MiB]:            71386
    Algorithm:                Core
    Integral Cache:           NONE
    Schwarz Cutoff:          1E-12
    Fitting Condition:       1E-10

   => Auxiliary Basis Set <=

  Basis Set: (6-31G* AUX)
    Blend: CC-PVDZ-JKFIT
    Number of shells: 84
    Number of basis function: 262
    Number of Cartesian functions: 262
    Spherical Harmonics?: false
    Max angular momentum: 3

  Cached 100.0% of DFT collocation blocks in 0.136 [GiB].

  Minimum eigenvalue in the overlap matrix is 9.8510224233E-03.
  Using Symmetric Orthogonalization.

  SCF Guess: Orbitals guess was supplied from a previous computation.

  ==> Iterations <==

                           Total Energy        Delta E     RMS |[F,P]|

   @DF-RKS iter   0:  -115.67375895973922   -1.15674e+02   2.02882e-03 
   @DF-RKS iter   1:  -115.67607306455122   -2.31410e-03   4.43485e-04 DIIS
   @DF-RKS iter   2:  -115.67629121538909   -2.18151e-04   2.57483e-04 DIIS
   @DF-RKS iter   3:  -115.67633188478510   -4.06694e-05   1.28869e-04 DIIS
   @DF-RKS iter   4:  -115.67634596927955   -1.40845e-05   1.80507e-05 DIIS
   @DF-RKS iter   5:  -115.67634661380905   -6.44529e-07   6.17260e-06 DIIS
   @DF-RKS iter   6:  -115.67634668541402   -7.16050e-08   2.17969e-06 DIIS
   @DF-RKS iter   7:  -115.67634669141351   -5.99950e-09   2.84837e-07 DIIS
   @DF-RKS iter   8:  -115.67634669158896   -1.75447e-10   5.74484e-08 DIIS
   @DF-RKS iter   9:  -115.67634669159737   -8.41283e-12   8.84818e-09 DIIS
  Energy and wave function converged.


  ==> Post-Iterations <==

    Orbital Energies [Eh]
    ---------------------

    Doubly Occupied:                                                      

       1A    -19.262599     2A    -10.333249     3A     -1.111958  
       4A     -0.775341     5A     -0.591043     6A     -0.520151  
       7A     -0.503767     8A     -0.415666     9A     -0.348708  

    Virtual:                                                              

      10A      0.166207    11A      0.219394    12A      0.248568  
      13A      0.262870    14A      0.296639    15A      0.627366  
      16A      0.655888    17A      0.663849    18A      0.893151  
      19A      0.948815    20A      0.966406    21A      1.003342  
      22A      1.048227    23A      1.068249    24A      1.112848  
      25A      1.217281    26A      1.552354    27A      1.584227  
      28A      1.651317    29A      1.834991    30A      2.132844  
      31A      2.193479    32A      2.234876    33A      2.440017  
      34A      2.471514    35A      2.571339    36A      2.887412  
      37A      3.801109    38A      4.318090  

    Final Occupation by Irrep:
              A 
    DOCC [     9 ]

  @DF-RKS Final Energy:  -115.67634669159737

   => Energetics <=

    Nuclear Repulsion Energy =             40.2431576954091739
    One-Electron Energy =                -236.8960290153272297
    Two-Electron Energy =                  91.6349537029829833
    DFT Exchange-Correlation Energy =     -10.6576014907944483
    Empirical Dispersion Energy =          -0.0008275838678475
    VV10 Nonlocal Energy =                  0.0000000000000000
    Total Energy =                       -115.6763466915973737

Computation Completed


Properties will be evaluated at   0.000000,   0.000000,   0.000000 [a0]

Properties computed using the SCF density matrix

  Nuclear Dipole Moment: [e a0]
     X:    -2.1997      Y:     0.4438      Z:     0.6173

  Electronic Dipole Moment: [e a0]
     X:     1.8310      Y:    -0.1001      Z:    -0.1126

  Dipole Moment: [e a0]
     X:    -0.3688      Y:     0.3437      Z:     0.5047     Total:     0.7133

  Dipole Moment: [D]
     X:    -0.9373      Y:     0.8736      Z:     1.2828     Total:     1.8131


*** tstop() called on node35.bme.utexas.edu at Mon Oct  5 15:31:33 2020
Module time:
	user time   =      15.27 seconds =       0.25 minutes
	system time =       0.91 seconds =       0.02 minutes
	total time  =          2 seconds =       0.03 minutes
Total time:
	user time   =      47.25 seconds =       0.79 minutes
	system time =       3.18 seconds =       0.05 minutes
	total time  =          7 seconds =       0.12 minutes

*** tstart() called on node35.bme.utexas.edu
*** at Mon Oct  5 15:31:33 2020


         ------------------------------------------------------------
                                   SCF GRAD                          
                          Rob Parrish, Justin Turney,                
                       Andy Simmonett, and Alex Sokolov              
         ------------------------------------------------------------

  ==> Geometry <==

    Molecular point group: c1
    Full point group: C1

    Geometry (in Angstrom), charge = 0, multiplicity = 1:

       Center              X                  Y                   Z               Mass       
    ------------   -----------------  -----------------  -----------------  -----------------
         O            0.693486786031    -0.035800247479    -0.033150670486    15.994914619570
         C           -0.726988039942     0.007945064002    -0.011130377598    12.000000000000
         H           -1.154719309233    -0.784713580177     0.616772813104     1.007825032230
         H           -1.064243411141    -0.142065407391    -1.037922086527     1.007825032230
         H           -1.137305055999     0.966671893449     0.334900129040     1.007825032230
         H            1.006251278161     0.433682485189     0.744901840988     1.007825032230

  Nuclear repulsion =   40.243157695409174

  ==> Basis Set <==

  Basis Set: 6-31G*
    Blend: 6-31G*
    Number of shells: 20
    Number of basis function: 38
    Number of Cartesian functions: 38
    Spherical Harmonics?: false
    Max angular momentum: 2

  ==> DFJKGrad: Density-Fitted SCF Gradients <==

    Gradient:                    1
    J tasked:                  Yes
    K tasked:                  Yes
    wK tasked:                 Yes
    Omega:               2.000E-01
    OpenMP threads:              8
    Integrals threads:           8
    Memory [MiB]:            71525
    Schwarz Cutoff:          0E+00
    Fitting Condition:       1E-10

   => Auxiliary Basis Set <=

  Basis Set: (6-31G* AUX)
    Blend: CC-PVDZ-JKFIT
    Number of shells: 84
    Number of basis function: 262
    Number of Cartesian functions: 262
    Spherical Harmonics?: false
    Max angular momentum: 3

  ==> DFT Potential <==

   => Composite Functional: WB97X-D <= 

    wB97X-D Hyb-GGA Exchange-Correlation Functional

    J.-D. Chai and M. Head-Gordon, Phys. Chem. Chem. Phys. 10, 6615 (2008)

    Deriv               =              1
    GGA                 =           TRUE
    Meta                =          FALSE

    Exchange Hybrid     =           TRUE
    MP2 Hybrid          =          FALSE

   => Exchange-Correlation Functionals <=

    1.0000   wB97D range-separated functional

   => Exact (HF) Exchange <=

    0.7780            HF,LR [omega = 0.2000]
    0.2220               HF 

   => Molecular Quadrature <=

    Radial Scheme          =       TREUTLER
    Pruning Scheme         =           FLAT
    Nuclear Scheme         =       TREUTLER

    BS radius alpha        =              1
    Pruning alpha          =              1
    Radial Points          =             75
    Spherical Points       =            302
    Total Points           =         131919
    Total Blocks           =           1055
    Max Points             =            256
    Max Functions          =             38


  -Total Gradient:
     Atom            X                  Y                   Z
    ------   -----------------  -----------------  -----------------
       1        0.008077287890    -0.003423314739     0.000348717446
       2       -0.004427160822     0.001370534784     0.001285102787
       3       -0.000083317682     0.001209610721    -0.000497930364
       4        0.000783594241     0.001405757590     0.000847937721
       5       -0.002906515777    -0.001411951382     0.000194786064
       6       -0.001611676993     0.000857571163    -0.002120220643


*** tstop() called on node35.bme.utexas.edu at Mon Oct  5 15:31:34 2020
Module time:
	user time   =       9.14 seconds =       0.15 minutes
	system time =       0.65 seconds =       0.01 minutes
	total time  =          1 seconds =       0.02 minutes
Total time:
	user time   =      56.40 seconds =       0.94 minutes
	system time =       3.84 seconds =       0.06 minutes
	total time  =          8 seconds =       0.13 minutes

			-----------------------------------------
			 OPTKING 2.0: for geometry optimizations 
			  - R.A. King,  Bethel University        
			-----------------------------------------

	Previous internal coordinate definitions found.
	---Fragment 1 Geometry and Gradient---
	 O           1.3105000972       -0.0676526630       -0.0626456881
	 C          -1.3738082920        0.0150139950       -0.0210333653
	 H          -2.1821032462       -1.4828937535        1.1655316984
	 H          -2.0111285779       -0.2684647119       -1.9613884831
	 H          -2.1491950769        1.8267451318        0.6328695233
	 H           1.9015393291        0.8195411224        1.4076604698
	             0.0080772879       -0.0034233147        0.0003487174
	            -0.0044271608        0.0013705348        0.0012851028
	            -0.0000833177        0.0012096107       -0.0004979304
	             0.0007835942        0.0014057576        0.0008479377
	            -0.0029065158       -0.0014119514        0.0001947861
	            -0.0016116770        0.0008575712       -0.0021202206

	---Fragment 1 Intrafragment Coordinates---
	 - Coordinate -           - BOHR/RAD -       - ANG/DEG -
	 R(1,2)           =         2.685903	       1.421319
	 R(1,6)           =         1.816106	       0.961042
	 R(2,3)           =         2.074851	       1.097964
	 R(2,4)           =         2.061920	       1.091121
	 R(2,5)           =         2.076339	       1.098751
	 B(1,2,3)         =         1.956247	     112.084698
	 B(1,2,4)         =         1.865124	     106.863716
	 B(1,2,5)         =         1.987723	     113.888148
	 B(2,1,6)         =         1.873049	     107.317803
	 B(3,2,4)         =         1.894941	     108.572103
	 B(3,2,5)         =         1.880052	     107.719041
	 B(4,2,5)         =         1.876431	     107.511591
	 D(3,2,1,6)       =        -1.462688	     -83.805822
	 D(4,2,1,6)       =         2.746587	     157.367859
	 D(5,2,1,6)       =         0.677265	      38.804436

	Current energy   :      -115.6763466916

	Energy change for the previous step:
		Projected    :         0.0020100274
		Actual       :        -0.0018170009

	Performing BFGS update.
	Previous computed or guess Hessian on step 1.
	Steps to be used in Hessian update: 1
	Taking RFO optimization step.
	Going to follow RFO solution 1.
	Using RFO vector 1.
	Norm of target step-size    0.45803
	Projected energy change by RFO approximation:        -0.0030388806

	Back-transformation to cartesian coordinates...
	Could not converge backtransformation.
	Using first guess instead.

	--- Internal Coordinate Step in ANG or DEG, aJ/ANG or AJ/DEG ---
	 ---------------------------------------------------------------------------
	   Coordinate                Previous        Force       Change         New 
	   ----------                --------       ------       ------       ------
	    1 R(1,2)          =      1.421319    -0.054535    -0.004794     1.416525
	    2 R(1,6)          =      0.961042     0.014937     0.021352     0.982394
	    3 R(2,3)          =      1.097964     0.009453     0.002766     1.100730
	    4 R(2,4)          =      1.091121     0.010121     0.002270     1.093391
	    5 R(2,5)          =      1.098751     0.000813     0.000389     1.099141
	    6 B(1,2,3)        =    112.084698    -0.000007     0.404524   112.489222
	    7 B(1,2,4)        =    106.863716     0.000114     0.339929   107.203646
	    8 B(1,2,5)        =    113.888148    -0.000345    -0.802522   113.085626
	    9 B(2,1,6)        =    107.317803     0.000151    -0.444987   106.872816
	   10 B(3,2,4)        =    108.572103    -0.000032    -0.739425   107.832678
	   11 B(3,2,5)        =    107.719041     0.000168     0.536316   108.255357
	   12 B(4,2,5)        =    107.511591     0.000115     0.232108   107.743699
	   13 D(3,2,1,6)      =    -83.805822     0.000024    14.622009   -69.183813
	   14 D(4,2,1,6)      =    157.367859     0.000017    15.079291   172.447150
	   15 D(5,2,1,6)      =     38.804436     0.000013    15.037067    53.841502
	 ---------------------------------------------------------------------------
	Successfully symmetrized geometry.

  ==> Convergence Check <==

  Measures of convergence in internal coordinates in au.
  Criteria marked as inactive (o), active & met (*), and active & unmet ( ).
  ---------------------------------------------------------------------------------------------
   Step     Total Energy     Delta E     MAX Force     RMS Force      MAX Disp      RMS Disp   
  ---------------------------------------------------------------------------------------------
    Convergence Criteria             o    2.50e-03 *    1.70e-03 *    1.00e-02 *    6.70e-03 *
  ---------------------------------------------------------------------------------------------
      2    -115.67634669   -1.82e-03 o    6.62e-03      2.41e-03      2.63e-01      1.17e-01    ~
  ---------------------------------------------------------------------------------------------

	Writing optimization data to binary file.
	Structure for next step:
	Cartesian Geometry (in Angstrom)
	    O     0.6898136851   0.0419680033  -0.0764104605
	    C    -0.7255234944   0.0243612381  -0.0211505107
	    H    -1.1113304558  -0.7685650014   0.6376573506
	    H    -1.0862165685  -0.1765203678  -1.0335984551
	    H    -1.1560829827   0.9819675945   0.3039935354
	    H     1.0058220735   0.3425087392   0.8038801864
			--------------------------
			 OPTKING Finished Execution 
			--------------------------

    Structure for next step:
    Molecular point group: c1
    Full point group: C1

    Geometry (in Angstrom), charge = 0, multiplicity = 1:

    O            0.691029895900    -0.000059105069    -0.052727318233
    C           -0.724307289082    -0.017665870340     0.002532631804
    H           -1.110114252038    -0.810592112900     0.661340495701
    H           -1.085000364613    -0.218547477038    -1.009915316590
    H           -1.154866779114     0.939940489870     0.327676679192
    H            1.007038285600     0.300481632059     0.827563332185

gradient() will perform analytic gradient computation.

*** tstart() called on node35.bme.utexas.edu
*** at Mon Oct  5 15:31:34 2020

   => Loading Basis Set <=

    Name: 6-31G*
    Role: ORBITAL
    Keyword: BASIS
    atoms 1   entry O          line   145 file /home/bdw2292/miniconda3/envs/p4env/share/psi4/basis/6-31gs.gbs 
    atoms 2   entry C          line   111 file /home/bdw2292/miniconda3/envs/p4env/share/psi4/basis/6-31gs.gbs 
    atoms 3-6 entry H          line    44 file /home/bdw2292/miniconda3/envs/p4env/share/psi4/basis/6-31gs.gbs 


         ---------------------------------------------------------
                                   SCF
               by Justin Turney, Rob Parrish, Andy Simmonett
                          and Daniel G. A. Smith
                              RKS Reference
                        8 Threads,  95367 MiB Core
         ---------------------------------------------------------

  ==> Geometry <==

    Molecular point group: c1
    Full point group: C1

    Geometry (in Angstrom), charge = 0, multiplicity = 1:

       Center              X                  Y                   Z               Mass       
    ------------   -----------------  -----------------  -----------------  -----------------
         O            0.691029895900    -0.000059105069    -0.052727318233    15.994914619570
         C           -0.724307289082    -0.017665870340     0.002532631804    12.000000000000
         H           -1.110114252038    -0.810592112900     0.661340495701     1.007825032230
         H           -1.085000364613    -0.218547477038    -1.009915316590     1.007825032230
         H           -1.154866779114     0.939940489870     0.327676679192     1.007825032230
         H            1.007038285600     0.300481632059     0.827563332185     1.007825032230

  Running in c1 symmetry.

  Rotational constants: A =      4.22621  B =      0.82847  C =      0.79766 [cm^-1]
  Rotational constants: A = 126698.50964  B =  24837.02988  C =  23913.36167 [MHz]
  Nuclear repulsion =   40.193847293057601

  Charge       = 0
  Multiplicity = 1
  Electrons    = 18
  Nalpha       = 9
  Nbeta        = 9

  ==> Algorithm <==

  SCF Algorithm Type is DF.
  DIIS enabled.
  MOM disabled.
  Fractional occupation disabled.
  Guess Type is READ.
  Energy threshold   = 1.00e-08
  Density threshold  = 1.00e-08
  Integral threshold = 0.00e+00

  ==> Primary Basis <==

  Basis Set: 6-31G*
    Blend: 6-31G*
    Number of shells: 20
    Number of basis function: 38
    Number of Cartesian functions: 38
    Spherical Harmonics?: false
    Max angular momentum: 2

  ==> DFT Potential <==

   => Composite Functional: WB97X-D <= 

    wB97X-D Hyb-GGA Exchange-Correlation Functional

    J.-D. Chai and M. Head-Gordon, Phys. Chem. Chem. Phys. 10, 6615 (2008)

    Deriv               =              1
    GGA                 =           TRUE
    Meta                =          FALSE

    Exchange Hybrid     =           TRUE
    MP2 Hybrid          =          FALSE

   => Exchange-Correlation Functionals <=

    1.0000   wB97D range-separated functional

   => Exact (HF) Exchange <=

    0.7780            HF,LR [omega = 0.2000]
    0.2220               HF 

   => Molecular Quadrature <=

    Radial Scheme          =       TREUTLER
    Pruning Scheme         =           FLAT
    Nuclear Scheme         =       TREUTLER

    BS radius alpha        =              1
    Pruning alpha          =              1
    Radial Points          =             75
    Spherical Points       =            302
    Total Points           =         131918
    Total Blocks           =           1058
    Max Points             =            256
    Max Functions          =             38

   => WB97X-D: Empirical Dispersion <=

    Chai and Head-Gordon Dispersion Correction
    Chai, J.-D.; Head-Gordon, M. (2010), J. Chem. Phys., 132: 6615-6620

        s6 =       1.000000

   => Loading Basis Set <=

    Name: (6-31G* AUX)
    Role: JKFIT
    Keyword: DF_BASIS_SCF
    atoms 1   entry O          line   221 file /home/bdw2292/miniconda3/envs/p4env/share/psi4/basis/cc-pvdz-jkfit.gbs 
    atoms 2   entry C          line   121 file /home/bdw2292/miniconda3/envs/p4env/share/psi4/basis/cc-pvdz-jkfit.gbs 
    atoms 3-6 entry H          line    51 file /home/bdw2292/miniconda3/envs/p4env/share/psi4/basis/cc-pvdz-jkfit.gbs 

   => Loading Basis Set <=

    Name: 6-31G*
    Role: ORBITAL
    Keyword: BASIS
    atoms 1   entry O          line   145 file /home/bdw2292/miniconda3/envs/p4env/share/psi4/basis/6-31gs.gbs 
    atoms 2   entry C          line   111 file /home/bdw2292/miniconda3/envs/p4env/share/psi4/basis/6-31gs.gbs 
    atoms 3-6 entry H          line    44 file /home/bdw2292/miniconda3/envs/p4env/share/psi4/basis/6-31gs.gbs 

  Reading orbitals from file 180, no projection.

  ==> Pre-Iterations <==

   -------------------------------------------------------
    Irrep   Nso     Nmo     Nalpha   Nbeta   Ndocc  Nsocc
   -------------------------------------------------------
     A         38      38       0       0       0       0
   -------------------------------------------------------
    Total      38      38       9       9       9       0
   -------------------------------------------------------

  ==> Integral Setup <==

  ==> DiskDFJK: Density-Fitted J/K Matrices <==

    J tasked:                  Yes
    K tasked:                  Yes
    wK tasked:                 Yes
    Omega:               2.000E-01
    OpenMP threads:              8
    Integrals threads:           8
    Memory [MiB]:            71385
    Algorithm:                Core
    Integral Cache:           NONE
    Schwarz Cutoff:          1E-12
    Fitting Condition:       1E-10

   => Auxiliary Basis Set <=

  Basis Set: (6-31G* AUX)
    Blend: CC-PVDZ-JKFIT
    Number of shells: 84
    Number of basis function: 262
    Number of Cartesian functions: 262
    Spherical Harmonics?: false
    Max angular momentum: 3

  Cached 100.0% of DFT collocation blocks in 0.137 [GiB].

  Minimum eigenvalue in the overlap matrix is 9.8029472682E-03.
  Using Symmetric Orthogonalization.

  SCF Guess: Orbitals guess was supplied from a previous computation.

  ==> Iterations <==

                           Total Energy        Delta E     RMS |[F,P]|

   @DF-RKS iter   0:  -115.65929443176007   -1.15659e+02   2.95278e-03 
   @DF-RKS iter   1:  -115.67627370401739   -1.69793e-02   5.36889e-04 DIIS
   @DF-RKS iter   2:  -115.67665563848796   -3.81934e-04   2.47769e-04 DIIS
   @DF-RKS iter   3:  -115.67670147350132   -4.58350e-05   1.61669e-04 DIIS
   @DF-RKS iter   4:  -115.67672167669194   -2.02032e-05   3.04300e-05 DIIS
   @DF-RKS iter   5:  -115.67672309725336   -1.42056e-06   7.98634e-06 DIIS
   @DF-RKS iter   6:  -115.67672323442245   -1.37169e-07   3.38852e-06 DIIS
   @DF-RKS iter   7:  -115.67672324798846   -1.35660e-08   3.78131e-07 DIIS
   @DF-RKS iter   8:  -115.67672324835195   -3.63485e-10   7.47244e-08 DIIS
   @DF-RKS iter   9:  -115.67672324836651   -1.45661e-11   1.15609e-08 DIIS
   @DF-RKS iter  10:  -115.67672324836690   -3.83693e-13   1.77862e-09 DIIS
  Energy and wave function converged.


  ==> Post-Iterations <==

    Orbital Energies [Eh]
    ---------------------

    Doubly Occupied:                                                      

       1A    -19.265070     2A    -10.333376     3A     -1.109958  
       4A     -0.772747     5A     -0.588711     6A     -0.520673  
       7A     -0.504387     8A     -0.414524     9A     -0.348540  

    Virtual:                                                              

      10A      0.162597    11A      0.218627    12A      0.251780  
      13A      0.261054    14A      0.291552    15A      0.628307  
      16A      0.657687    17A      0.666833    18A      0.877544  
      19A      0.948589    20A      0.964798    21A      1.000819  
      22A      1.042062    23A      1.069980    24A      1.112302  
      25A      1.209003    26A      1.550932    27A      1.586419  
      28A      1.667557    29A      1.833825    30A      2.132922  
      31A      2.201183    32A      2.222185    33A      2.445505  
      34A      2.490671    35A      2.526946    36A      2.885276  
      37A      3.797546    38A      4.316544  

    Final Occupation by Irrep:
              A 
    DOCC [     9 ]

  @DF-RKS Final Energy:  -115.67672324836690

   => Energetics <=

    Nuclear Repulsion Energy =             40.1938472930576012
    One-Electron Energy =                -236.8122513810325529
    Two-Electron Energy =                  91.5926807983836113
    DFT Exchange-Correlation Energy =     -10.6501649815637602
    Empirical Dispersion Energy =          -0.0008349772117764
    VV10 Nonlocal Energy =                  0.0000000000000000
    Total Energy =                       -115.6767232483668977

Computation Completed


Properties will be evaluated at   0.000000,   0.000000,   0.000000 [a0]

Properties computed using the SCF density matrix

  Nuclear Dipole Moment: [e a0]
     X:    -2.1931      Y:     0.1981      Z:     0.7560

  Electronic Dipole Moment: [e a0]
     X:     1.8304      Y:    -0.0071      Z:    -0.1855

  Dipole Moment: [e a0]
     X:    -0.3627      Y:     0.1910      Z:     0.5705     Total:     0.7024

  Dipole Moment: [D]
     X:    -0.9218      Y:     0.4854      Z:     1.4499     Total:     1.7854


*** tstop() called on node35.bme.utexas.edu at Mon Oct  5 15:31:36 2020
Module time:
	user time   =      16.12 seconds =       0.27 minutes
	system time =       0.97 seconds =       0.02 minutes
	total time  =          2 seconds =       0.03 minutes
Total time:
	user time   =      72.82 seconds =       1.21 minutes
	system time =       4.85 seconds =       0.08 minutes
	total time  =         10 seconds =       0.17 minutes

*** tstart() called on node35.bme.utexas.edu
*** at Mon Oct  5 15:31:36 2020


         ------------------------------------------------------------
                                   SCF GRAD                          
                          Rob Parrish, Justin Turney,                
                       Andy Simmonett, and Alex Sokolov              
         ------------------------------------------------------------

  ==> Geometry <==

    Molecular point group: c1
    Full point group: C1

    Geometry (in Angstrom), charge = 0, multiplicity = 1:

       Center              X                  Y                   Z               Mass       
    ------------   -----------------  -----------------  -----------------  -----------------
         O            0.691029895900    -0.000059105069    -0.052727318233    15.994914619570
         C           -0.724307289082    -0.017665870340     0.002532631804    12.000000000000
         H           -1.110114252038    -0.810592112900     0.661340495701     1.007825032230
         H           -1.085000364613    -0.218547477038    -1.009915316590     1.007825032230
         H           -1.154866779114     0.939940489870     0.327676679192     1.007825032230
         H            1.007038285600     0.300481632059     0.827563332185     1.007825032230

  Nuclear repulsion =   40.193847293057601

  ==> Basis Set <==

  Basis Set: 6-31G*
    Blend: 6-31G*
    Number of shells: 20
    Number of basis function: 38
    Number of Cartesian functions: 38
    Spherical Harmonics?: false
    Max angular momentum: 2

  ==> DFJKGrad: Density-Fitted SCF Gradients <==

    Gradient:                    1
    J tasked:                  Yes
    K tasked:                  Yes
    wK tasked:                 Yes
    Omega:               2.000E-01
    OpenMP threads:              8
    Integrals threads:           8
    Memory [MiB]:            71525
    Schwarz Cutoff:          0E+00
    Fitting Condition:       1E-10

   => Auxiliary Basis Set <=

  Basis Set: (6-31G* AUX)
    Blend: CC-PVDZ-JKFIT
    Number of shells: 84
    Number of basis function: 262
    Number of Cartesian functions: 262
    Spherical Harmonics?: false
    Max angular momentum: 3

  ==> DFT Potential <==

   => Composite Functional: WB97X-D <= 

    wB97X-D Hyb-GGA Exchange-Correlation Functional

    J.-D. Chai and M. Head-Gordon, Phys. Chem. Chem. Phys. 10, 6615 (2008)

    Deriv               =              1
    GGA                 =           TRUE
    Meta                =          FALSE

    Exchange Hybrid     =           TRUE
    MP2 Hybrid          =          FALSE

   => Exchange-Correlation Functionals <=

    1.0000   wB97D range-separated functional

   => Exact (HF) Exchange <=

    0.7780            HF,LR [omega = 0.2000]
    0.2220               HF 

   => Molecular Quadrature <=

    Radial Scheme          =       TREUTLER
    Pruning Scheme         =           FLAT
    Nuclear Scheme         =       TREUTLER

    BS radius alpha        =              1
    Pruning alpha          =              1
    Radial Points          =             75
    Spherical Points       =            302
    Total Points           =         131918
    Total Blocks           =           1058
    Max Points             =            256
    Max Functions          =             38


  -Total Gradient:
     Atom            X                  Y                   Z
    ------   -----------------  -----------------  -----------------
       1       -0.000686181225    -0.007122074392    -0.016784371408
       2       -0.001340607593     0.001782931464     0.000958102645
       3       -0.000570076249    -0.000250463463    -0.000156728898
       4       -0.001164054267     0.000150058427    -0.000160979426
       5       -0.001034257569    -0.000858523490    -0.000057435909
       6        0.004730859446     0.006303753634     0.016219334805


*** tstop() called on node35.bme.utexas.edu at Mon Oct  5 15:31:38 2020
Module time:
	user time   =       9.22 seconds =       0.15 minutes
	system time =       0.72 seconds =       0.01 minutes
	total time  =          2 seconds =       0.03 minutes
Total time:
	user time   =      82.05 seconds =       1.37 minutes
	system time =       5.57 seconds =       0.09 minutes
	total time  =         12 seconds =       0.20 minutes

			-----------------------------------------
			 OPTKING 2.0: for geometry optimizations 
			  - R.A. King,  Bethel University        
			-----------------------------------------

	Previous internal coordinate definitions found.
	---Fragment 1 Geometry and Gradient---
	 O           1.3058572478       -0.0001116924       -0.0996401908
	 C          -1.3687424070       -0.0333836567        0.0047859805
	 H          -2.0978119043       -1.5317970928        1.2497524126
	 H          -2.0503535351       -0.4129948770       -1.9084633583
	 H          -2.1823819239        1.7762301001        0.6192191814
	 H           1.9030265576        0.5678279903        1.5638680493
	            -0.0006861812       -0.0071220744       -0.0167843714
	            -0.0013406076        0.0017829315        0.0009581026
	            -0.0005700762       -0.0002504635       -0.0001567289
	            -0.0011640543        0.0001500584       -0.0001609794
	            -0.0010342576       -0.0008585235       -0.0000574359
	             0.0047308594        0.0063037536        0.0162193348

	---Fragment 1 Intrafragment Coordinates---
	 - Coordinate -           - BOHR/RAD -       - ANG/DEG -
	 R(1,2)           =         2.676844	       1.416525
	 R(1,6)           =         1.856455	       0.982394
	 R(2,3)           =         2.080079	       1.100730
	 R(2,4)           =         2.066209	       1.093391
	 R(2,5)           =         2.077075	       1.099141
	 B(1,2,3)         =         1.963307	     112.489222
	 B(1,2,4)         =         1.871057	     107.203646
	 B(1,2,5)         =         1.973717	     113.085626
	 B(2,1,6)         =         1.865283	     106.872816
	 B(3,2,4)         =         1.882035	     107.832678
	 B(3,2,5)         =         1.889412	     108.255357
	 B(4,2,5)         =         1.880482	     107.743699
	 D(3,2,1,6)       =        -1.207485	     -69.183813
	 D(4,2,1,6)       =         3.009771	     172.447150
	 D(5,2,1,6)       =         0.939711	      53.841502

	Current energy   :      -115.6767232484

	Energy change for the previous step:
		Projected    :        -0.0030388806
		Actual       :        -0.0003765568
	Energy ratio indicates iffy step: Trust radius decreased to 1.250e-01.


	Performing BFGS update.
	Previous computed or guess Hessian on step 1.
	Steps to be used in Hessian update: 2 1
	Taking RFO optimization step.
	Going to follow RFO solution 1.
	Using RFO vector 1.

	Determining step-restricting scale parameter for RS-RFO.
	Maximum step size allowed    0.12500

	 Iter      |step|        alpha        rfo_root  
	------------------------------------------------
	    0     0.19297       1.00000           1
	    1     0.14468       2.42724           1
	    2     0.12774       3.24258           1
	    3     0.12507       3.39593           1
	    4     0.12500       3.40005           1
	------------------------------------------------
	Norm of target step-size    0.12500
	Projected energy change by RFO approximation:         0.0005199961

	Back-transformation to cartesian coordinates...
	Successfully converged to displaced geometry.

	--- Internal Coordinate Step in ANG or DEG, aJ/ANG or AJ/DEG ---
	 ---------------------------------------------------------------------------
	   Coordinate                Previous        Force       Change         New 
	   ----------                --------       ------       ------       ------
	    1 R(1,2)          =      1.416525    -0.033617    -0.003521     1.413004
	    2 R(1,6)          =      0.982394    -0.148091    -0.018075     0.964319
	    3 R(2,3)          =      1.100730    -0.002315    -0.000748     1.099982
	    4 R(2,4)          =      1.093391    -0.004143    -0.001158     1.092233
	    5 R(2,5)          =      1.099141     0.002982     0.000175     1.099316
	    6 B(1,2,3)        =    112.489222    -0.000005     0.051234   112.540456
	    7 B(1,2,4)        =    107.203646    -0.000086    -0.301392   106.902254
	    8 B(1,2,5)        =    113.085626    -0.000120    -0.238160   112.847467
	    9 B(2,1,6)        =    106.872816     0.000152     0.629791   107.502607
	   10 B(3,2,4)        =    107.832678     0.000067     0.143054   107.975732
	   11 B(3,2,5)        =    108.255357     0.000071     0.164218   108.419575
	   12 B(4,2,5)        =    107.743699     0.000084     0.200096   107.943795
	   13 D(3,2,1,6)      =    -69.183813     0.000010     3.913044   -65.270769
	   14 D(4,2,1,6)      =    172.447150     0.000004     3.900457   176.347607
	   15 D(5,2,1,6)      =     53.841502     0.000009     3.987957    57.829460
	 ---------------------------------------------------------------------------
	Successfully symmetrized geometry.

  ==> Convergence Check <==

  Measures of convergence in internal coordinates in au.
  Criteria marked as inactive (o), active & met (*), and active & unmet ( ).
  ---------------------------------------------------------------------------------------------
   Step     Total Energy     Delta E     MAX Force     RMS Force      MAX Disp      RMS Disp   
  ---------------------------------------------------------------------------------------------
    Convergence Criteria             o    2.50e-03 *    1.70e-03 *    1.00e-02 *    6.70e-03 *
  ---------------------------------------------------------------------------------------------
      3    -115.67672325   -3.77e-04 o    1.80e-02      4.84e-03      6.96e-02      3.22e-02    ~
  ---------------------------------------------------------------------------------------------


  **** Optimization has failed! (in 3 steps) ****

  ==> Optimization Summary <==

  Measures of convergence in internal coordinates in au.
  --------------------------------------------------------------------------------------------------------------- ~
   Step         Total Energy             Delta E       MAX Force       RMS Force        MAX Disp        RMS Disp  ~
  --------------------------------------------------------------------------------------------------------------- ~
      1    -115.674529690685   -115.674529690685      0.01438132      0.00612416      0.15756386      0.07141512  ~
      2    -115.676346691597     -0.001817000912      0.00661933      0.00241398      0.26318328      0.11708693  ~
      3    -115.676723248367     -0.000376556770      0.01797500      0.00484031      0.06960299      0.03220163  ~
  --------------------------------------------------------------------------------------------------------------- ~

	Writing optimization data to binary file.
			--------------------------
			 OPTKING Finished Execution 
			--------------------------

    Structure for next step:
    Molecular point group: c1
    Full point group: C1

    Geometry (in Angstrom), charge = 0, multiplicity = 1:

    O            0.688122402453     0.011561312829    -0.060963719580
    C           -0.722525157874    -0.025933409347     0.011479383433
    H           -1.089591384681    -0.821467658785     0.676572642999
    H           -1.086842101583    -0.234723181544    -0.996812957060
    H           -1.158674817065     0.928786530077     0.338249885470
    H            1.017089693106     0.252702548076     0.812845846546

	Cleaning optimization helper files.

PsiException: Could not converge geometry optimization in 3 iterations.

gradient() will perform analytic gradient computation.

*** tstart() called on node35.bme.utexas.edu
*** at Mon Oct  5 15:31:38 2020

   => Loading Basis Set <=

    Name: 6-31G*
    Role: ORBITAL
    Keyword: BASIS
    atoms 1   entry O          line   145 file /home/bdw2292/miniconda3/envs/p4env/share/psi4/basis/6-31gs.gbs 
    atoms 2   entry C          line   111 file /home/bdw2292/miniconda3/envs/p4env/share/psi4/basis/6-31gs.gbs 
    atoms 3-6 entry H          line    44 file /home/bdw2292/miniconda3/envs/p4env/share/psi4/basis/6-31gs.gbs 


         ---------------------------------------------------------
                                   SCF
               by Justin Turney, Rob Parrish, Andy Simmonett
                          and Daniel G. A. Smith
                              RKS Reference
                        8 Threads,  95367 MiB Core
         ---------------------------------------------------------

  ==> Geometry <==

    Molecular point group: c1
    Full point group: C1

    Geometry (in Angstrom), charge = 0, multiplicity = 1:

       Center              X                  Y                   Z               Mass       
    ------------   -----------------  -----------------  -----------------  -----------------
         O            0.686697677108    -0.034200678569    -0.025798504454    15.994914619570
         C           -0.728504322892    -0.005875678569    -0.018611504454    12.000000000000
         H           -1.093317322892    -0.766776678569     0.684755495546     1.007825032230
         H           -1.087065322892    -0.163464678569    -1.044700504454     1.007825032230
         H           -1.051367322892     0.987112321431     0.326577495546     1.007825032230
         H            1.007535677108     0.555879321431     0.664412495546     1.007825032230

  Running in c1 symmetry.

  Rotational constants: A =      4.16589  B =      0.83734  C =      0.80844 [cm^-1]
  Rotational constants: A = 124890.13744  B =  25102.75947  C =  24236.34680 [MHz]
  Nuclear repulsion =   40.366108367468996

  Charge       = 0
  Multiplicity = 1
  Electrons    = 18
  Nalpha       = 9
  Nbeta        = 9

  ==> Algorithm <==

  SCF Algorithm Type is DF.
  DIIS enabled.
  MOM disabled.
  Fractional occupation disabled.
  Guess Type is SAD.
  Energy threshold   = 1.00e-08
  Density threshold  = 1.00e-08
  Integral threshold = 0.00e+00

  ==> Primary Basis <==

  Basis Set: 6-31G*
    Blend: 6-31G*
    Number of shells: 20
    Number of basis function: 38
    Number of Cartesian functions: 38
    Spherical Harmonics?: false
    Max angular momentum: 2

  ==> DFT Potential <==

   => Composite Functional: WB97X-D <= 

    wB97X-D Hyb-GGA Exchange-Correlation Functional

    J.-D. Chai and M. Head-Gordon, Phys. Chem. Chem. Phys. 10, 6615 (2008)

    Deriv               =              1
    GGA                 =           TRUE
    Meta                =          FALSE

    Exchange Hybrid     =           TRUE
    MP2 Hybrid          =          FALSE

   => Exchange-Correlation Functionals <=

    1.0000   wB97D range-separated functional

   => Exact (HF) Exchange <=

    0.7780            HF,LR [omega = 0.2000]
    0.2220               HF 

   => Molecular Quadrature <=

    Radial Scheme          =       TREUTLER
    Pruning Scheme         =           FLAT
    Nuclear Scheme         =       TREUTLER

    BS radius alpha        =              1
    Pruning alpha          =              1
    Radial Points          =             75
    Spherical Points       =            302
    Total Points           =         131904
    Total Blocks           =           1054
    Max Points             =            256
    Max Functions          =             38

   => WB97X-D: Empirical Dispersion <=

    Chai and Head-Gordon Dispersion Correction
    Chai, J.-D.; Head-Gordon, M. (2010), J. Chem. Phys., 132: 6615-6620

        s6 =       1.000000

   => Loading Basis Set <=

    Name: (6-31G* AUX)
    Role: JKFIT
    Keyword: DF_BASIS_SCF
    atoms 1   entry O          line   221 file /home/bdw2292/miniconda3/envs/p4env/share/psi4/basis/cc-pvdz-jkfit.gbs 
    atoms 2   entry C          line   121 file /home/bdw2292/miniconda3/envs/p4env/share/psi4/basis/cc-pvdz-jkfit.gbs 
    atoms 3-6 entry H          line    51 file /home/bdw2292/miniconda3/envs/p4env/share/psi4/basis/cc-pvdz-jkfit.gbs 

  ==> Pre-Iterations <==

   -------------------------------------------------------
    Irrep   Nso     Nmo     Nalpha   Nbeta   Ndocc  Nsocc
   -------------------------------------------------------
     A         38      38       0       0       0       0
   -------------------------------------------------------
    Total      38      38       9       9       9       0
   -------------------------------------------------------

  ==> Integral Setup <==

  ==> DiskDFJK: Density-Fitted J/K Matrices <==

    J tasked:                  Yes
    K tasked:                  Yes
    wK tasked:                 Yes
    Omega:               2.000E-01
    OpenMP threads:              8
    Integrals threads:           8
    Memory [MiB]:            71385
    Algorithm:                Core
    Integral Cache:           NONE
    Schwarz Cutoff:          1E-12
    Fitting Condition:       1E-10

   => Auxiliary Basis Set <=

  Basis Set: (6-31G* AUX)
    Blend: CC-PVDZ-JKFIT
    Number of shells: 84
    Number of basis function: 262
    Number of Cartesian functions: 262
    Spherical Harmonics?: false
    Max angular momentum: 3

  Cached 100.0% of DFT collocation blocks in 0.136 [GiB].

  Minimum eigenvalue in the overlap matrix is 9.3452515030E-03.
  Using Symmetric Orthogonalization.

  SCF Guess: Superposition of Atomic Densities via on-the-fly atomic UHF.

  ==> Iterations <==

                           Total Energy        Delta E     RMS |[F,P]|

   @DF-RKS iter SAD:  -115.13604819633402   -1.15136e+02   0.00000e+00 
   @DF-RKS iter   1:  -115.56808388844567   -4.32036e-01   1.31900e-02 DIIS
   @DF-RKS iter   2:  -115.59045087892041   -2.23670e-02   1.27430e-02 DIIS
   @DF-RKS iter   3:  -115.67374149445124   -8.32906e-02   1.11819e-03 DIIS
   @DF-RKS iter   4:  -115.67442976625313   -6.88272e-04   3.72913e-04 DIIS
   @DF-RKS iter   5:  -115.67452557027173   -9.58040e-05   6.94905e-05 DIIS
   @DF-RKS iter   6:  -115.67452960180552   -4.03153e-06   6.93124e-06 DIIS
   @DF-RKS iter   7:  -115.67452968811639   -8.63109e-08   1.04788e-06 DIIS
   @DF-RKS iter   8:  -115.67452969054857   -2.43217e-09   2.36679e-07 DIIS
   @DF-RKS iter   9:  -115.67452969067803   -1.29461e-10   5.78392e-08 DIIS
   @DF-RKS iter  10:  -115.67452969068525   -7.21911e-12   1.10244e-08 DIIS
   @DF-RKS iter  11:  -115.67452969068526   -1.42109e-14   1.85915e-09 DIIS
  Energy and wave function converged.


  ==> Post-Iterations <==

    Orbital Energies [Eh]
    ---------------------

    Doubly Occupied:                                                      

       1A    -19.257024     2A    -10.333966     3A     -1.110457  
       4A     -0.772220     5A     -0.588309     6A     -0.525448  
       7A     -0.506343     8A     -0.408351     9A     -0.344849  

    Virtual:                                                              

      10A      0.161117    11A      0.220789    12A      0.251635  
      13A      0.262529    14A      0.296431    15A      0.631571  
      16A      0.654262    17A      0.667631    18A      0.894722  
      19A      0.947363    20A      0.961883    21A      0.998147  
      22A      1.041263    23A      1.066456    24A      1.112457  
      25A      1.224160    26A      1.552719    27A      1.573100  
      28A      1.661689    29A      1.840821    30A      2.164179  
      31A      2.205483    32A      2.275012    33A      2.408012  
      34A      2.458100    35A      2.575835    36A      2.892784  
      37A      3.811750    38A      4.318672  

    Final Occupation by Irrep:
              A 
    DOCC [     9 ]

  @DF-RKS Final Energy:  -115.67452969068526

   => Energetics <=

    Nuclear Repulsion Energy =             40.3661083674689962
    One-Electron Energy =                -237.1682147644438885
    Two-Electron Energy =                  91.7877753182999356
    DFT Exchange-Correlation Energy =     -10.6593827488619546
    Empirical Dispersion Energy =          -0.0008158631483504
    VV10 Nonlocal Energy =                  0.0000000000000000
    Total Energy =                       -115.6745296906852616

Computation Completed


Properties will be evaluated at   0.000000,   0.000000,   0.000000 [a0]

Properties computed using the SCF density matrix

  Nuclear Dipole Moment: [e a0]
     X:    -2.0818      Y:     0.5743      Z:     0.5915

  Electronic Dipole Moment: [e a0]
     X:     1.7159      Y:    -0.1482      Z:    -0.1422

  Dipole Moment: [e a0]
     X:    -0.3660      Y:     0.4260      Z:     0.4493     Total:     0.7192

  Dipole Moment: [D]
     X:    -0.9302      Y:     1.0828      Z:     1.1420     Total:     1.8281


*** tstop() called on node35.bme.utexas.edu at Mon Oct  5 15:31:41 2020
Module time:
	user time   =      22.62 seconds =       0.38 minutes
	system time =       1.21 seconds =       0.02 minutes
	total time  =          3 seconds =       0.05 minutes
Total time:
	user time   =     104.92 seconds =       1.75 minutes
	system time =       6.81 seconds =       0.11 minutes
	total time  =         15 seconds =       0.25 minutes

*** tstart() called on node35.bme.utexas.edu
*** at Mon Oct  5 15:31:41 2020


         ------------------------------------------------------------
                                   SCF GRAD                          
                          Rob Parrish, Justin Turney,                
                       Andy Simmonett, and Alex Sokolov              
         ------------------------------------------------------------

  ==> Geometry <==

    Molecular point group: c1
    Full point group: C1

    Geometry (in Angstrom), charge = 0, multiplicity = 1:

       Center              X                  Y                   Z               Mass       
    ------------   -----------------  -----------------  -----------------  -----------------
         O            0.686697677108    -0.034200678569    -0.025798504454    15.994914619570
         C           -0.728504322892    -0.005875678569    -0.018611504454    12.000000000000
         H           -1.093317322892    -0.766776678569     0.684755495546     1.007825032230
         H           -1.087065322892    -0.163464678569    -1.044700504454     1.007825032230
         H           -1.051367322892     0.987112321431     0.326577495546     1.007825032230
         H            1.007535677108     0.555879321431     0.664412495546     1.007825032230

  Nuclear repulsion =   40.366108367468996

  ==> Basis Set <==

  Basis Set: 6-31G*
    Blend: 6-31G*
    Number of shells: 20
    Number of basis function: 38
    Number of Cartesian functions: 38
    Spherical Harmonics?: false
    Max angular momentum: 2

  ==> DFJKGrad: Density-Fitted SCF Gradients <==

    Gradient:                    1
    J tasked:                  Yes
    K tasked:                  Yes
    wK tasked:                 Yes
    Omega:               2.000E-01
    OpenMP threads:              8
    Integrals threads:           8
    Memory [MiB]:            71525
    Schwarz Cutoff:          0E+00
    Fitting Condition:       1E-10

   => Auxiliary Basis Set <=

  Basis Set: (6-31G* AUX)
    Blend: CC-PVDZ-JKFIT
    Number of shells: 84
    Number of basis function: 262
    Number of Cartesian functions: 262
    Spherical Harmonics?: false
    Max angular momentum: 3

  ==> DFT Potential <==

   => Composite Functional: WB97X-D <= 

    wB97X-D Hyb-GGA Exchange-Correlation Functional

    J.-D. Chai and M. Head-Gordon, Phys. Chem. Chem. Phys. 10, 6615 (2008)

    Deriv               =              1
    GGA                 =           TRUE
    Meta                =          FALSE

    Exchange Hybrid     =           TRUE
    MP2 Hybrid          =          FALSE

   => Exchange-Correlation Functionals <=

    1.0000   wB97D range-separated functional

   => Exact (HF) Exchange <=

    0.7780            HF,LR [omega = 0.2000]
    0.2220               HF 

   => Molecular Quadrature <=

    Radial Scheme          =       TREUTLER
    Pruning Scheme         =           FLAT
    Nuclear Scheme         =       TREUTLER

    BS radius alpha        =              1
    Pruning alpha          =              1
    Radial Points          =             75
    Spherical Points       =            302
    Total Points           =         131904
    Total Blocks           =           1054
    Max Points             =            256
    Max Functions          =             38


  -Total Gradient:
     Atom            X                  Y                   Z
    ------   -----------------  -----------------  -----------------
       1       -0.006099233143     0.001084670192     0.006730027167
       2       -0.011840340162    -0.009537738603    -0.009190678493
       3        0.007885161355     0.000407561484     0.005110351687
       4        0.000133352227     0.003181893337    -0.005493362605
       5        0.008534434029     0.002592397784     0.002578060158
       6        0.001434575813     0.002305604574     0.000346457347


*** tstop() called on node35.bme.utexas.edu at Mon Oct  5 15:31:42 2020
Module time:
	user time   =       9.42 seconds =       0.16 minutes
	system time =       0.66 seconds =       0.01 minutes
	total time  =          1 seconds =       0.02 minutes
Total time:
	user time   =     114.36 seconds =       1.91 minutes
	system time =       7.47 seconds =       0.12 minutes
	total time  =         16 seconds =       0.27 minutes

			-----------------------------------------
			 OPTKING 2.0: for geometry optimizations 
			  - R.A. King,  Bethel University        
			-----------------------------------------

	Internal coordinates to be generated automatically.
	Detected frag 1 with atoms:  1 2 3 4 5 6
	---Fragment 1 Bond Connectivity---
	 1 : 2 6
	 2 : 1 3 4 5
	 3 : 2
	 4 : 2
	 5 : 2
	 6 : 1

	Assuming in current code that numbering for constraints corresponds to unified fragment.
	---Fragment 1 Geometry and Gradient---
	 O           1.2976705407       -0.0646299158       -0.0487521079
	 C          -1.3766736515       -0.0111034233       -0.0351706462
	 H          -2.0660703085       -1.4489979219        1.2940003495
	 H          -2.0542557407       -0.3089034737       -1.9741978365
	 H          -1.9867962975        1.8653719426        0.6171420253
	 H           1.9039664914        1.0504596763        1.2555576509
	            -0.0060992331        0.0010846702        0.0067300272
	            -0.0118403402       -0.0095377386       -0.0091906785
	             0.0078851614        0.0004075615        0.0051103517
	             0.0001333522        0.0031818933       -0.0054933626
	             0.0085344340        0.0025923978        0.0025780602
	             0.0014345758        0.0023056046        0.0003464573

	The number of coordinates has changed.  Ignoring old data.
	---Fragment 1 Intrafragment Coordinates---
	 - Coordinate -           - BOHR/RAD -       - ANG/DEG -
	 R(1,X)           =         1.297671	       0.686698
	 R(1,Y)           =        -0.064630	      -0.034201
	 R(1,Z)           =        -0.048752	      -0.025799
	 R(2,X)           =        -1.376674	      -0.728504
	 R(2,Y)           =        -0.011103	      -0.005876
	 R(2,Z)           =        -0.035171	      -0.018612
	 R(3,X)           =        -2.066070	      -1.093317
	 R(3,Y)           =        -1.448998	      -0.766777
	 R(3,Z)           =         1.294000	       0.684755
	 R(4,X)           =        -2.054256	      -1.087065
	 R(4,Y)           =        -0.308903	      -0.163465
	 R(4,Z)           =        -1.974198	      -1.044701
	 R(5,X)           =        -1.986796	      -1.051367
	 R(5,Y)           =         1.865372	       0.987112
	 R(5,Z)           =         0.617142	       0.326577
	 R(6,X)           =         1.903966	       1.007536
	 R(6,Y)           =         1.050460	       0.555879
	 R(6,Z)           =         1.255558	       0.664412

	Current energy   :      -115.6745296907

	Using model Hessian from Lindh (1995).
[...]
    Integrals threads:           8
    Memory [MiB]:            71525
    Schwarz Cutoff:          0E+00
    Fitting Condition:       1E-10

   => Auxiliary Basis Set <=

  Basis Set: (6-31G* AUX)
    Blend: CC-PVDZ-JKFIT
    Number of shells: 84
    Number of basis function: 262
    Number of Cartesian functions: 262
    Spherical Harmonics?: false
    Max angular momentum: 3

  ==> DFT Potential <==

   => Composite Functional: WB97X-D <= 

    wB97X-D Hyb-GGA Exchange-Correlation Functional

    J.-D. Chai and M. Head-Gordon, Phys. Chem. Chem. Phys. 10, 6615 (2008)

    Deriv               =              1
    GGA                 =           TRUE
    Meta                =          FALSE

    Exchange Hybrid     =           TRUE
    MP2 Hybrid          =          FALSE

   => Exchange-Correlation Functionals <=

    1.0000   wB97D range-separated functional

   => Exact (HF) Exchange <=

    0.7780            HF,LR [omega = 0.2000]
    0.2220               HF 

   => Molecular Quadrature <=

    Radial Scheme          =       TREUTLER
    Pruning Scheme         =           FLAT
    Nuclear Scheme         =       TREUTLER

    BS radius alpha        =              1
    Pruning alpha          =              1
    Radial Points          =             75
    Spherical Points       =            302
    Total Points           =         131921
    Total Blocks           =           1051
    Max Points             =            256
    Max Functions          =             38


  -Total Gradient:
     Atom            X                  Y                   Z
    ------   -----------------  -----------------  -----------------
       1        0.003701951860    -0.002060394899     0.001746902582
       2       -0.005221840845    -0.002241382457    -0.001195942890
       3        0.001233749611     0.000025862782     0.000107574309
       4       -0.000310525882     0.001237339147    -0.000882760379
       5       -0.000075617448     0.001226669728     0.000865449724
       6        0.000490455216     0.001820532438    -0.000634558968


*** tstop() called on node35.bme.utexas.edu at Mon Oct  5 15:31:46 2020
Module time:
	user time   =       9.21 seconds =       0.15 minutes
	system time =       0.66 seconds =       0.01 minutes
	total time  =          2 seconds =       0.03 minutes
Total time:
	user time   =     139.58 seconds =       2.33 minutes
	system time =       9.08 seconds =       0.15 minutes
	total time  =         20 seconds =       0.33 minutes

			-----------------------------------------
			 OPTKING 2.0: for geometry optimizations 
			  - R.A. King,  Bethel University        
			-----------------------------------------

	Previous internal coordinate definitions found.
	---Fragment 1 Geometry and Gradient---
	 O           1.3059108322       -0.0593763678       -0.0793589859
	 C          -1.3740750917       -0.0047750142        0.0012179084
	 H          -2.1253960375       -1.4592513785        1.2780526679
	 H          -2.0651731737       -0.3677431380       -1.9130640661
	 H          -2.1070224073        1.8460849740        0.6039871243
	 H           1.9327157515        0.9801108625        1.2760075428
	             0.0037019519       -0.0020603949        0.0017469026
	            -0.0052218408       -0.0022413825       -0.0011959429
	             0.0012337496        0.0000258628        0.0001075743
	            -0.0003105259        0.0012373391       -0.0008827604
	            -0.0000756174        0.0012266697        0.0008654497
	             0.0004904552        0.0018205324       -0.0006345590

	
Fatal Error: PSIO Error
Error occurred in file: /scratch/psilocaluser/conda-builds/psi4-multiout_1557940846948/work/psi4/src/psi4/libpsio/error.cc on line: 128
The most recent 5 function calls were:

psi::PSIO::open(unsigned long, int)

    Structure for next step:
    Molecular point group: c1
    Full point group: C1

    Geometry (in Angstrom), charge = 0, multiplicity = 1:

    O            0.691058251569    -0.031420620669    -0.041994966806
    C           -0.727129224280    -0.002526828670     0.000644489370
    H           -1.124711146718    -0.772202574140     0.676316345911
    H           -1.092842579593    -0.194601288009    -1.012349906314
    H           -1.114988240329     0.976906097194     0.319616221701
    H            1.022749130396     0.518652332367     0.675234112287

gradient() will perform analytic gradient computation.

*** tstart() called on node35.bme.utexas.edu
*** at Mon Oct  5 15:31:46 2020

   => Loading Basis Set <=

    Name: 6-31G*
    Role: ORBITAL
    Keyword: BASIS
    atoms 1   entry O          line   145 file /home/bdw2292/miniconda3/envs/p4env/share/psi4/basis/6-31gs.gbs 
    atoms 2   entry C          line   111 file /home/bdw2292/miniconda3/envs/p4env/share/psi4/basis/6-31gs.gbs 
    atoms 3-6 entry H          line    44 file /home/bdw2292/miniconda3/envs/p4env/share/psi4/basis/6-31gs.gbs 


         ---------------------------------------------------------
                                   SCF
               by Justin Turney, Rob Parrish, Andy Simmonett
                          and Daniel G. A. Smith
                              RKS Reference
                        8 Threads,  95367 MiB Core
         ---------------------------------------------------------

  ==> Geometry <==

    Molecular point group: c1
    Full point group: C1

    Geometry (in Angstrom), charge = 0, multiplicity = 1:

       Center              X                  Y                   Z               Mass       
    ------------   -----------------  -----------------  -----------------  -----------------
         O            0.691058251569    -0.031420620669    -0.041994966806    15.994914619570
         C           -0.727129224280    -0.002526828670     0.000644489370    12.000000000000
         H           -1.124711146718    -0.772202574140     0.676316345911     1.007825032230
         H           -1.092842579593    -0.194601288009    -1.012349906314     1.007825032230
         H           -1.114988240329     0.976906097194     0.319616221701     1.007825032230
         H            1.022749130396     0.518652332367     0.675234112287     1.007825032230

  Running in c1 symmetry.

  Rotational constants: A =      4.24930  B =      0.82691  C =      0.79784 [cm^-1]
  Rotational constants: A = 127390.81175  B =  24790.24666  C =  23918.56286 [MHz]
  Nuclear repulsion =   40.255264647732993

  Charge       = 0
  Multiplicity = 1
  Electrons    = 18
  Nalpha       = 9
  Nbeta        = 9

  ==> Algorithm <==

  SCF Algorithm Type is DF.
  DIIS enabled.
  MOM disabled.
  Fractional occupation disabled.
  Guess Type is READ.
  Energy threshold   = 1.00e-08
  Density threshold  = 1.00e-08
  Integral threshold = 0.00e+00

  ==> Primary Basis <==

  Basis Set: 6-31G*
    Blend: 6-31G*
    Number of shells: 20
    Number of basis function: 38
    Number of Cartesian functions: 38
    Spherical Harmonics?: false
    Max angular momentum: 2

  ==> DFT Potential <==

   => Composite Functional: WB97X-D <= 

    wB97X-D Hyb-GGA Exchange-Correlation Functional

    J.-D. Chai and M. Head-Gordon, Phys. Chem. Chem. Phys. 10, 6615 (2008)

    Deriv               =              1
    GGA                 =           TRUE
    Meta                =          FALSE

    Exchange Hybrid     =           TRUE
    MP2 Hybrid          =          FALSE

   => Exchange-Correlation Functionals <=

    1.0000   wB97D range-separated functional

   => Exact (HF) Exchange <=

    0.7780            HF,LR [omega = 0.2000]
    0.2220               HF 

   => Molecular Quadrature <=

    Radial Scheme          =       TREUTLER
    Pruning Scheme         =           FLAT
    Nuclear Scheme         =       TREUTLER

    BS radius alpha        =              1
    Pruning alpha          =              1
    Radial Points          =             75
    Spherical Points       =            302
    Total Points           =         131921
    Total Blocks           =           1051
    Max Points             =            256
    Max Functions          =             38

   => WB97X-D: Empirical Dispersion <=

    Chai and Head-Gordon Dispersion Correction
    Chai, J.-D.; Head-Gordon, M. (2010), J. Chem. Phys., 132: 6615-6620

        s6 =       1.000000

   => Loading Basis Set <=

    Name: (6-31G* AUX)
    Role: JKFIT
    Keyword: DF_BASIS_SCF
    atoms 1   entry O          line   221 file /home/bdw2292/miniconda3/envs/p4env/share/psi4/basis/cc-pvdz-jkfit.gbs 
    atoms 2   entry C          line   121 file /home/bdw2292/miniconda3/envs/p4env/share/psi4/basis/cc-pvdz-jkfit.gbs 
    atoms 3-6 entry H          line    51 file /home/bdw2292/miniconda3/envs/p4env/share/psi4/basis/cc-pvdz-jkfit.gbs 

   => Loading Basis Set <=

    Name: 6-31G*
    Role: ORBITAL
    Keyword: BASIS
    atoms 1   entry O          line   145 file /home/bdw2292/miniconda3/envs/p4env/share/psi4/basis/6-31gs.gbs 
    atoms 2   entry C          line   111 file /home/bdw2292/miniconda3/envs/p4env/share/psi4/basis/6-31gs.gbs 
    atoms 3-6 entry H          line    44 file /home/bdw2292/miniconda3/envs/p4env/share/psi4/basis/6-31gs.gbs 

  Reading orbitals from file 180, no projection.

  ==> Pre-Iterations <==

   -------------------------------------------------------
    Irrep   Nso     Nmo     Nalpha   Nbeta   Ndocc  Nsocc
   -------------------------------------------------------
     A         38      38       0       0       0       0
   -------------------------------------------------------
    Total      38      38       9       9       9       0
   -------------------------------------------------------

  ==> Integral Setup <==

  ==> DiskDFJK: Density-Fitted J/K Matrices <==

    J tasked:                  Yes
    K tasked:                  Yes
    wK tasked:                 Yes
    Omega:               2.000E-01
    OpenMP threads:              8
    Integrals threads:           8
    Memory [MiB]:            71385
    Algorithm:                Core
    Integral Cache:           NONE
    Schwarz Cutoff:          1E-12
    Fitting Condition:       1E-10

   => Auxiliary Basis Set <=

  Basis Set: (6-31G* AUX)
    Blend: CC-PVDZ-JKFIT
    Number of shells: 84
    Number of basis function: 262
    Number of Cartesian functions: 262
    Spherical Harmonics?: false
    Max angular momentum: 3

  Cached 100.0% of DFT collocation blocks in 0.136 [GiB].

  Minimum eigenvalue in the overlap matrix is 9.7417715948E-03.
  Using Symmetric Orthogonalization.

  SCF Guess: Orbitals guess was supplied from a previous computation.

  ==> Iterations <==

                           Total Energy        Delta E     RMS |[F,P]|

   @DF-RKS iter   0:  -115.67623976053805   -1.15676e+02   6.66505e-10 
   @DF-RKS iter   1:  -115.67623976053801    4.26326e-14   2.31706e-10 DIIS
  Energy and wave function converged.


  ==> Post-Iterations <==

    Orbital Energies [Eh]
    ---------------------

    Doubly Occupied:                                                      

       1A    -19.261184     2A    -10.333759     3A     -1.111167  
       4A     -0.774390     5A     -0.590077     6A     -0.521068  
       7A     -0.505154     8A     -0.412951     9A     -0.347585  

    Virtual:                                                              

      10A      0.164586    11A      0.219623    12A      0.249394  
      13A      0.262700    14A      0.296728    15A      0.628804  
      16A      0.656143    17A      0.664328    18A      0.893018  
      19A      0.948903    20A      0.964334    21A      0.999349  
      22A      1.045954    23A      1.067559    24A      1.112670  
      25A      1.222225    26A      1.550490    27A      1.580961  
      28A      1.654575    29A      1.837099    30A      2.142421  
      31A      2.197990    32A      2.240253    33A      2.430279  
      34A      2.466977    35A      2.575059    36A      2.888289  
      37A      3.804520    38A      4.317954  

    Final Occupation by Irrep:
              A 
    DOCC [     9 ]

  @DF-RKS Final Energy:  -115.67623976053801

   => Energetics <=

    Nuclear Repulsion Energy =             40.2552646477329930
    One-Electron Energy =                -236.9308969950602091
    Two-Electron Energy =                  91.6570204840709124
    DFT Exchange-Correlation Energy =     -10.6568048349413438
    Empirical Dispersion Energy =          -0.0008230623403555
    VV10 Nonlocal Energy =                  0.0000000000000000
    Total Energy =                       -115.6762397605380102

Computation Completed


Properties will be evaluated at   0.000000,   0.000000,   0.000000 [a0]

Properties computed using the SCF density matrix

  Nuclear Dipole Moment: [e a0]
     X:    -2.1620      Y:     0.4955      Z:     0.6174

  Electronic Dipole Moment: [e a0]
     X:     1.8047      Y:    -0.1020      Z:    -0.1420

  Dipole Moment: [e a0]
     X:    -0.3574      Y:     0.3936      Z:     0.4754     Total:     0.7132

  Dipole Moment: [D]
     X:    -0.9084      Y:     1.0003      Z:     1.2084     Total:     1.8128


*** tstop() called on node35.bme.utexas.edu at Mon Oct  5 15:31:47 2020
Module time:
	user time   =      10.94 seconds =       0.18 minutes
	system time =       0.77 seconds =       0.01 minutes
	total time  =          1 seconds =       0.02 minutes
Total time:
	user time   =     150.73 seconds =       2.51 minutes
	system time =       9.88 seconds =       0.16 minutes
	total time  =         21 seconds =       0.35 minutes

*** tstart() called on node35.bme.utexas.edu
*** at Mon Oct  5 15:31:47 2020


         ------------------------------------------------------------
                                   SCF GRAD                          
                          Rob Parrish, Justin Turney,                
                       Andy Simmonett, and Alex Sokolov              
         ------------------------------------------------------------

  ==> Geometry <==

    Molecular point group: c1
    Full point group: C1

    Geometry (in Angstrom), charge = 0, multiplicity = 1:

       Center              X                  Y                   Z               Mass       
    ------------   -----------------  -----------------  -----------------  -----------------
         O            0.691058251569    -0.031420620669    -0.041994966806    15.994914619570
         C           -0.727129224280    -0.002526828670     0.000644489370    12.000000000000
         H           -1.124711146718    -0.772202574140     0.676316345911     1.007825032230
         H           -1.092842579593    -0.194601288009    -1.012349906314     1.007825032230
         H           -1.114988240329     0.976906097194     0.319616221701     1.007825032230
         H            1.022749130396     0.518652332367     0.675234112287     1.007825032230

  Nuclear repulsion =   40.255264647732993

  ==> Basis Set <==

  Basis Set: 6-31G*
    Blend: 6-31G*
    Number of shells: 20
    Number of basis function: 38
    Number of Cartesian functions: 38
    Spherical Harmonics?: false
    Max angular momentum: 2

  ==> DFJKGrad: Density-Fitted SCF Gradients <==

    Gradient:                    1
    J tasked:                  Yes
    K tasked:                  Yes
    wK tasked:                 Yes
    Omega:               2.000E-01
    OpenMP threads:              8
    Integrals threads:           8
    Memory [MiB]:            71525
    Schwarz Cutoff:          0E+00
    Fitting Condition:       1E-10

   => Auxiliary Basis Set <=

  Basis Set: (6-31G* AUX)
    Blend: CC-PVDZ-JKFIT
    Number of shells: 84
    Number of basis function: 262
    Number of Cartesian functions: 262
    Spherical Harmonics?: false
    Max angular momentum: 3

  ==> DFT Potential <==

   => Composite Functional: WB97X-D <= 

    wB97X-D Hyb-GGA Exchange-Correlation Functional

    J.-D. Chai and M. Head-Gordon, Phys. Chem. Chem. Phys. 10, 6615 (2008)

    Deriv               =              1
    GGA                 =           TRUE
    Meta                =          FALSE

    Exchange Hybrid     =           TRUE
    MP2 Hybrid          =          FALSE

   => Exchange-Correlation Functionals <=

    1.0000   wB97D range-separated functional

   => Exact (HF) Exchange <=

    0.7780            HF,LR [omega = 0.2000]
    0.2220               HF 

   => Molecular Quadrature <=

    Radial Scheme          =       TREUTLER
    Pruning Scheme         =           FLAT
    Nuclear Scheme         =       TREUTLER

    BS radius alpha        =              1
    Pruning alpha          =              1
    Radial Points          =             75
    Spherical Points       =            302
    Total Points           =         131921
    Total Blocks           =           1051
    Max Points             =            256
    Max Functions          =             38


  -Total Gradient:
     Atom            X                  Y                   Z
    ------   -----------------  -----------------  -----------------
       1        0.003701952309    -0.002060399700     0.001746901200
       2       -0.005221839016    -0.002241381090    -0.001195948198
       3        0.001233748547     0.000025859883     0.000107578135
       4       -0.000310526803     0.001237338188    -0.000882763314
       5       -0.000075620629     0.001226673646     0.000865450603
       6        0.000490458103     0.001820535806    -0.000634554051


*** tstop() called on node35.bme.utexas.edu at Mon Oct  5 15:31:49 2020
Module time:
	user time   =       9.44 seconds =       0.16 minutes
	system time =       0.69 seconds =       0.01 minutes
	total time  =          2 seconds =       0.03 minutes
Total time:
	user time   =     160.19 seconds =       2.67 minutes
	system time =      10.57 seconds =       0.18 minutes
	total time  =         23 seconds =       0.38 minutes

			-----------------------------------------
			 OPTKING 2.0: for geometry optimizations 
			  - R.A. King,  Bethel University        
			-----------------------------------------

	Previous internal coordinate definitions found.
	---Fragment 1 Geometry and Gradient---
	 O           1.3059108322       -0.0593763678       -0.0793589859
	 C          -1.3740750917       -0.0047750142        0.0012179084
	 H          -2.1253960375       -1.4592513785        1.2780526679
	 H          -2.0651731737       -0.3677431380       -1.9130640661
	 H          -2.1070224073        1.8460849740        0.6039871243
	 H           1.9327157515        0.9801108625        1.2760075428
	             0.0037019523       -0.0020603997        0.0017469012
	            -0.0052218390       -0.0022413811       -0.0011959482
	             0.0012337485        0.0000258599        0.0001075781
	            -0.0003105268        0.0012373382       -0.0008827633
	            -0.0000756206        0.0012266736        0.0008654506
	             0.0004904581        0.0018205358       -0.0006345541

	
Fatal Error: PSIO Error
Error occurred in file: /scratch/psilocaluser/conda-builds/psi4-multiout_1557940846948/work/psi4/src/psi4/libpsio/error.cc on line: 128
The most recent 5 function calls were:

psi::PSIO::open(unsigned long, int)

    Structure for next step:
    Molecular point group: c1
    Full point group: C1

    Geometry (in Angstrom), charge = 0, multiplicity = 1:

    O            0.691058251569    -0.031420620669    -0.041994966806
    C           -0.727129224280    -0.002526828670     0.000644489370
    H           -1.124711146718    -0.772202574140     0.676316345911
    H           -1.092842579593    -0.194601288009    -1.012349906314
    H           -1.114988240329     0.976906097194     0.319616221701
    H            1.022749130396     0.518652332367     0.675234112287

	Cleaning optimization helper files.

PsiException: Could not converge geometry optimization in 3 iterations.


    Psi4 stopped on: Monday, 05 October 2020 03:31PM
    Psi4 wall time for execution: 0:00:23.02

*** Psi4 exiting successfully. Buy a developer a beer!
