6
methanol-opt-2_2-1-302.log	Energy:  -72588.0838799
O          0.74478        0.12193       -0.00528
C         -0.66004       -0.01071       -0.00523
H         -1.01807       -0.61833       -0.84788
H         -1.07509        0.99714       -0.02105
H         -1.00748       -0.51941        0.90726
H          1.10265       -0.77058        0.03532
