6
methanol-opt-2_2-1-002.log	Energy:  -72586.8556870
O         -0.74487       -0.12433        0.00614
C          0.66082        0.01886       -0.00613
H          0.97741        1.06817       -0.03288
H          1.07557       -0.52884       -0.85834
H          1.05993       -0.41682        0.91773
H         -1.11882        0.75895       -0.03884
