 Entering Gaussian System, Link 0=/opt/g09gh/gaussian/g09/g09
 Input=methanol-opt-2_2-1-092.com
 Output=methanol-opt-2_2-1-092.log
 Initial command:
 /opt/g09gh/gaussian/g09/l1.exe /scratch/bdw2292/Gau-methanol/Gau-48977.inp -scrdir=/scratch/bdw2292/Gau-methanol/
 Entering Link 1 = /opt/g09gh/gaussian/g09/l1.exe PID=     48978.
  
 Copyright (c) 1988,1990,1992,1993,1995,1998,2003,2009, Gaussian, Inc.
                  All Rights Reserved.
  
 This is part of the Gaussian(R) 09 program.  It is based on
 the Gaussian(R) 03 system (copyright 2003, Gaussian, Inc.),
 the Gaussian(R) 98 system (copyright 1998, Gaussian, Inc.),
 the Gaussian(R) 94 system (copyright 1995, Gaussian, Inc.),
 the Gaussian 92(TM) system (copyright 1992, Gaussian, Inc.),
 the Gaussian 90(TM) system (copyright 1990, Gaussian, Inc.),
 the Gaussian 88(TM) system (copyright 1988, Gaussian, Inc.),
 the Gaussian 86(TM) system (copyright 1986, Carnegie Mellon
 University), and the Gaussian 82(TM) system (copyright 1983,
 Carnegie Mellon University). Gaussian is a federally registered
 trademark of Gaussian, Inc.
  
 This software contains proprietary and confidential information,
 including trade secrets, belonging to Gaussian, Inc.
  
 This software is provided under written license and may be
 used, copied, transmitted, or stored only in accord with that
 written license.
  
 The following legend is applicable only to US Government
 contracts under FAR:
  
                    RESTRICTED RIGHTS LEGEND
  
 Use, reproduction and disclosure by the US Government is
 subject to restrictions as set forth in subparagraphs (a)
 and (c) of the Commercial Computer Software - Restricted
 Rights clause in FAR 52.227-19.
  
 Gaussian, Inc.
 340 Quinnipiac St., Bldg. 40, Wallingford CT 06492
  
  
 ---------------------------------------------------------------
 Warning -- This program may not be used in any manner that
 competes with the business of Gaussian, Inc. or will provide
 assistance to any competitor of Gaussian, Inc.  The licensee
 of this program is prohibited from giving any competitor of
 Gaussian, Inc. access to this program.  By using this program,
 the user acknowledges that Gaussian, Inc. is engaged in the
 business of creating and licensing software in the field of
 computational chemistry and represents and warrants to the
 licensee that it is not a competitor of Gaussian, Inc. and that
 it will not use this program in any manner prohibited above.
 ---------------------------------------------------------------
  

 Cite this work as:
 Gaussian 09, Revision A.02,
 M. J. Frisch, G. W. Trucks, H. B. Schlegel, G. E. Scuseria, 
 M. A. Robb, J. R. Cheeseman, G. Scalmani, V. Barone, B. Mennucci, 
 G. A. Petersson, H. Nakatsuji, M. Caricato, X. Li, H. P. Hratchian, 
 A. F. Izmaylov, J. Bloino, G. Zheng, J. L. Sonnenberg, M. Hada, 
 M. Ehara, K. Toyota, R. Fukuda, J. Hasegawa, M. Ishida, T. Nakajima, 
 Y. Honda, O. Kitao, H. Nakai, T. Vreven, J. A. Montgomery, Jr., 
 J. E. Peralta, F. Ogliaro, M. Bearpark, J. J. Heyd, E. Brothers, 
 K. N. Kudin, V. N. Staroverov, R. Kobayashi, J. Normand, 
 K. Raghavachari, A. Rendell, J. C. Burant, S. S. Iyengar, J. Tomasi, 
 M. Cossi, N. Rega, J. M. Millam, M. Klene, J. E. Knox, J. B. Cross, 
 V. Bakken, C. Adamo, J. Jaramillo, R. Gomperts, R. E. Stratmann, 
 O. Yazyev, A. J. Austin, R. Cammi, C. Pomelli, J. W. Ochterski, 
 R. L. Martin, K. Morokuma, V. G. Zakrzewski, G. A. Voth, 
 P. Salvador, J. J. Dannenberg, S. Dapprich, A. D. Daniels, 
 O. Farkas, J. B. Foresman, J. V. Ortiz, J. Cioslowski, 
 and D. J. Fox, Gaussian, Inc., Wallingford CT, 2009.
 
 ******************************************
 Gaussian 09:  EM64L-G09RevA.02 11-Jun-2009
                 8-Jan-2021 
 ******************************************
 %RWF=/scratch/bdw2292/Gau-methanol/,200GB
 %Nosave
 %Chk=methanol-opt-2_2-1-092.chk
 %Mem=100GB
 %Nproc=8
 Will use up to    8 processors via shared memory.
 ------------------------------------------------------------------
 #P opt=(ModRedundant,maxcycle=2,Loose) wB97XD/6-31G* MaxDisk=200GB
 ------------------------------------------------------------------
 1/6=2,7=-1,14=-1,18=120,19=15,26=3,38=1/1,3;
 2/9=110,12=2,17=6,18=5,40=1/2;
 3/5=1,6=6,7=1,11=2,16=1,25=1,30=1,71=1,74=-58/1,2,3;
 4//1;
 5/5=2,38=5/2;
 6/7=2,8=2,9=2,10=2,28=1/1;
 7//1,2,3,16;
 1/6=2,7=-1,14=-1,18=20,19=15/3(2);
 2/9=110/2;
 99//99;
 2/9=110/2;
 3/5=1,6=6,7=1,11=2,16=1,25=1,30=1,71=1,74=-58/1,2,3;
 4/5=5,16=3/1;
 5/5=2,38=5/2;
 7//1,2,3,16;
 1/6=2,7=-1,14=-1,18=20,19=15/3(-5);
 2/9=110/2;
 6/7=2,8=2,9=2,10=2,19=2,28=1/1;
 99/9=1/99;
 Leave Link    1 at Fri Jan  8 13:35:09 2021, MaxMem=13421772800 cpu:       0.3
 (Enter /opt/g09gh/gaussian/g09/l101.exe)
 -------------------------------------------------------------
 methanol Rotatable Bond Optimization on node37.bme.utexas.edu
 -------------------------------------------------------------
 Symbolic Z-matrix:
 Charge =  0 Multiplicity = 1
 O                    -0.75701  -0.12148  -0.00017 
 C                     0.67782   0.02204   0.00245 
 H                     1.08914   0.01642   1.00496 
 H                     1.02151   0.91687  -0.50531 
 H                     1.08459  -0.8263   -0.52739 
 H                    -1.20606   0.73263   0.01438 
 
 NAtoms=      6 NQM=      6 NQMF=      0 NMic=      0 NMicF=      0 NTot=      6.
 The following ModRedundant input section has been read:
 D    6    1    2    3 F                                                       
 D    6    1    2    4 F                                                       
 D    6    1    2    5 F                                                       
                    Isotopes and Nuclear Properties:
 (Nuclear quadrupole moments (NQMom) in fm**2, nuclear magnetic moments (NMagM)
  in nuclear magnetons)

  Atom         1           2           3           4           5           6
 IAtWgt=          16          12           1           1           1           1
 AtmWgt=  15.9949146  12.0000000   1.0078250   1.0078250   1.0078250   1.0078250
 NucSpn=           0           0           1           1           1           1
 AtZEff=   0.0000000   0.0000000   0.0000000   0.0000000   0.0000000   0.0000000
 NQMom=    0.0000000   0.0000000   0.0000000   0.0000000   0.0000000   0.0000000
 NMagM=    0.0000000   0.0000000   2.7928460   2.7928460   2.7928460   2.7928460
 Leave Link  101 at Fri Jan  8 13:35:09 2021, MaxMem=13421772800 cpu:       1.0
 (Enter /opt/g09gh/gaussian/g09/l103.exe)

 GradGradGradGradGradGradGradGradGradGradGradGradGradGradGradGradGradGrad
 Berny optimization.
 Initialization pass.
                           ----------------------------
                           !    Initial Parameters    !
                           ! (Angstroms and Degrees)  !
 --------------------------                            --------------------------
 ! Name  Definition              Value          Derivative Info.                !
 --------------------------------------------------------------------------------
 ! R1    R(1,2)                  1.442          estimate D2E/DX2                !
 ! R2    R(1,6)                  0.9651         estimate D2E/DX2                !
 ! R3    R(2,3)                  1.0836         estimate D2E/DX2                !
 ! R4    R(2,4)                  1.0847         estimate D2E/DX2                !
 ! R5    R(2,5)                  1.0798         estimate D2E/DX2                !
 ! A1    A(2,1,6)              112.0168         estimate D2E/DX2                !
 ! A2    A(1,2,3)              112.2629         estimate D2E/DX2                !
 ! A3    A(1,2,4)              113.3608         estimate D2E/DX2                !
 ! A4    A(1,2,5)              107.2033         estimate D2E/DX2                !
 ! A5    A(3,2,4)              108.4856         estimate D2E/DX2                !
 ! A6    A(3,2,5)              107.8726         estimate D2E/DX2                !
 ! A7    A(4,2,5)              107.4017         estimate D2E/DX2                !
 ! D1    D(6,1,2,3)             91.6855         Frozen                          !
 ! D2    D(6,1,2,4)            -31.6828         Frozen                          !
 ! D3    D(6,1,2,5)           -150.0267         Frozen                          !
 --------------------------------------------------------------------------------
 Trust Radius=3.00D-01 FncErr=1.00D-07 GrdErr=1.00D-06
 Number of steps in this run=   2 maximum allowed number of steps= 100.
 GradGradGradGradGradGradGradGradGradGradGradGradGradGradGradGradGradGrad

 Leave Link  103 at Fri Jan  8 13:35:09 2021, MaxMem=13421772800 cpu:       0.1
 (Enter /opt/g09gh/gaussian/g09/l202.exe)
                          Input orientation:                          
 ---------------------------------------------------------------------
 Center     Atomic      Atomic             Coordinates (Angstroms)
 Number     Number       Type             X           Y           Z
 ---------------------------------------------------------------------
      1          8           0       -0.757010   -0.121480   -0.000170
      2          6           0        0.677820    0.022040    0.002450
      3          1           0        1.089140    0.016420    1.004960
      4          1           0        1.021510    0.916870   -0.505310
      5          1           0        1.084590   -0.826300   -0.527390
      6          1           0       -1.206060    0.732630    0.014380
 ---------------------------------------------------------------------
                    Distance matrix (angstroms):
                    1          2          3          4          5
     1  O    0.000000
     2  C    1.441992   0.000000
     3  H    2.106555   1.083624   0.000000
     4  H    2.120488   1.084741   1.759630   0.000000
     5  H    2.041133   1.079756   1.748798   1.744451   0.000000
     6  H    0.965071   2.013476   2.600413   2.294796   2.823270
                    6
     6  H    0.000000
 Stoichiometry    CH4O
 Framework group  C1[X(CH4O)]
 Deg. of freedom    12
 Full point group                 C1      NOp   1
 Largest Abelian subgroup         C1      NOp   1
 Largest concise Abelian subgroup C1      NOp   1
                         Standard orientation:                         
 ---------------------------------------------------------------------
 Center     Atomic      Atomic             Coordinates (Angstroms)
 Number     Number       Type             X           Y           Z
 ---------------------------------------------------------------------
      1          8           0       -0.757011   -0.121480   -0.000169
      2          6           0        0.677819    0.022038    0.002451
      3          1           0        1.089139    0.016418    1.004961
      4          1           0        1.021510    0.916868   -0.505309
      5          1           0        1.084588   -0.826302   -0.527389
      6          1           0       -1.206060    0.732630    0.014381
 ---------------------------------------------------------------------
 Rotational constants (GHZ):    132.3558967     24.0120230     23.2318504
 Leave Link  202 at Fri Jan  8 13:35:09 2021, MaxMem=13421772800 cpu:       0.0
 (Enter /opt/g09gh/gaussian/g09/l301.exe)
 Standard basis: 6-31G(d) (6D, 7F)
 Ernie: Thresh=  0.10000D-02 Tol=  0.10000D-05 Strict=F.
 There are    38 symmetry adapted basis functions of A   symmetry.
 Integral buffers will be    131072 words long.
 Raffenetti 2 integral format.
 Two-electron integral symmetry is turned on.
    38 basis functions,    72 primitive gaussians,    38 cartesian basis functions
     9 alpha electrons        9 beta electrons
       nuclear repulsion energy        39.9843513317 Hartrees.
 IExCor= 4639 DFT=T Ex+Corr=wB97XD ExCW=0 ScaHFX=  1.000000
 ScaDFX=  1.000000  1.000000  1.000000  1.000000 ScalE2=  1.000000  1.000000
 IRadAn=      0 IRanWt=     -1 IRanGd=            0 ICorTp=0
  HFx wShort=  0.000000 wLong=  0.200000 cFull=  0.222036 cShort=  0.000000 cLong=  0.777964
  DFx wShort=  0.000000 wLong=  0.200000 cFull=  0.000000 cShort=  0.000000 cLong=  1.000000
 NAtoms=    6 NActive=    6 NUniq=    6 SFac= 7.50D-01 NAtFMM=   80 NAOKFM=F Big=F
 R6Disp: Dispersion energy =        -0.0008051373 Hartrees.
 Nuclear repulsion after empirical dispersion term =       39.9835461944 Hartrees.
 Leave Link  301 at Fri Jan  8 13:35:09 2021, MaxMem=13421772800 cpu:       0.5
 (Enter /opt/g09gh/gaussian/g09/l302.exe)
 NPDir=0 NMtPBC=     1 NCelOv=     1 NCel=       1 NClECP=     1 NCelD=      1
         NCelK=      1 NCelE2=     1 NClLst=     1 CellRange=     0.0.
 One-electron integrals computed using PRISM.
 NBasis=    38 RedAO= T  NBF=    38
 NBsUse=    38 1.00D-06 NBFU=    38
 Precomputing XC quadrature grid using
 IXCGrd= 2 IRadAn=           0 IRanWt=          -1 IRanGd=           0 AccXCQ= 1.00D-10.
 NRdTot=     370 NPtTot=       46428 NUsed=       49109 NTot=       49141
 NSgBfM=    38    38    38    38    38 NAtAll=     6     6.
 Leave Link  302 at Fri Jan  8 13:35:09 2021, MaxMem=13421772800 cpu:       1.2
 (Enter /opt/g09gh/gaussian/g09/l303.exe)
 DipDrv:  MaxL=1.
 Leave Link  303 at Fri Jan  8 13:35:09 2021, MaxMem=13421772800 cpu:       0.3
 (Enter /opt/g09gh/gaussian/g09/l401.exe)
 Harris functional with IExCor= 4639 diagonalized for initial guess.
 ExpMin= 1.61D-01 ExpMax= 5.48D+03 ExpMxC= 8.25D+02 IAcc=1 IRadAn=         1 AccDes= 0.00D+00
 HarFok:  IExCor= 4639 AccDes= 0.00D+00 IRadAn=         1 IDoV= 1
 ScaDFX=  1.000000  1.000000  1.000000  1.000000
 FoFCou: FMM=F IPFlag=           0 FMFlag=      100000 FMFlg1=           0
         NFxFlg=           0 DoJE=T BraDBF=F KetDBF=T FulRan=T
         Omega=  0.000000  0.000000  1.000000  0.000000  0.000000 ICntrl=     500 IOpCl=  0
         NMat0=    1 NMatS0=    1 NMatT0=    0 NMatD0=    1 NMtDS0=    0 NMtDT0=    0
         I1Cent=           4 NGrid=           0.
 Petite list used in FoFCou.
 Harris En= -110.932520643584    
 Initial guess orbital symmetries:
       Occupied  (A) (A) (A) (A) (A) (A) (A) (A) (A)
       Virtual   (A) (A) (A) (A) (A) (A) (A) (A) (A) (A) (A) (A)
                 (A) (A) (A) (A) (A) (A) (A) (A) (A) (A) (A) (A)
                 (A) (A) (A) (A) (A)
 The electronic state of the initial guess is 1-A.
 Leave Link  401 at Fri Jan  8 13:35:09 2021, MaxMem=13421772800 cpu:       1.3
 (Enter /opt/g09gh/gaussian/g09/l502.exe)
 Closed shell SCF:
 Requested convergence on RMS density matrix=1.00D-08 within 128 cycles.
 Requested convergence on MAX density matrix=1.00D-06.
 Requested convergence on             energy=1.00D-06.
 No special actions if energy rises.
 Using DIIS extrapolation, IDIIS=  1040.
 Integral symmetry usage will be decided dynamically.
        49042 words used for storage of precomputed grid.
 IEnd=       72118 IEndB=       72118 NGot= 13421772800 MDV= 13421718805
 LenX= 13421718805 LenY= 13421716920
 Fock matrices will be formed incrementally for  20 cycles.
 Integral accuracy reduced to 1.0D-05 until final iterations.

 Cycle   1  Pass 0  IDiag  1:
 FoFJK:  IHMeth= 1 ICntrl=     0 DoSepK=T KAlg= 1 I1Cent= 0 FoldK=F
 FoFCou: FMM=F IPFlag=           0 FMFlag=      100000 FMFlg1=           0
         NFxFlg=           0 DoJE=T BraDBF=F KetDBF=F FulRan=T
         Omega=  0.000000  0.000000  1.000000  0.000000  0.000000 ICntrl=     500 IOpCl=  0
         NMat0=    1 NMatS0=    1 NMatT0=    0 NMatD0=    1 NMtDS0=    0 NMtDT0=    0
         I1Cent=           0 NGrid=           0.
 Symmetry not used in FoFCou.
 E= -115.653396698000    
 DIIS: error= 5.09D-02 at cycle   1 NSaved=   1.
 NSaved= 1 IEnMin= 1 EnMin= -115.653396698000     IErMin= 1 ErrMin= 5.09D-02
 ErrMax= 5.09D-02 EMaxC= 1.00D-01 BMatC= 8.14D-02 BMatP= 8.14D-02
 IDIUse=3 WtCom= 4.91D-01 WtEn= 5.09D-01
 Coeff-Com:  0.100D+01
 Coeff-En:   0.100D+01
 Coeff:      0.100D+01
 Gap=     0.538 Goal=   None    Shift=    0.000
 GapD=    0.538 DampG=2.000 DampE=0.500 DampFc=1.0000 IDamp=-1.
 RMSDP=4.77D-03 MaxDP=4.30D-02              OVMax= 4.61D-02

 Cycle   2  Pass 0  IDiag  1:
 RMSU=  3.36D-03    CP:  1.01D+00
 FoFJK:  IHMeth= 1 ICntrl=     0 DoSepK=T KAlg= 1 I1Cent= 0 FoldK=F
 E= -115.666776660638     Delta-E=       -0.013379962638 Rises=F Damp=F
 DIIS: error= 1.28D-02 at cycle   2 NSaved=   2.
 NSaved= 2 IEnMin= 2 EnMin= -115.666776660638     IErMin= 2 ErrMin= 1.28D-02
 ErrMax= 1.28D-02 EMaxC= 1.00D-01 BMatC= 1.11D-02 BMatP= 8.14D-02
 IDIUse=3 WtCom= 8.72D-01 WtEn= 1.28D-01
 Coeff-Com:  0.199D+00 0.801D+00
 Coeff-En:   0.710D-01 0.929D+00
 Coeff:      0.182D+00 0.818D+00
 Gap=     0.506 Goal=   None    Shift=    0.000
 RMSDP=2.72D-03 MaxDP=3.58D-02 DE=-1.34D-02 OVMax= 3.38D-02

 Cycle   3  Pass 0  IDiag  1:
 RMSU=  1.53D-03    CP:  1.01D+00  6.52D-01
 FoFJK:  IHMeth= 1 ICntrl=     0 DoSepK=T KAlg= 1 I1Cent= 0 FoldK=F
 E= -115.670692273434     Delta-E=       -0.003915612796 Rises=F Damp=F
 DIIS: error= 1.04D-02 at cycle   3 NSaved=   3.
 NSaved= 3 IEnMin= 3 EnMin= -115.670692273434     IErMin= 3 ErrMin= 1.04D-02
 ErrMax= 1.04D-02 EMaxC= 1.00D-01 BMatC= 5.72D-03 BMatP= 1.11D-02
 IDIUse=3 WtCom= 8.96D-01 WtEn= 1.04D-01
 Coeff-Com:  0.757D-02 0.418D+00 0.574D+00
 Coeff-En:   0.000D+00 0.335D+00 0.665D+00
 Coeff:      0.678D-02 0.410D+00 0.584D+00
 Gap=     0.516 Goal=   None    Shift=    0.000
 RMSDP=1.23D-03 MaxDP=1.57D-02 DE=-3.92D-03 OVMax= 1.39D-02

 Cycle   4  Pass 0  IDiag  1:
 RMSU=  1.84D-04    CP:  1.01D+00  8.06D-01  5.61D-01
 FoFJK:  IHMeth= 1 ICntrl=     0 DoSepK=T KAlg= 1 I1Cent= 0 FoldK=F
 E= -115.674666316898     Delta-E=       -0.003974043464 Rises=F Damp=F
 DIIS: error= 5.63D-04 at cycle   4 NSaved=   4.
 NSaved= 4 IEnMin= 4 EnMin= -115.674666316898     IErMin= 4 ErrMin= 5.63D-04
 ErrMax= 5.63D-04 EMaxC= 1.00D-01 BMatC= 1.75D-05 BMatP= 5.72D-03
 IDIUse=3 WtCom= 9.94D-01 WtEn= 5.63D-03
 Coeff-Com:  0.156D-02 0.915D-01 0.152D+00 0.755D+00
 Coeff-En:   0.000D+00 0.000D+00 0.000D+00 0.100D+01
 Coeff:      0.155D-02 0.909D-01 0.151D+00 0.757D+00
 Gap=     0.513 Goal=   None    Shift=    0.000
 RMSDP=9.49D-05 MaxDP=1.10D-03 DE=-3.97D-03 OVMax= 1.20D-03

 Cycle   5  Pass 0  IDiag  1:
 RMSU=  5.45D-05    CP:  1.01D+00  8.07D-01  5.82D-01  8.87D-01
 FoFJK:  IHMeth= 1 ICntrl=     0 DoSepK=T KAlg= 1 I1Cent= 0 FoldK=F
 E= -115.674679899397     Delta-E=       -0.000013582499 Rises=F Damp=F
 DIIS: error= 1.64D-04 at cycle   5 NSaved=   5.
 NSaved= 5 IEnMin= 5 EnMin= -115.674679899397     IErMin= 5 ErrMin= 1.64D-04
 ErrMax= 1.64D-04 EMaxC= 1.00D-01 BMatC= 9.81D-07 BMatP= 1.75D-05
 IDIUse=3 WtCom= 9.98D-01 WtEn= 1.64D-03
 Coeff-Com: -0.359D-03 0.160D-02 0.103D-01 0.207D+00 0.781D+00
 Coeff-En:   0.000D+00 0.000D+00 0.000D+00 0.000D+00 0.100D+01
 Coeff:     -0.359D-03 0.159D-02 0.102D-01 0.207D+00 0.781D+00
 Gap=     0.513 Goal=   None    Shift=    0.000
 RMSDP=2.65D-05 MaxDP=2.86D-04 DE=-1.36D-05 OVMax= 2.64D-04

 Cycle   6  Pass 0  IDiag  1:
 RMSU=  1.10D-05    CP:  1.01D+00  8.08D-01  5.85D-01  9.60D-01  9.79D-01
 FoFJK:  IHMeth= 1 ICntrl=     0 DoSepK=T KAlg= 1 I1Cent= 0 FoldK=F
 E= -115.674680817618     Delta-E=       -0.000000918222 Rises=F Damp=F
 DIIS: error= 2.55D-05 at cycle   6 NSaved=   6.
 NSaved= 6 IEnMin= 6 EnMin= -115.674680817618     IErMin= 6 ErrMin= 2.55D-05
 ErrMax= 2.55D-05 EMaxC= 1.00D-01 BMatC= 3.55D-08 BMatP= 9.81D-07
 IDIUse=1 WtCom= 1.00D+00 WtEn= 0.00D+00
 Coeff-Com: -0.827D-04-0.895D-02-0.134D-01-0.350D-01 0.113D+00 0.945D+00
 Coeff:     -0.827D-04-0.895D-02-0.134D-01-0.350D-01 0.113D+00 0.945D+00
 Gap=     0.513 Goal=   None    Shift=    0.000
 RMSDP=1.02D-05 MaxDP=6.81D-05 DE=-9.18D-07 OVMax= 8.96D-05

 Cycle   7  Pass 0  IDiag  1:
 RMSU=  2.55D-06    CP:  1.01D+00  8.08D-01  5.86D-01  9.76D-01  1.08D+00
                    CP:  1.09D+00
 FoFJK:  IHMeth= 1 ICntrl=     0 DoSepK=T KAlg= 1 I1Cent= 0 FoldK=F
 E= -115.674680875999     Delta-E=       -0.000000058381 Rises=F Damp=F
 DIIS: error= 2.59D-06 at cycle   7 NSaved=   7.
 NSaved= 7 IEnMin= 7 EnMin= -115.674680875999     IErMin= 7 ErrMin= 2.59D-06
 ErrMax= 2.59D-06 EMaxC= 1.00D-01 BMatC= 4.83D-10 BMatP= 3.55D-08
 IDIUse=1 WtCom= 1.00D+00 WtEn= 0.00D+00
 Coeff-Com:  0.141D-04 0.771D-03 0.996D-03 0.186D-03-0.316D-01-0.786D-01
 Coeff-Com:  0.111D+01
 Coeff:      0.141D-04 0.771D-03 0.996D-03 0.186D-03-0.316D-01-0.786D-01
 Coeff:      0.111D+01
 Gap=     0.513 Goal=   None    Shift=    0.000
 RMSDP=1.82D-06 MaxDP=1.51D-05 DE=-5.84D-08 OVMax= 2.04D-05

 Initial convergence to 1.0D-05 achieved.  Increase integral accuracy.
 Cycle   8  Pass 1  IDiag  1:
 FoFJK:  IHMeth= 1 ICntrl=     0 DoSepK=T KAlg= 1 I1Cent= 0 FoldK=F
 E= -115.674430969814     Delta-E=        0.000249906185 Rises=F Damp=F
 DIIS: error= 1.11D-04 at cycle   1 NSaved=   1.
 NSaved= 1 IEnMin= 1 EnMin= -115.674430969814     IErMin= 1 ErrMin= 1.11D-04
 ErrMax= 1.11D-04 EMaxC= 1.00D-01 BMatC= 7.54D-07 BMatP= 7.54D-07
 IDIUse=3 WtCom= 9.99D-01 WtEn= 1.11D-03
 Coeff-Com:  0.100D+01
 Coeff-En:   0.100D+01
 Coeff:      0.100D+01
 Gap=     0.513 Goal=   None    Shift=    0.000
 RMSDP=1.82D-06 MaxDP=1.51D-05 DE= 2.50D-04 OVMax= 1.84D-04

 Cycle   9  Pass 1  IDiag  1:
 RMSU=  1.46D-05    CP:  1.00D+00
 FoFJK:  IHMeth= 1 ICntrl=     0 DoSepK=T KAlg= 1 I1Cent= 0 FoldK=F
 E= -115.674431591693     Delta-E=       -0.000000621879 Rises=F Damp=F
 DIIS: error= 3.13D-05 at cycle   2 NSaved=   2.
 NSaved= 2 IEnMin= 2 EnMin= -115.674431591693     IErMin= 2 ErrMin= 3.13D-05
 ErrMax= 3.13D-05 EMaxC= 1.00D-01 BMatC= 4.00D-08 BMatP= 7.54D-07
 IDIUse=1 WtCom= 1.00D+00 WtEn= 0.00D+00
 Coeff-Com:  0.102D-01 0.990D+00
 Coeff:      0.102D-01 0.990D+00
 Gap=     0.513 Goal=   None    Shift=    0.000
 RMSDP=7.47D-06 MaxDP=8.37D-05 DE=-6.22D-07 OVMax= 8.43D-05

 Cycle  10  Pass 1  IDiag  1:
 RMSU=  5.28D-06    CP:  1.00D+00  1.01D+00
 FoFJK:  IHMeth= 1 ICntrl=     0 DoSepK=T KAlg= 1 I1Cent= 0 FoldK=F
 E= -115.674431602328     Delta-E=       -0.000000010636 Rises=F Damp=F
 DIIS: error= 2.83D-05 at cycle   3 NSaved=   3.
 NSaved= 3 IEnMin= 3 EnMin= -115.674431602328     IErMin= 3 ErrMin= 2.83D-05
 ErrMax= 2.83D-05 EMaxC= 1.00D-01 BMatC= 3.93D-08 BMatP= 4.00D-08
 IDIUse=1 WtCom= 1.00D+00 WtEn= 0.00D+00
 Coeff-Com: -0.509D-01 0.519D+00 0.532D+00
 Coeff:     -0.509D-01 0.519D+00 0.532D+00
 Gap=     0.513 Goal=   None    Shift=    0.000
 RMSDP=3.00D-06 MaxDP=4.08D-05 DE=-1.06D-08 OVMax= 3.52D-05

 Cycle  11  Pass 1  IDiag  1:
 RMSU=  1.02D-06    CP:  1.00D+00  1.06D+00  6.79D-01
 FoFJK:  IHMeth= 1 ICntrl=     0 DoSepK=T KAlg= 1 I1Cent= 0 FoldK=F
 E= -115.674431629221     Delta-E=       -0.000000026892 Rises=F Damp=F
 DIIS: error= 1.85D-06 at cycle   4 NSaved=   4.
 NSaved= 4 IEnMin= 4 EnMin= -115.674431629221     IErMin= 4 ErrMin= 1.85D-06
 ErrMax= 1.85D-06 EMaxC= 1.00D-01 BMatC= 1.13D-10 BMatP= 3.93D-08
 IDIUse=1 WtCom= 1.00D+00 WtEn= 0.00D+00
 Coeff-Com: -0.273D-02-0.656D-02 0.104D-01 0.999D+00
 Coeff:     -0.273D-02-0.656D-02 0.104D-01 0.999D+00
 Gap=     0.513 Goal=   None    Shift=    0.000
 RMSDP=4.87D-07 MaxDP=4.61D-06 DE=-2.69D-08 OVMax= 5.42D-06

 Cycle  12  Pass 1  IDiag  1:
 RMSU=  2.35D-07    CP:  1.00D+00  1.07D+00  7.12D-01  1.17D+00
 FoFJK:  IHMeth= 1 ICntrl=     0 DoSepK=T KAlg= 1 I1Cent= 0 FoldK=F
 E= -115.674431629397     Delta-E=       -0.000000000176 Rises=F Damp=F
 DIIS: error= 6.91D-07 at cycle   5 NSaved=   5.
 NSaved= 5 IEnMin= 5 EnMin= -115.674431629397     IErMin= 5 ErrMin= 6.91D-07
 ErrMax= 6.91D-07 EMaxC= 1.00D-01 BMatC= 2.26D-11 BMatP= 1.13D-10
 IDIUse=1 WtCom= 1.00D+00 WtEn= 0.00D+00
 Coeff-Com:  0.160D-02-0.300D-01-0.269D-01 0.275D+00 0.781D+00
 Coeff:      0.160D-02-0.300D-01-0.269D-01 0.275D+00 0.781D+00
 Gap=     0.513 Goal=   None    Shift=    0.000
 RMSDP=1.61D-07 MaxDP=1.47D-06 DE=-1.76D-10 OVMax= 1.85D-06

 Cycle  13  Pass 1  IDiag  1:
 RMSU=  7.38D-08    CP:  1.00D+00  1.07D+00  7.21D-01  1.24D+00  9.58D-01
 FoFJK:  IHMeth= 1 ICntrl=     0 DoSepK=T KAlg= 1 I1Cent= 0 FoldK=F
 E= -115.674431629422     Delta-E=       -0.000000000025 Rises=F Damp=F
 DIIS: error= 2.19D-07 at cycle   6 NSaved=   6.
 NSaved= 6 IEnMin= 6 EnMin= -115.674431629422     IErMin= 6 ErrMin= 2.19D-07
 ErrMax= 2.19D-07 EMaxC= 1.00D-01 BMatC= 1.31D-12 BMatP= 2.26D-11
 IDIUse=1 WtCom= 1.00D+00 WtEn= 0.00D+00
 Coeff-Com:  0.686D-03-0.684D-02-0.691D-02-0.885D-02 0.181D+00 0.841D+00
 Coeff:      0.686D-03-0.684D-02-0.691D-02-0.885D-02 0.181D+00 0.841D+00
 Gap=     0.513 Goal=   None    Shift=    0.000
 RMSDP=4.99D-08 MaxDP=4.29D-07 DE=-2.51D-11 OVMax= 5.48D-07

 Cycle  14  Pass 1  IDiag  1:
 RMSU=  1.66D-08    CP:  1.00D+00  1.07D+00  7.23D-01  1.26D+00  1.06D+00
                    CP:  1.07D+00
 FoFJK:  IHMeth= 1 ICntrl=     0 DoSepK=T KAlg= 1 I1Cent= 0 FoldK=F
 E= -115.674431629424     Delta-E=       -0.000000000002 Rises=F Damp=F
 DIIS: error= 2.29D-08 at cycle   7 NSaved=   7.
 NSaved= 7 IEnMin= 7 EnMin= -115.674431629424     IErMin= 7 ErrMin= 2.29D-08
 ErrMax= 2.29D-08 EMaxC= 1.00D-01 BMatC= 3.66D-14 BMatP= 1.31D-12
 IDIUse=1 WtCom= 1.00D+00 WtEn= 0.00D+00
 Coeff-Com: -0.685D-04 0.135D-02 0.119D-02-0.155D-01-0.377D-01 0.347D-01
 Coeff-Com:  0.102D+01
 Coeff:     -0.685D-04 0.135D-02 0.119D-02-0.155D-01-0.377D-01 0.347D-01
 Coeff:      0.102D+01
 Gap=     0.513 Goal=   None    Shift=    0.000
 RMSDP=1.70D-08 MaxDP=1.47D-07 DE=-1.88D-12 OVMax= 1.82D-07

 Cycle  15  Pass 1  IDiag  1:
 RMSU=  3.13D-09    CP:  1.00D+00  1.07D+00  7.24D-01  1.26D+00  1.08D+00
                    CP:  1.17D+00  1.22D+00
 FoFJK:  IHMeth= 1 ICntrl=     0 DoSepK=T KAlg= 1 I1Cent= 0 FoldK=F
 E= -115.674431629423     Delta-E=        0.000000000000 Rises=F Damp=F
 DIIS: error= 3.78D-09 at cycle   8 NSaved=   8.
 NSaved= 8 IEnMin= 7 EnMin= -115.674431629424     IErMin= 8 ErrMin= 3.78D-09
 ErrMax= 3.78D-09 EMaxC= 1.00D-01 BMatC= 1.30D-15 BMatP= 3.66D-14
 IDIUse=1 WtCom= 1.00D+00 WtEn= 0.00D+00
 Coeff-Com: -0.165D-04 0.128D-03 0.705D-04 0.147D-02-0.271D-02-0.355D-01
 Coeff-Com: -0.685D-01 0.111D+01
 Coeff:     -0.165D-04 0.128D-03 0.705D-04 0.147D-02-0.271D-02-0.355D-01
 Coeff:     -0.685D-01 0.111D+01
 Gap=     0.513 Goal=   None    Shift=    0.000
 RMSDP=4.01D-09 MaxDP=3.18D-08 DE= 2.27D-13 OVMax= 4.81D-08

 SCF Done:  E(RwB97XD) =  -115.674431629     A.U. after   15 cycles
             Convg  =    0.4014D-08             -V/T =  2.0086
 KE= 1.146865454386D+02 PE=-3.511081849848D+02 EE= 8.076366172239D+01
 Leave Link  502 at Fri Jan  8 13:35:12 2021, MaxMem=13421772800 cpu:      21.8
 (Enter /opt/g09gh/gaussian/g09/l601.exe)
 Copying SCF densities to generalized density rwf, IOpCl= 0 IROHF=0.

 **********************************************************************

            Population analysis using the SCF density.

 **********************************************************************

 Orbital symmetries:
       Occupied  (A) (A) (A) (A) (A) (A) (A) (A) (A)
       Virtual   (A) (A) (A) (A) (A) (A) (A) (A) (A) (A) (A) (A)
                 (A) (A) (A) (A) (A) (A) (A) (A) (A) (A) (A) (A)
                 (A) (A) (A) (A) (A)
 The electronic state is 1-A.
 Alpha  occ. eigenvalues --  -19.25924 -10.33080  -1.10009  -0.78059  -0.58711
 Alpha  occ. eigenvalues --   -0.51932  -0.50447  -0.40939  -0.34745
 Alpha virt. eigenvalues --    0.16555   0.21896   0.25119   0.26717   0.29406
 Alpha virt. eigenvalues --    0.62356   0.64647   0.65997   0.90152   0.96010
 Alpha virt. eigenvalues --    0.97054   1.01434   1.05350   1.06902   1.11458
 Alpha virt. eigenvalues --    1.22980   1.54421   1.58197   1.66029   1.84773
 Alpha virt. eigenvalues --    2.11213   2.19558   2.22732   2.40156   2.46328
 Alpha virt. eigenvalues --    2.60372   2.87432   3.79880   4.32932
          Condensed to atoms (all electrons):
              1          2          3          4          5          6
     1  O    8.253242   0.251559  -0.038588  -0.026353  -0.037484   0.245626
     2  C    0.251559   4.877067   0.377755   0.374544   0.391991  -0.024607
     3  H   -0.038588   0.377755   0.587350  -0.042513  -0.042200   0.000394
     4  H   -0.026353   0.374544  -0.042513   0.583986  -0.031672  -0.008481
     5  H   -0.037484   0.391991  -0.042200  -0.031672   0.535137   0.004960
     6  H    0.245626  -0.024607   0.000394  -0.008481   0.004960   0.373357
 Mulliken atomic charges:
              1
     1  O   -0.648001
     2  C   -0.248309
     3  H    0.157801
     4  H    0.150489
     5  H    0.179268
     6  H    0.408751
 Sum of Mulliken atomic charges =   0.00000
 Mulliken charges with hydrogens summed into heavy atoms:
              1
     1  O   -0.239250
     2  C    0.239250
 Sum of Mulliken charges with hydrogens summed into heavy atoms =   0.00000
 Electronic spatial extent (au):  <R**2>=             84.7478
 Charge=              0.0000 electrons
 Dipole moment (field-independent basis, Debye):
    X=              0.8153    Y=              1.6161    Z=             -0.0307  Tot=              1.8104
 Quadrupole moment (field-independent basis, Debye-Ang):
   XX=            -12.0302   YY=            -12.0225   ZZ=            -13.4359
   XY=             -2.2714   XZ=             -0.1065   YZ=              0.0520
 Traceless Quadrupole moment (field-independent basis, Debye-Ang):
   XX=              0.4660   YY=              0.4737   ZZ=             -0.9397
   XY=             -2.2714   XZ=             -0.1065   YZ=              0.0520
 Octapole moment (field-independent basis, Debye-Ang**2):
  XXX=             -4.8365  YYY=              1.1365  ZZZ=              0.3408  XYY=             -1.8383
  XXY=              2.5909  XXZ=             -0.0386  XZZ=             -0.3610  YZZ=              0.1367
  YYZ=             -0.5034  XYZ=              0.0270
 Hexadecapole moment (field-independent basis, Debye-Ang**3):
 XXXX=            -59.5934 YYYY=            -18.7755 ZZZZ=            -18.2723 XXXY=             -4.0534
 XXXZ=             -0.1898 YYYX=             -2.1375 YYYZ=              0.0597 ZZZX=              0.3860
 ZZZY=              0.0789 XXYY=            -12.0862 XXZZ=            -13.5444 YYZZ=             -6.2579
 XXYZ=              0.1392 YYXZ=             -0.6377 ZZXY=             -0.4708
 N-N= 3.998354619439D+01 E-N=-3.511081851012D+02  KE= 1.146865454386D+02
 No NMR shielding tensors so no spin-rotation constants.
 Leave Link  601 at Fri Jan  8 13:35:12 2021, MaxMem=13421772800 cpu:       0.9
 (Enter /opt/g09gh/gaussian/g09/l701.exe)
 Compute integral first derivatives.
 ... and contract with generalized density number  0.
 R6Disp: Adding dispersion energy 1st derivatives to the gradient.
 Leave Link  701 at Fri Jan  8 13:35:12 2021, MaxMem=13421772800 cpu:       0.9
 (Enter /opt/g09gh/gaussian/g09/l702.exe)
 L702 exits ... SP integral derivatives will be done elsewhere.
 Leave Link  702 at Fri Jan  8 13:35:13 2021, MaxMem=13421772800 cpu:       0.3
 (Enter /opt/g09gh/gaussian/g09/l703.exe)
 Compute integral first derivatives, UseDBF=F ICtDFT=           0.
 Integral derivatives from FoFDir, PRISM(SPDF).
 Calling FoFJK, ICntrl=      2127 FMM=F ISym2X=0 I1Cent= 0 IOpClX= 0 NMat=1 NMatS=1 NMatT=0.
 FoFJK:  IHMeth= 1 ICntrl=  2127 DoSepK=T KAlg= 1 I1Cent= 0 FoldK=F
 FoFCou: FMM=F IPFlag=           0 FMFlag=      100000 FMFlg1=         800
         NFxFlg=           0 DoJE=F BraDBF=F KetDBF=F FulRan=T
         Omega=  0.000000  0.000000  1.000000  0.000000  0.000000 ICntrl=    2527 IOpCl=  0
         NMat0=    1 NMatS0=    1 NMatT0=    0 NMatD0=    1 NMtDS0=    0 NMtDT0=    0
         I1Cent=           0 NGrid=           0.
 Symmetry not used in FoFCou.
 Leave Link  703 at Fri Jan  8 13:35:13 2021, MaxMem=13421772800 cpu:       2.4
 (Enter /opt/g09gh/gaussian/g09/l716.exe)
 Dipole        = 3.20754618D-01 6.35829544D-01-1.20962879D-02
 ***** Axes restored to original set *****
 -------------------------------------------------------------------
 Center     Atomic                   Forces (Hartrees/Bohr)
 Number     Number              X              Y              Z
 -------------------------------------------------------------------
      1        8           0.013816242   -0.002969360   -0.001766821
      2        6          -0.025397962    0.001929379   -0.001564257
      3        1           0.001040286    0.001049679    0.010044291
      4        1           0.000123433    0.007884982   -0.004121396
      5        1           0.001469002   -0.008302584   -0.004332613
      6        1           0.008949000    0.000407905    0.001740796
 -------------------------------------------------------------------
 Cartesian Forces:  Max     0.025397962 RMS     0.008197028
 Leave Link  716 at Fri Jan  8 13:35:13 2021, MaxMem=13421772800 cpu:       0.3
 (Enter /opt/g09gh/gaussian/g09/l103.exe)

 GradGradGradGradGradGradGradGradGradGradGradGradGradGradGradGradGradGrad
 Berny optimization.
 Internal  Forces:  Max     0.022398799 RMS     0.008291354
 Search for a local minimum.
 Step number   1 out of a maximum of    2
 All quantities printed in internal units (Hartrees-Bohrs-Radians)
 RMS Force = .92386D-02 SwitMx=.10000D-02 MixMth= 1
 Mixed Optimization -- RFO/linear search
 Second derivative matrix not updated -- first step.
 The second derivative matrix:
                          R1        R2        R3        R4        R5
           R1           0.39313
           R2           0.00000   0.54397
           R3           0.00000   0.00000   0.35560
           R4           0.00000   0.00000   0.00000   0.35427
           R5           0.00000   0.00000   0.00000   0.00000   0.36024
           A1           0.00000   0.00000   0.00000   0.00000   0.00000
           A2           0.00000   0.00000   0.00000   0.00000   0.00000
           A3           0.00000   0.00000   0.00000   0.00000   0.00000
           A4           0.00000   0.00000   0.00000   0.00000   0.00000
           A5           0.00000   0.00000   0.00000   0.00000   0.00000
           A6           0.00000   0.00000   0.00000   0.00000   0.00000
           A7           0.00000   0.00000   0.00000   0.00000   0.00000
           D1           0.00000   0.00000   0.00000   0.00000   0.00000
           D2           0.00000   0.00000   0.00000   0.00000   0.00000
           D3           0.00000   0.00000   0.00000   0.00000   0.00000
                          A1        A2        A3        A4        A5
           A1           0.16000
           A2           0.00000   0.16000
           A3           0.00000   0.00000   0.16000
           A4           0.00000   0.00000   0.00000   0.16000
           A5           0.00000   0.00000   0.00000   0.00000   0.16000
           A6           0.00000   0.00000   0.00000   0.00000   0.00000
           A7           0.00000   0.00000   0.00000   0.00000   0.00000
           D1           0.00000   0.00000   0.00000   0.00000   0.00000
           D2           0.00000   0.00000   0.00000   0.00000   0.00000
           D3           0.00000   0.00000   0.00000   0.00000   0.00000
                          A6        A7        D1        D2        D3
           A6           0.16000
           A7           0.00000   0.16000
           D1           0.00000   0.00000   0.01136
           D2           0.00000   0.00000   0.00000   0.01136
           D3           0.00000   0.00000   0.00000   0.00000   0.01136
     Eigenvalues ---    0.16000   0.16000   0.16000   0.16000   0.35427
     Eigenvalues ---    0.35560   0.36024   0.39313   0.543971000.00000
     Eigenvalues --- 1000.000001000.000001000.000001000.000001000.00000
 RFO step:  Lambda=-3.56283094D-03 EMin= 1.60000000D-01
 Linear search not attempted -- first point.
 Iteration  1 RMS(Cart)=  0.05189208 RMS(Int)=  0.00134416
 Iteration  2 RMS(Cart)=  0.00109934 RMS(Int)=  0.00006934
 Iteration  3 RMS(Cart)=  0.00000019 RMS(Int)=  0.00006934
 Iteration  1 RMS(Cart)=  0.00000072 RMS(Int)=  0.00000107
 Variable       Old X    -DE/DX   Delta X   Delta X   Delta X     New X
                                 (Linear)    (Quad)   (Total)
    R1        2.72497  -0.02240   0.00000  -0.05646  -0.05646   2.66851
    R2        1.82372  -0.00377   0.00000  -0.00689  -0.00689   1.81683
    R3        2.04775   0.00968   0.00000   0.02696   0.02696   2.07472
    R4        2.04986   0.00847   0.00000   0.02367   0.02367   2.07354
    R5        2.04044   0.00920   0.00000   0.02529   0.02529   2.06574
    A1        1.95506  -0.01482   0.00000  -0.09063  -0.09063   1.86443
    A2        1.95936  -0.00306   0.00000  -0.01644  -0.01655   1.94280
    A3        1.97852  -0.00287   0.00000  -0.01584  -0.01595   1.96257
    A4        1.87105  -0.00142   0.00000  -0.01248  -0.01259   1.85846
    A5        1.89343   0.00205   0.00000   0.01885   0.01874   1.91217
    A6        1.88273   0.00282   0.00000   0.01414   0.01403   1.89676
    A7        1.87451   0.00298   0.00000   0.01413   0.01403   1.88854
    D1        1.60021  -0.00187   0.00000   0.00000   0.00000   1.60021
    D2       -0.55297   0.00002   0.00000   0.00000   0.00000  -0.55297
    D3       -2.61846  -0.00106   0.00000   0.00000   0.00000  -2.61846
         Item               Value     Threshold  Converged?
 Maximum Force            0.022399     0.002500     NO 
 RMS     Force            0.009239     0.001667     NO 
 Maximum Displacement     0.154122     0.010000     NO 
 RMS     Displacement     0.052383     0.006667     NO 
 Predicted change in Energy=-1.807789D-03
 GradGradGradGradGradGradGradGradGradGradGradGradGradGradGradGradGradGrad

 Leave Link  103 at Fri Jan  8 13:35:13 2021, MaxMem=13421772800 cpu:       0.0
 (Enter /opt/g09gh/gaussian/g09/l202.exe)
                          Input orientation:                          
 ---------------------------------------------------------------------
 Center     Atomic      Atomic             Coordinates (Angstroms)
 Number     Number       Type             X           Y           Z
 ---------------------------------------------------------------------
      1          8           0       -0.740954   -0.142732   -0.000511
      2          6           0        0.661550    0.021703    0.002004
      3          1           0        1.061625    0.020809    1.024407
      4          1           0        0.977053    0.936598   -0.515125
      5          1           0        1.075218   -0.834940   -0.536510
      6          1           0       -1.124502    0.738742    0.014655
 ---------------------------------------------------------------------
                    Distance matrix (angstroms):
                    1          2          3          4          5
     1  O    0.000000
     2  C    1.412113   0.000000
     3  H    2.080023   1.097893   0.000000
     4  H    2.093162   1.097268   1.793316   0.000000
     5  H    2.016167   1.093141   1.780156   1.774385   0.000000
     6  H    0.961423   1.924653   2.512803   2.176315   2.760259
                    6
     6  H    0.000000
 Stoichiometry    CH4O
 Framework group  C1[X(CH4O)]
 Deg. of freedom    12
 Full point group                 C1      NOp   1
 Largest Abelian subgroup         C1      NOp   1
 Largest concise Abelian subgroup C1      NOp   1
                         Standard orientation:                         
 ---------------------------------------------------------------------
 Center     Atomic      Atomic             Coordinates (Angstroms)
 Number     Number       Type             X           Y           Z
 ---------------------------------------------------------------------
      1          8           0       -0.744647   -0.123007   -0.000402
      2          6           0        0.660207    0.019967    0.002185
      3          1           0        1.060413    0.010566    1.024494
      4          1           0        0.989560    0.931140   -0.512875
      5          1           0        1.060633   -0.841637   -0.538421
      6          1           0       -1.114675    0.764188    0.016908
 ---------------------------------------------------------------------
 Rotational constants (GHZ):    126.9622723     25.1003853     24.1992809
 Leave Link  202 at Fri Jan  8 13:35:13 2021, MaxMem=13421772800 cpu:       0.0
 (Enter /opt/g09gh/gaussian/g09/l301.exe)
 Standard basis: 6-31G(d) (6D, 7F)
 Ernie: Thresh=  0.10000D-02 Tol=  0.10000D-05 Strict=F.
 There are    38 symmetry adapted basis functions of A   symmetry.
 Integral buffers will be    131072 words long.
 Raffenetti 2 integral format.
 Two-electron integral symmetry is turned on.
    38 basis functions,    72 primitive gaussians,    38 cartesian basis functions
     9 alpha electrons        9 beta electrons
       nuclear repulsion energy        40.4241928485 Hartrees.
 IExCor= 4639 DFT=T Ex+Corr=wB97XD ExCW=0 ScaHFX=  1.000000
 ScaDFX=  1.000000  1.000000  1.000000  1.000000 ScalE2=  1.000000  1.000000
 IRadAn=      0 IRanWt=     -1 IRanGd=            0 ICorTp=0
  HFx wShort=  0.000000 wLong=  0.200000 cFull=  0.222036 cShort=  0.000000 cLong=  0.777964
  DFx wShort=  0.000000 wLong=  0.200000 cFull=  0.000000 cShort=  0.000000 cLong=  1.000000
 NAtoms=    6 NActive=    6 NUniq=    6 SFac= 7.50D-01 NAtFMM=   80 NAOKFM=F Big=F
 R6Disp: Dispersion energy =        -0.0008163457 Hartrees.
 Nuclear repulsion after empirical dispersion term =       40.4233765028 Hartrees.
 Leave Link  301 at Fri Jan  8 13:35:13 2021, MaxMem=13421772800 cpu:       0.4
 (Enter /opt/g09gh/gaussian/g09/l302.exe)
 NPDir=0 NMtPBC=     1 NCelOv=     1 NCel=       1 NClECP=     1 NCelD=      1
         NCelK=      1 NCelE2=     1 NClLst=     1 CellRange=     0.0.
 One-electron integrals computed using PRISM.
 NBasis=    38 RedAO= T  NBF=    38
 NBsUse=    38 1.00D-06 NBFU=    38
 Precomputing XC quadrature grid using
 IXCGrd= 2 IRadAn=           0 IRanWt=          -1 IRanGd=           0 AccXCQ= 1.00D-10.
 NRdTot=     369 NPtTot=       46428 NUsed=       49102 NTot=       49134
 NSgBfM=    38    38    38    38    38 NAtAll=     6     6.
 Leave Link  302 at Fri Jan  8 13:35:13 2021, MaxMem=13421772800 cpu:       1.1
 (Enter /opt/g09gh/gaussian/g09/l303.exe)
 DipDrv:  MaxL=1.
 Leave Link  303 at Fri Jan  8 13:35:13 2021, MaxMem=13421772800 cpu:       0.3
 (Enter /opt/g09gh/gaussian/g09/l401.exe)
 Initial guess read from the read-write file.
 B after Tr=     0.000000    0.000000    0.000000
         Rot=    1.000000    0.000000    0.000000    0.000000 Ang=   0.00 deg.
 Guess basis will be translated and rotated to current coordinates.
 Initial guess orbital symmetries:
       Occupied  (A) (A) (A) (A) (A) (A) (A) (A) (A)
       Virtual   (A) (A) (A) (A) (A) (A) (A) (A) (A) (A) (A) (A)
                 (A) (A) (A) (A) (A) (A) (A) (A) (A) (A) (A) (A)
                 (A) (A) (A) (A) (A)
 The electronic state of the initial guess is 1-A.
 Generating alternative initial guess.
 Harris functional with IExCor= 4639 diagonalized for initial guess.
 ExpMin= 1.61D-01 ExpMax= 5.48D+03 ExpMxC= 8.25D+02 IAcc=1 IRadAn=         1 AccDes= 0.00D+00
 HarFok:  IExCor= 4639 AccDes= 0.00D+00 IRadAn=         1 IDoV= 1
 ScaDFX=  1.000000  1.000000  1.000000  1.000000
 FoFCou: FMM=F IPFlag=           0 FMFlag=      100000 FMFlg1=           0
         NFxFlg=           0 DoJE=T BraDBF=F KetDBF=T FulRan=T
         Omega=  0.000000  0.000000  1.000000  0.000000  0.000000 ICntrl=     500 IOpCl=  0
         NMat0=    1 NMatS0=    1 NMatT0=    0 NMatD0=    1 NMtDS0=    0 NMtDT0=    0
         I1Cent=           4 NGrid=           0.
 Petite list used in FoFCou.
 Harris En= -110.930648590969    
 Leave Link  401 at Fri Jan  8 13:35:13 2021, MaxMem=13421772800 cpu:       1.6
 (Enter /opt/g09gh/gaussian/g09/l502.exe)
 Closed shell SCF:
 Requested convergence on RMS density matrix=1.00D-08 within 128 cycles.
 Requested convergence on MAX density matrix=1.00D-06.
 Requested convergence on             energy=1.00D-06.
 No special actions if energy rises.
 Using DIIS extrapolation, IDIIS=  1040.
 Integral symmetry usage will be decided dynamically.
        49035 words used for storage of precomputed grid.
 IEnd=       72111 IEndB=       72111 NGot= 13421772800 MDV= 13421718812
 LenX= 13421718812 LenY= 13421716927
 Fock matrices will be formed incrementally for  20 cycles.
 Integral accuracy reduced to 1.0D-05 until final iterations.

 Cycle   1  Pass 0  IDiag  1:
 FoFJK:  IHMeth= 1 ICntrl=     0 DoSepK=T KAlg= 1 I1Cent= 0 FoldK=F
 FoFCou: FMM=F IPFlag=           0 FMFlag=      100000 FMFlg1=           0
         NFxFlg=           0 DoJE=T BraDBF=F KetDBF=F FulRan=T
         Omega=  0.000000  0.000000  1.000000  0.000000  0.000000 ICntrl=     500 IOpCl=  0
         NMat0=    1 NMatS0=    1 NMatT0=    0 NMatD0=    1 NMtDS0=    0 NMtDT0=    0
         I1Cent=           0 NGrid=           0.
 Symmetry not used in FoFCou.
 E= -115.675043232367    
 DIIS: error= 3.62D-03 at cycle   1 NSaved=   1.
 NSaved= 1 IEnMin= 1 EnMin= -115.675043232367     IErMin= 1 ErrMin= 3.62D-03
 ErrMax= 3.62D-03 EMaxC= 1.00D-01 BMatC= 8.04D-04 BMatP= 8.04D-04
 IDIUse=3 WtCom= 9.64D-01 WtEn= 3.62D-02
 Coeff-Com:  0.100D+01
 Coeff-En:   0.100D+01
 Coeff:      0.100D+01
 Gap=     0.514 Goal=   None    Shift=    0.000
 GapD=    0.514 DampG=2.000 DampE=1.000 DampFc=2.0000 IDamp=-1.
 RMSDP=8.17D-04 MaxDP=8.29D-03              OVMax= 9.85D-03

 Cycle   2  Pass 0  IDiag  1:
 RMSU=  5.77D-04    CP:  1.00D+00
 FoFJK:  IHMeth= 1 ICntrl=     0 DoSepK=T KAlg= 1 I1Cent= 0 FoldK=F
 E= -115.676020453238     Delta-E=       -0.000977220872 Rises=F Damp=F
 DIIS: error= 8.08D-04 at cycle   2 NSaved=   2.
 NSaved= 2 IEnMin= 2 EnMin= -115.676020453238     IErMin= 2 ErrMin= 8.08D-04
 ErrMax= 8.08D-04 EMaxC= 1.00D-01 BMatC= 3.77D-05 BMatP= 8.04D-04
 IDIUse=3 WtCom= 9.92D-01 WtEn= 8.08D-03
 Coeff-Com: -0.439D-02 0.100D+01
 Coeff-En:   0.000D+00 0.100D+01
 Coeff:     -0.436D-02 0.100D+01
 Gap=     0.511 Goal=   None    Shift=    0.000
 RMSDP=2.10D-04 MaxDP=1.73D-03 DE=-9.77D-04 OVMax= 2.54D-03

 Cycle   3  Pass 0  IDiag  1:
 RMSU=  1.23D-04    CP:  1.00D+00  1.14D+00
 FoFJK:  IHMeth= 1 ICntrl=     0 DoSepK=T KAlg= 1 I1Cent= 0 FoldK=F
 E= -115.676060366096     Delta-E=       -0.000039912858 Rises=F Damp=F
 DIIS: error= 4.63D-04 at cycle   3 NSaved=   3.
 NSaved= 3 IEnMin= 3 EnMin= -115.676060366096     IErMin= 3 ErrMin= 4.63D-04
 ErrMax= 4.63D-04 EMaxC= 1.00D-01 BMatC= 1.39D-05 BMatP= 3.77D-05
 IDIUse=3 WtCom= 9.95D-01 WtEn= 4.63D-03
 Coeff-Com: -0.471D-01 0.352D+00 0.696D+00
 Coeff-En:   0.000D+00 0.000D+00 0.100D+01
 Coeff:     -0.469D-01 0.350D+00 0.697D+00
 Gap=     0.512 Goal=   None    Shift=    0.000
 RMSDP=8.48D-05 MaxDP=1.05D-03 DE=-3.99D-05 OVMax= 1.09D-03

 Cycle   4  Pass 0  IDiag  1:
 RMSU=  5.42D-05    CP:  1.00D+00  1.18D+00  8.55D-01
 FoFJK:  IHMeth= 1 ICntrl=     0 DoSepK=T KAlg= 1 I1Cent= 0 FoldK=F
 E= -115.676069989552     Delta-E=       -0.000009623456 Rises=F Damp=F
 DIIS: error= 2.07D-04 at cycle   4 NSaved=   4.
 NSaved= 4 IEnMin= 4 EnMin= -115.676069989552     IErMin= 4 ErrMin= 2.07D-04
 ErrMax= 2.07D-04 EMaxC= 1.00D-01 BMatC= 2.02D-06 BMatP= 1.39D-05
 IDIUse=3 WtCom= 9.98D-01 WtEn= 2.07D-03
 Coeff-Com: -0.200D-01 0.331D-01 0.301D+00 0.686D+00
 Coeff-En:   0.000D+00 0.000D+00 0.000D+00 0.100D+01
 Coeff:     -0.199D-01 0.330D-01 0.300D+00 0.687D+00
 Gap=     0.512 Goal=   None    Shift=    0.000
 RMSDP=2.97D-05 MaxDP=2.97D-04 DE=-9.62D-06 OVMax= 3.08D-04

 Cycle   5  Pass 0  IDiag  1:
 RMSU=  1.22D-05    CP:  1.00D+00  1.19D+00  9.77D-01  9.22D-01
 FoFJK:  IHMeth= 1 ICntrl=     0 DoSepK=T KAlg= 1 I1Cent= 0 FoldK=F
 E= -115.676071555244     Delta-E=       -0.000001565692 Rises=F Damp=F
 DIIS: error= 2.06D-05 at cycle   5 NSaved=   5.
 NSaved= 5 IEnMin= 5 EnMin= -115.676071555244     IErMin= 5 ErrMin= 2.06D-05
 ErrMax= 2.06D-05 EMaxC= 1.00D-01 BMatC= 1.40D-08 BMatP= 2.02D-06
 IDIUse=1 WtCom= 1.00D+00 WtEn= 0.00D+00
 Coeff-Com:  0.438D-02-0.194D-01-0.703D-01-0.101D+00 0.119D+01
 Coeff:      0.438D-02-0.194D-01-0.703D-01-0.101D+00 0.119D+01
 Gap=     0.512 Goal=   None    Shift=    0.000
 RMSDP=1.09D-05 MaxDP=8.03D-05 DE=-1.57D-06 OVMax= 1.30D-04

 Cycle   6  Pass 0  IDiag  1:
 RMSU=  1.87D-06    CP:  1.00D+00  1.19D+00  1.01D+00  1.01D+00  1.28D+00
 FoFJK:  IHMeth= 1 ICntrl=     0 DoSepK=T KAlg= 1 I1Cent= 0 FoldK=F
 E= -115.676071593771     Delta-E=       -0.000000038527 Rises=F Damp=F
 DIIS: error= 5.01D-06 at cycle   6 NSaved=   6.
 NSaved= 6 IEnMin= 6 EnMin= -115.676071593771     IErMin= 6 ErrMin= 5.01D-06
 ErrMax= 5.01D-06 EMaxC= 1.00D-01 BMatC= 9.20D-10 BMatP= 1.40D-08
 IDIUse=1 WtCom= 1.00D+00 WtEn= 0.00D+00
 Coeff-Com:  0.144D-02-0.481D-02-0.216D-01-0.353D-01 0.264D+00 0.796D+00
 Coeff:      0.144D-02-0.481D-02-0.216D-01-0.353D-01 0.264D+00 0.796D+00
 Gap=     0.512 Goal=   None    Shift=    0.000
 RMSDP=1.35D-06 MaxDP=9.04D-06 DE=-3.85D-08 OVMax= 1.52D-05

 Initial convergence to 1.0D-05 achieved.  Increase integral accuracy.
 Cycle   7  Pass 1  IDiag  1:
 FoFJK:  IHMeth= 1 ICntrl=     0 DoSepK=T KAlg= 1 I1Cent= 0 FoldK=F
 E= -115.675823479345     Delta-E=        0.000248114426 Rises=F Damp=F
 DIIS: error= 1.41D-04 at cycle   1 NSaved=   1.
 NSaved= 1 IEnMin= 1 EnMin= -115.675823479345     IErMin= 1 ErrMin= 1.41D-04
 ErrMax= 1.41D-04 EMaxC= 1.00D-01 BMatC= 8.52D-07 BMatP= 8.52D-07
 IDIUse=3 WtCom= 9.99D-01 WtEn= 1.41D-03
 Coeff-Com:  0.100D+01
 Coeff-En:   0.100D+01
 Coeff:      0.100D+01
 Gap=     0.512 Goal=   None    Shift=    0.000
 RMSDP=1.35D-06 MaxDP=9.04D-06 DE= 2.48D-04 OVMax= 2.09D-04

 Cycle   8  Pass 1  IDiag  1:
 RMSU=  1.57D-05    CP:  1.00D+00
 FoFJK:  IHMeth= 1 ICntrl=     0 DoSepK=T KAlg= 1 I1Cent= 0 FoldK=F
 E= -115.675824158258     Delta-E=       -0.000000678913 Rises=F Damp=F
 DIIS: error= 3.30D-05 at cycle   2 NSaved=   2.
 NSaved= 2 IEnMin= 2 EnMin= -115.675824158258     IErMin= 2 ErrMin= 3.30D-05
 ErrMax= 3.30D-05 EMaxC= 1.00D-01 BMatC= 4.84D-08 BMatP= 8.52D-07
 IDIUse=1 WtCom= 1.00D+00 WtEn= 0.00D+00
 Coeff-Com:  0.252D-01 0.975D+00
 Coeff:      0.252D-01 0.975D+00
 Gap=     0.511 Goal=   None    Shift=    0.000
 RMSDP=7.90D-06 MaxDP=9.02D-05 DE=-6.79D-07 OVMax= 8.76D-05

 Cycle   9  Pass 1  IDiag  1:
 RMSU=  5.59D-06    CP:  1.00D+00  1.01D+00
 FoFJK:  IHMeth= 1 ICntrl=     0 DoSepK=T KAlg= 1 I1Cent= 0 FoldK=F
 E= -115.675824171805     Delta-E=       -0.000000013546 Rises=F Damp=F
 DIIS: error= 2.83D-05 at cycle   3 NSaved=   3.
 NSaved= 3 IEnMin= 3 EnMin= -115.675824171805     IErMin= 3 ErrMin= 2.83D-05
 ErrMax= 2.83D-05 EMaxC= 1.00D-01 BMatC= 4.49D-08 BMatP= 4.84D-08
 IDIUse=1 WtCom= 1.00D+00 WtEn= 0.00D+00
 Coeff-Com: -0.475D-01 0.506D+00 0.542D+00
 Coeff:     -0.475D-01 0.506D+00 0.542D+00
 Gap=     0.511 Goal=   None    Shift=    0.000
 RMSDP=3.21D-06 MaxDP=4.29D-05 DE=-1.35D-08 OVMax= 3.82D-05

 Cycle  10  Pass 1  IDiag  1:
 RMSU=  1.08D-06    CP:  1.00D+00  1.06D+00  6.77D-01
 FoFJK:  IHMeth= 1 ICntrl=     0 DoSepK=T KAlg= 1 I1Cent= 0 FoldK=F
 E= -115.675824202429     Delta-E=       -0.000000030624 Rises=F Damp=F
 DIIS: error= 1.39D-06 at cycle   4 NSaved=   4.
 NSaved= 4 IEnMin= 4 EnMin= -115.675824202429     IErMin= 4 ErrMin= 1.39D-06
 ErrMax= 1.39D-06 EMaxC= 1.00D-01 BMatC= 1.16D-10 BMatP= 4.49D-08
 IDIUse=1 WtCom= 1.00D+00 WtEn= 0.00D+00
 Coeff-Com: -0.243D-02-0.163D-01 0.751D-02 0.101D+01
 Coeff:     -0.243D-02-0.163D-01 0.751D-02 0.101D+01
 Gap=     0.511 Goal=   None    Shift=    0.000
 RMSDP=5.32D-07 MaxDP=4.99D-06 DE=-3.06D-08 OVMax= 5.52D-06

 Cycle  11  Pass 1  IDiag  1:
 RMSU=  2.18D-07    CP:  1.00D+00  1.07D+00  7.17D-01  1.19D+00
 FoFJK:  IHMeth= 1 ICntrl=     0 DoSepK=T KAlg= 1 I1Cent= 0 FoldK=F
 E= -115.675824202636     Delta-E=       -0.000000000207 Rises=F Damp=F
 DIIS: error= 3.29D-07 at cycle   5 NSaved=   5.
 NSaved= 5 IEnMin= 5 EnMin= -115.675824202636     IErMin= 5 ErrMin= 3.29D-07
 ErrMax= 3.29D-07 EMaxC= 1.00D-01 BMatC= 8.74D-12 BMatP= 1.16D-10
 IDIUse=1 WtCom= 1.00D+00 WtEn= 0.00D+00
 Coeff-Com:  0.143D-02-0.234D-01-0.228D-01 0.120D+00 0.924D+00
 Coeff:      0.143D-02-0.234D-01-0.228D-01 0.120D+00 0.924D+00
 Gap=     0.511 Goal=   None    Shift=    0.000
 RMSDP=1.49D-07 MaxDP=1.39D-06 DE=-2.07D-10 OVMax= 1.40D-06

 Cycle  12  Pass 1  IDiag  1:
 RMSU=  5.19D-08    CP:  1.00D+00  1.07D+00  7.25D-01  1.26D+00  1.09D+00
 FoFJK:  IHMeth= 1 ICntrl=     0 DoSepK=T KAlg= 1 I1Cent= 0 FoldK=F
 E= -115.675824202649     Delta-E=       -0.000000000013 Rises=F Damp=F
 DIIS: error= 1.32D-07 at cycle   6 NSaved=   6.
 NSaved= 6 IEnMin= 6 EnMin= -115.675824202649     IErMin= 6 ErrMin= 1.32D-07
 ErrMax= 1.32D-07 EMaxC= 1.00D-01 BMatC= 6.07D-13 BMatP= 8.74D-12
 IDIUse=1 WtCom= 1.00D+00 WtEn= 0.00D+00
 Coeff-Com:  0.480D-03-0.442D-02-0.505D-02-0.124D-01 0.184D+00 0.837D+00
 Coeff:      0.480D-03-0.442D-02-0.505D-02-0.124D-01 0.184D+00 0.837D+00
 Gap=     0.511 Goal=   None    Shift=    0.000
 RMSDP=3.61D-08 MaxDP=3.39D-07 DE=-1.28D-11 OVMax= 4.17D-07

 Cycle  13  Pass 1  IDiag  1:
 RMSU=  1.48D-08    CP:  1.00D+00  1.07D+00  7.26D-01  1.27D+00  1.16D+00
                    CP:  1.08D+00
 FoFJK:  IHMeth= 1 ICntrl=     0 DoSepK=T KAlg= 1 I1Cent= 0 FoldK=F
 E= -115.675824202650     Delta-E=       -0.000000000001 Rises=F Damp=F
 DIIS: error= 4.67D-08 at cycle   7 NSaved=   7.
 NSaved= 7 IEnMin= 7 EnMin= -115.675824202650     IErMin= 7 ErrMin= 4.67D-08
 ErrMax= 4.67D-08 EMaxC= 1.00D-01 BMatC= 7.31D-14 BMatP= 6.07D-13
 IDIUse=1 WtCom= 1.00D+00 WtEn= 0.00D+00
 Coeff-Com: -0.523D-04 0.131D-02 0.108D-02-0.157D-01-0.457D-01 0.224D+00
 Coeff-Com:  0.835D+00
 Coeff:     -0.523D-04 0.131D-02 0.108D-02-0.157D-01-0.457D-01 0.224D+00
 Coeff:      0.835D+00
 Gap=     0.511 Goal=   None    Shift=    0.000
 RMSDP=1.37D-08 MaxDP=1.29D-07 DE=-6.82D-13 OVMax= 1.43D-07

 Cycle  14  Pass 1  IDiag  1:
 RMSU=  3.09D-09    CP:  1.00D+00  1.07D+00  7.27D-01  1.27D+00  1.18D+00
                    CP:  1.20D+00  1.00D+00
 FoFJK:  IHMeth= 1 ICntrl=     0 DoSepK=T KAlg= 1 I1Cent= 0 FoldK=F
 E= -115.675824202650     Delta-E=        0.000000000000 Rises=F Damp=F
 DIIS: error= 4.25D-09 at cycle   8 NSaved=   8.
 NSaved= 8 IEnMin= 8 EnMin= -115.675824202650     IErMin= 8 ErrMin= 4.25D-09
 ErrMax= 4.25D-09 EMaxC= 1.00D-01 BMatC= 1.22D-15 BMatP= 7.31D-14
 IDIUse=1 WtCom= 1.00D+00 WtEn= 0.00D+00
 Coeff-Com: -0.100D-04 0.420D-04 0.260D-04 0.179D-02-0.215D-02-0.567D-01
 Coeff-Com: -0.567D-01 0.111D+01
 Coeff:     -0.100D-04 0.420D-04 0.260D-04 0.179D-02-0.215D-02-0.567D-01
 Coeff:     -0.567D-01 0.111D+01
 Gap=     0.511 Goal=   None    Shift=    0.000
 RMSDP=3.52D-09 MaxDP=2.99D-08 DE=-1.99D-13 OVMax= 3.45D-08

 SCF Done:  E(RwB97XD) =  -115.675824203     A.U. after   14 cycles
             Convg  =    0.3520D-08             -V/T =  2.0084
 KE= 1.147159104470D+02 PE=-3.519696469841D+02 EE= 8.115453583165D+01
 Leave Link  502 at Fri Jan  8 13:35:16 2021, MaxMem=13421772800 cpu:      20.9
 (Enter /opt/g09gh/gaussian/g09/l701.exe)
 Compute integral first derivatives.
 ... and contract with generalized density number  0.
 R6Disp: Adding dispersion energy 1st derivatives to the gradient.
 Leave Link  701 at Fri Jan  8 13:35:16 2021, MaxMem=13421772800 cpu:       0.9
 (Enter /opt/g09gh/gaussian/g09/l702.exe)
 L702 exits ... SP integral derivatives will be done elsewhere.
 Leave Link  702 at Fri Jan  8 13:35:16 2021, MaxMem=13421772800 cpu:       0.3
 (Enter /opt/g09gh/gaussian/g09/l703.exe)
 Compute integral first derivatives, UseDBF=F ICtDFT=           0.
 Integral derivatives from FoFDir, PRISM(SPDF).
 Calling FoFJK, ICntrl=      2127 FMM=F ISym2X=0 I1Cent= 0 IOpClX= 0 NMat=1 NMatS=1 NMatT=0.
 FoFJK:  IHMeth= 1 ICntrl=  2127 DoSepK=T KAlg= 1 I1Cent= 0 FoldK=F
 FoFCou: FMM=F IPFlag=           0 FMFlag=      100000 FMFlg1=         800
         NFxFlg=           0 DoJE=F BraDBF=F KetDBF=F FulRan=T
         Omega=  0.000000  0.000000  1.000000  0.000000  0.000000 ICntrl=    2527 IOpCl=  0
         NMat0=    1 NMatS0=    1 NMatT0=    0 NMatD0=    1 NMtDS0=    0 NMtDT0=    0
         I1Cent=           0 NGrid=           0.
 Symmetry not used in FoFCou.
 Leave Link  703 at Fri Jan  8 13:35:17 2021, MaxMem=13421772800 cpu:       2.4
 (Enter /opt/g09gh/gaussian/g09/l716.exe)
 Dipole        = 3.18146636D-01 6.44241983D-01-1.32780934D-02
 ***** Axes restored to original set *****
 -------------------------------------------------------------------
 Center     Atomic                   Forces (Hartrees/Bohr)
 Number     Number              X              Y              Z
 -------------------------------------------------------------------
      1        8          -0.001057602    0.003478552   -0.002196946
      2        6          -0.002217012   -0.005043381   -0.001391555
      3        1           0.002057762    0.001669039    0.000080385
      4        1           0.001300602    0.000100441    0.000397157
      5        1           0.003023519    0.000184518    0.000921915
      6        1          -0.003107269   -0.000389169    0.002189044
 -------------------------------------------------------------------
 Cartesian Forces:  Max     0.005043381 RMS     0.002158224
 Leave Link  716 at Fri Jan  8 13:35:17 2021, MaxMem=13421772800 cpu:       0.3
 (Enter /opt/g09gh/gaussian/g09/l103.exe)

 GradGradGradGradGradGradGradGradGradGradGradGradGradGradGradGradGradGrad
 Berny optimization.
 Using GEDIIS/GDIIS optimizer.
 Internal  Forces:  Max     0.005418432 RMS     0.002437065
 Search for a local minimum.
 Step number   2 out of a maximum of    2
 All quantities printed in internal units (Hartrees-Bohrs-Radians)
 RMS Force = .25673D-02 SwitMx=.10000D-02 MixMth= 1
 Mixed Optimization -- RFO/linear search
 Update second derivatives using D2CorX and points    1    2
 DE= -1.39D-03 DEPred=-1.81D-03 R= 7.70D-01
 SS=  1.41D+00  RLast= 1.22D-01 DXNew= 5.0454D-01 3.6507D-01
 Trust test= 7.70D-01 RLast= 1.22D-01 DXMaxT set to 3.65D-01
 The second derivative matrix:
                          R1        R2        R3        R4        R5
           R1           0.40756
           R2           0.00408   0.54495
           R3           0.00824   0.00083   0.34715
           R4           0.00451   0.00025  -0.00648   0.34945
           R5           0.00642   0.00054  -0.00756  -0.00572   0.35352
           A1           0.02803   0.00601  -0.00092  -0.00288  -0.00196
           A2           0.01155   0.00225  -0.00234  -0.00254  -0.00248
           A3           0.00329   0.00076   0.00039   0.00001   0.00020
           A4           0.02126   0.00395  -0.00601  -0.00585  -0.00602
           A5          -0.00981  -0.00196   0.00155   0.00186   0.00173
           A6          -0.01485  -0.00282   0.00370   0.00374   0.00378
           A7          -0.01274  -0.00244   0.00299   0.00308   0.00308
           D1          -0.00259  -0.00047   0.00088   0.00081   0.00086
           D2          -0.00143  -0.00026   0.00049   0.00045   0.00047
           D3          -0.00124  -0.00022   0.00042   0.00039   0.00041
                          A1        A2        A3        A4        A5
           A1           0.19270
           A2           0.01094   0.16317
           A3           0.00449   0.00163   0.16058
           A4           0.01798   0.00470   0.00280   0.16631
           A5          -0.00987  -0.00300  -0.00143  -0.00460   0.16279
           A6          -0.01320  -0.00362  -0.00201  -0.00509   0.00348
           A7          -0.01156  -0.00323  -0.00175  -0.00463   0.00309
           D1          -0.00200  -0.00047  -0.00033  -0.00057   0.00048
           D2          -0.00111  -0.00026  -0.00018  -0.00032   0.00027
           D3          -0.00096  -0.00023  -0.00016  -0.00027   0.00023
                          A6        A7        D1        D2        D3
           A6           0.16402
           A7           0.00362   0.16325
           D1           0.00049   0.00045   0.01141
           D2           0.00027   0.00025   0.00002   0.01138
           D3           0.00023   0.00022   0.00002   0.00001   0.01137
 Use linear search instead of GDIIS.
     Eigenvalues ---    0.15513   0.16000   0.16000   0.20645   0.33737
     Eigenvalues ---    0.35479   0.35884   0.41746   0.545391000.00000
     Eigenvalues --- 1000.000001000.000001000.000001000.000001000.00000
 RFO step:  Lambda=-1.41852605D-04 EMin= 1.55126995D-01
 Quartic linear search produced a step of -0.18608.
 Iteration  1 RMS(Cart)=  0.01334835 RMS(Int)=  0.00008166
 Iteration  2 RMS(Cart)=  0.00006788 RMS(Int)=  0.00002458
 Iteration  3 RMS(Cart)=  0.00000000 RMS(Int)=  0.00002458
 Iteration  1 RMS(Cart)=  0.00000809 RMS(Int)=  0.00001084
 Iteration  2 RMS(Cart)=  0.00000483 RMS(Int)=  0.00001207
 Iteration  3 RMS(Cart)=  0.00000289 RMS(Int)=  0.00001376
 Iteration  4 RMS(Cart)=  0.00000173 RMS(Int)=  0.00001501
 Iteration  5 RMS(Cart)=  0.00000104 RMS(Int)=  0.00001583
 Iteration  6 RMS(Cart)=  0.00000063 RMS(Int)=  0.00001634
 Variable       Old X    -DE/DX   Delta X   Delta X   Delta X     New X
                                 (Linear)    (Quad)   (Total)
    R1        2.66851   0.00377   0.01051  -0.00546   0.00504   2.67355
    R2        1.81683   0.00092   0.00128  -0.00022   0.00106   1.81789
    R3        2.07472   0.00083  -0.00502   0.00825   0.00323   2.07795
    R4        2.07354   0.00027  -0.00440   0.00620   0.00179   2.07533
    R5        2.06574   0.00055  -0.00471   0.00720   0.00249   2.06823
    A1        1.86443   0.00542   0.01687   0.00515   0.02202   1.88645
    A2        1.94280   0.00173   0.00308   0.00651   0.00956   1.95236
    A3        1.96257   0.00042   0.00297  -0.00004   0.00293   1.96550
    A4        1.85846   0.00433   0.00234   0.01539   0.01768   1.87614
    A5        1.91217  -0.00281  -0.00349  -0.00371  -0.00717   1.90500
    A6        1.89676  -0.00209  -0.00261  -0.01065  -0.01336   1.88340
    A7        1.88854  -0.00157  -0.00261  -0.00793  -0.01055   1.87799
    D1        1.60021  -0.00230   0.00000   0.00000   0.00000   1.60021
    D2       -0.55297  -0.00023   0.00000   0.00000   0.00000  -0.55297
    D3       -2.61846  -0.00127   0.00000   0.00000   0.00000  -2.61846
         Item               Value     Threshold  Converged?
 Maximum Force            0.005418     0.002500     NO 
 RMS     Force            0.002567     0.001667     NO 
 Maximum Displacement     0.036417     0.010000     NO 
 RMS     Displacement     0.013338     0.006667     NO 
 Predicted change in Energy=-1.552135D-04
 Optimization stopped.
    -- Number of steps exceeded,  NStep=   2
    -- Flag reset to prevent archiving.
                           ----------------------------
                           ! Non-Optimized Parameters !
                           ! (Angstroms and Degrees)  !
 --------------------------                            --------------------------
 ! Name  Definition              Value          Derivative Info.                !
 --------------------------------------------------------------------------------
 ! R1    R(1,2)                  1.4148         -DE/DX =    0.0038              !
 ! R2    R(1,6)                  0.962          -DE/DX =    0.0009              !
 ! R3    R(2,3)                  1.0996         -DE/DX =    0.0008              !
 ! R4    R(2,4)                  1.0982         -DE/DX =    0.0003              !
 ! R5    R(2,5)                  1.0945         -DE/DX =    0.0005              !
 ! A1    A(2,1,6)              108.0855         -DE/DX =    0.0054              !
 ! A2    A(1,2,3)              111.862          -DE/DX =    0.0017              !
 ! A3    A(1,2,4)              112.6151         -DE/DX =    0.0004              !
 ! A4    A(1,2,5)              107.495          -DE/DX =    0.0043              !
 ! A5    A(3,2,4)              109.1487         -DE/DX =   -0.0028              !
 ! A6    A(3,2,5)              107.9108         -DE/DX =   -0.0021              !
 ! A7    A(4,2,5)              107.6008         -DE/DX =   -0.0016              !
 ! D1    D(6,1,2,3)             91.6854         -DE/DX =   -0.0023              !
 ! D2    D(6,1,2,4)            -31.6828         -DE/DX =   -0.0002              !
 ! D3    D(6,1,2,5)           -150.0266         -DE/DX =   -0.0013              !
 --------------------------------------------------------------------------------
 GradGradGradGradGradGradGradGradGradGradGradGradGradGradGradGradGradGrad

 Largest change from initial coordinates is atom    6       0.097 Angstoms.
 Leave Link  103 at Fri Jan  8 13:35:17 2021, MaxMem=13421772800 cpu:       0.0
 (Enter /opt/g09gh/gaussian/g09/l202.exe)
                          Input orientation:                          
 ---------------------------------------------------------------------
 Center     Atomic      Atomic             Coordinates (Angstroms)
 Number     Number       Type             X           Y           Z
 ---------------------------------------------------------------------
      1          8           0       -0.740954   -0.142732   -0.000511
      2          6           0        0.661550    0.021703    0.002004
      3          1           0        1.061625    0.020809    1.024407
      4          1           0        0.977053    0.936598   -0.515125
      5          1           0        1.075218   -0.834940   -0.536510
      6          1           0       -1.124502    0.738742    0.014655
 ---------------------------------------------------------------------
                    Distance matrix (angstroms):
                    1          2          3          4          5
     1  O    0.000000
     2  C    1.412113   0.000000
     3  H    2.080023   1.097893   0.000000
     4  H    2.093162   1.097268   1.793316   0.000000
     5  H    2.016167   1.093141   1.780156   1.774385   0.000000
     6  H    0.961423   1.924653   2.512803   2.176315   2.760259
                    6
     6  H    0.000000
 Stoichiometry    CH4O
 Framework group  C1[X(CH4O)]
 Deg. of freedom    12
 Full point group                 C1      NOp   1
 Largest Abelian subgroup         C1      NOp   1
 Largest concise Abelian subgroup C1      NOp   1
                         Standard orientation:                         
 ---------------------------------------------------------------------
 Center     Atomic      Atomic             Coordinates (Angstroms)
 Number     Number       Type             X           Y           Z
 ---------------------------------------------------------------------
      1          8           0       -0.744647   -0.123007   -0.000402
      2          6           0        0.660207    0.019967    0.002185
      3          1           0        1.060413    0.010566    1.024494
      4          1           0        0.989560    0.931140   -0.512875
      5          1           0        1.060633   -0.841637   -0.538421
      6          1           0       -1.114675    0.764188    0.016908
 ---------------------------------------------------------------------
 Rotational constants (GHZ):    126.9622723     25.1003853     24.1992809
 Leave Link  202 at Fri Jan  8 13:35:17 2021, MaxMem=13421772800 cpu:       0.0
 (Enter /opt/g09gh/gaussian/g09/l601.exe)
 Copying SCF densities to generalized density rwf, IOpCl= 0 IROHF=0.

 **********************************************************************

            Population analysis using the SCF density.

 **********************************************************************

 Orbital symmetries:
       Occupied  (A) (A) (A) (A) (A) (A) (A) (A) (A)
       Virtual   (A) (A) (A) (A) (A) (A) (A) (A) (A) (A) (A) (A)
                 (A) (A) (A) (A) (A) (A) (A) (A) (A) (A) (A) (A)
                 (A) (A) (A) (A) (A)
 The electronic state is 1-A.
 Alpha  occ. eigenvalues --  -19.26102 -10.33244  -1.11449  -0.77377  -0.59162
 Alpha  occ. eigenvalues --   -0.52278  -0.50481  -0.41451  -0.34725
 Alpha virt. eigenvalues --    0.16423   0.22163   0.24872   0.26347   0.30028
 Alpha virt. eigenvalues --    0.63025   0.65555   0.66531   0.89599   0.95077
 Alpha virt. eigenvalues --    0.96359   0.99879   1.04475   1.06671   1.11490
 Alpha virt. eigenvalues --    1.22458   1.55285   1.58021   1.64340   1.83620
 Alpha virt. eigenvalues --    2.15588   2.19924   2.25963   2.43429   2.46810
 Alpha virt. eigenvalues --    2.57782   2.89346   3.80718   4.31791
          Condensed to atoms (all electrons):
              1          2          3          4          5          6
     1  O    8.243967   0.250034  -0.042958  -0.028790  -0.041163   0.249343
     2  C    0.250034   4.888019   0.376489   0.375282   0.390441  -0.030086
     3  H   -0.042958   0.376489   0.595740  -0.041482  -0.040622   0.000404
     4  H   -0.028790   0.375282  -0.041482   0.590582  -0.029816  -0.010896
     5  H   -0.041163   0.390441  -0.040622  -0.029816   0.540041   0.005981
     6  H    0.249343  -0.030086   0.000404  -0.010896   0.005981   0.377331
 Mulliken atomic charges:
              1
     1  O   -0.630432
     2  C   -0.250178
     3  H    0.152429
     4  H    0.145120
     5  H    0.175138
     6  H    0.407923
 Sum of Mulliken atomic charges =   0.00000
 Mulliken charges with hydrogens summed into heavy atoms:
              1
     1  O   -0.222508
     2  C    0.222508
 Sum of Mulliken charges with hydrogens summed into heavy atoms =   0.00000
 Electronic spatial extent (au):  <R**2>=             83.2293
 Charge=              0.0000 electrons
 Dipole moment (field-independent basis, Debye):
    X=              0.8086    Y=              1.6375    Z=             -0.0337  Tot=              1.8266
 Quadrupole moment (field-independent basis, Debye-Ang):
   XX=            -12.6157   YY=            -11.8905   ZZ=            -13.4316
   XY=             -2.1744   XZ=             -0.1184   YZ=              0.0549
 Traceless Quadrupole moment (field-independent basis, Debye-Ang):
   XX=              0.0302   YY=              0.7555   ZZ=             -0.7857
   XY=             -2.1744   XZ=             -0.1184   YZ=              0.0549
 Octapole moment (field-independent basis, Debye-Ang**2):
  XXX=             -4.4556  YYY=              1.2415  ZZZ=              0.3483  XYY=             -1.9319
  XXY=              2.3256  XXZ=             -0.0494  XZZ=             -0.4356  YZZ=              0.1305
  YYZ=             -0.5303  XYZ=              0.0214
 Hexadecapole moment (field-independent basis, Debye-Ang**3):
 XXXX=            -58.9299 YYYY=            -19.0224 ZZZZ=            -18.6453 XXXY=             -3.4650
 XXXZ=             -0.2122 YYYX=             -2.1266 YYYZ=              0.0697 ZZZX=              0.3683
 ZZZY=              0.0786 XXYY=            -11.9559 XXZZ=            -13.2986 YYZZ=             -6.3800
 XXYZ=              0.1389 YYXZ=             -0.6495 ZZXY=             -0.4651
 N-N= 4.042337650282D+01 E-N=-3.519696471438D+02  KE= 1.147159104470D+02
 No NMR shielding tensors so no spin-rotation constants.
 Leave Link  601 at Fri Jan  8 13:35:17 2021, MaxMem=13421772800 cpu:       0.9
 (Enter /opt/g09gh/gaussian/g09/l9999.exe)


 A SLIP OF THE FOOT YOU MAY SOON RECOVER, BUT A SLIP OF THE TONGUE
 YOU MAY NEVER GET OVER. -- BEN FRANKLIN
 Error termination request processed by link 9999.
 Error termination via Lnk1e in /opt/g09gh/gaussian/g09/l9999.exe at Fri Jan  8 13:35:17 2021.
 Job cpu time:  0 days  0 hours  1 minutes  0.8 seconds.
 File lengths (MBytes):  RWF=      5 Int=      0 D2E=      0 Chk=      1 Scr=      1
