6
methanol-opt-1_2-1-182.log	Energy:  -71785.4053033
O         -0.75734        0.12011       -0.00506
C          0.67631       -0.01230       -0.00518
H          1.09057        0.98044       -0.01973
H          1.05144       -0.60798       -0.83118
H          1.04145       -0.51347        0.88882
H         -1.18261       -0.74614        0.03369
