6
methanol-opt-2_2-1-182.log	Energy:  -72588.0841385
O         -0.74479        0.12193       -0.00527
C          0.66005       -0.01071       -0.00523
H          1.07511        0.99714       -0.02105
H          1.01806       -0.61830       -0.84791
H          1.00749       -0.51947        0.90724
H         -1.10266       -0.77058        0.03528
