 Entering Gaussian System, Link 0=/opt/g09gh/gaussian/g09/g09
 Input=methanol-sp-2-1-062.com
 Output=methanol-sp-2-1-062.log
 Initial command:
 /opt/g09gh/gaussian/g09/l1.exe /scratch/bdw2292/Gau-methanol/Gau-13059.inp -scrdir=/scratch/bdw2292/Gau-methanol/
 Entering Link 1 = /opt/g09gh/gaussian/g09/l1.exe PID=     13060.
  
 Copyright (c) 1988,1990,1992,1993,1995,1998,2003,2009, Gaussian, Inc.
                  All Rights Reserved.
  
 This is part of the Gaussian(R) 09 program.  It is based on
 the Gaussian(R) 03 system (copyright 2003, Gaussian, Inc.),
 the Gaussian(R) 98 system (copyright 1998, Gaussian, Inc.),
 the Gaussian(R) 94 system (copyright 1995, Gaussian, Inc.),
 the Gaussian 92(TM) system (copyright 1992, Gaussian, Inc.),
 the Gaussian 90(TM) system (copyright 1990, Gaussian, Inc.),
 the Gaussian 88(TM) system (copyright 1988, Gaussian, Inc.),
 the Gaussian 86(TM) system (copyright 1986, Carnegie Mellon
 University), and the Gaussian 82(TM) system (copyright 1983,
 Carnegie Mellon University). Gaussian is a federally registered
 trademark of Gaussian, Inc.
  
 This software contains proprietary and confidential information,
 including trade secrets, belonging to Gaussian, Inc.
  
 This software is provided under written license and may be
 used, copied, transmitted, or stored only in accord with that
 written license.
  
 The following legend is applicable only to US Government
 contracts under FAR:
  
                    RESTRICTED RIGHTS LEGEND
  
 Use, reproduction and disclosure by the US Government is
 subject to restrictions as set forth in subparagraphs (a)
 and (c) of the Commercial Computer Software - Restricted
 Rights clause in FAR 52.227-19.
  
 Gaussian, Inc.
 340 Quinnipiac St., Bldg. 40, Wallingford CT 06492
  
  
 ---------------------------------------------------------------
 Warning -- This program may not be used in any manner that
 competes with the business of Gaussian, Inc. or will provide
 assistance to any competitor of Gaussian, Inc.  The licensee
 of this program is prohibited from giving any competitor of
 Gaussian, Inc. access to this program.  By using this program,
 the user acknowledges that Gaussian, Inc. is engaged in the
 business of creating and licensing software in the field of
 computational chemistry and represents and warrants to the
 licensee that it is not a competitor of Gaussian, Inc. and that
 it will not use this program in any manner prohibited above.
 ---------------------------------------------------------------
  

 Cite this work as:
 Gaussian 09, Revision A.02,
 M. J. Frisch, G. W. Trucks, H. B. Schlegel, G. E. Scuseria, 
 M. A. Robb, J. R. Cheeseman, G. Scalmani, V. Barone, B. Mennucci, 
 G. A. Petersson, H. Nakatsuji, M. Caricato, X. Li, H. P. Hratchian, 
 A. F. Izmaylov, J. Bloino, G. Zheng, J. L. Sonnenberg, M. Hada, 
 M. Ehara, K. Toyota, R. Fukuda, J. Hasegawa, M. Ishida, T. Nakajima, 
 Y. Honda, O. Kitao, H. Nakai, T. Vreven, J. A. Montgomery, Jr., 
 J. E. Peralta, F. Ogliaro, M. Bearpark, J. J. Heyd, E. Brothers, 
 K. N. Kudin, V. N. Staroverov, R. Kobayashi, J. Normand, 
 K. Raghavachari, A. Rendell, J. C. Burant, S. S. Iyengar, J. Tomasi, 
 M. Cossi, N. Rega, J. M. Millam, M. Klene, J. E. Knox, J. B. Cross, 
 V. Bakken, C. Adamo, J. Jaramillo, R. Gomperts, R. E. Stratmann, 
 O. Yazyev, A. J. Austin, R. Cammi, C. Pomelli, J. W. Ochterski, 
 R. L. Martin, K. Morokuma, V. G. Zakrzewski, G. A. Voth, 
 P. Salvador, J. J. Dannenberg, S. Dapprich, A. D. Daniels, 
 O. Farkas, J. B. Foresman, J. V. Ortiz, J. Cioslowski, 
 and D. J. Fox, Gaussian, Inc., Wallingford CT, 2009.
 
 ******************************************
 Gaussian 09:  EM64L-G09RevA.02 11-Jun-2009
                 8-Jan-2021 
 ******************************************
 %RWF=/scratch/bdw2292/Gau-methanol/,200GB
 %Nosave
 %Chk=methanol-sp-2-1-062.chk
 %Mem=100GB
 %Nproc=8
 Will use up to    8 processors via shared memory.
 ---------------------------------------------------------------------
 #P wB97XD/6-311+G* SP SCF=(qc,maxcycle=800) Pop=NBORead MaxDisk=200GB
 ---------------------------------------------------------------------
 1/38=1/1;
 2/12=2,17=6,18=5,40=1/2;
 3/5=4,6=6,7=11,11=2,16=1,25=1,30=1,74=-58/1,2,3;
 4//1;
 5/5=2,7=800,8=3,38=5/8;
 6/7=2,8=2,9=2,10=2,28=1,40=1/1,7;
 99/5=1,9=1/99;
 Leave Link    1 at Fri Jan  8 13:50:40 2021, MaxMem=13421772800 cpu:       0.5
 (Enter /opt/g09gh/gaussian/g09/l101.exe)
 ---------------------------------------------------------------
 methanol Rotatable Bond SP Calculation on node37.bme.utexas.edu
 ---------------------------------------------------------------
 Symbolic Z-matrix:
 Charge =  0 Multiplicity = 1
 O                    -0.75692   0.10467  -0.00002 
 C                     0.65917  -0.00925  -0.00004 
 H                     1.0161   -0.52639  -0.90364 
 H                     1.01609  -0.52641   0.90367 
 H                     1.10986   0.99402   0.00004 
 H                    -1.13185  -0.79037  -0.00001 
 
 NAtoms=      6 NQM=      6 NQMF=      0 NMic=      0 NMicF=      0 NTot=      6.
                    Isotopes and Nuclear Properties:
 (Nuclear quadrupole moments (NQMom) in fm**2, nuclear magnetic moments (NMagM)
  in nuclear magnetons)

  Atom         1           2           3           4           5           6
 IAtWgt=          16          12           1           1           1           1
 AtmWgt=  15.9949146  12.0000000   1.0078250   1.0078250   1.0078250   1.0078250
 NucSpn=           0           0           1           1           1           1
 AtZEff=   0.0000000   0.0000000   0.0000000   0.0000000   0.0000000   0.0000000
 NQMom=    0.0000000   0.0000000   0.0000000   0.0000000   0.0000000   0.0000000
 NMagM=    0.0000000   0.0000000   2.7928460   2.7928460   2.7928460   2.7928460
 Leave Link  101 at Fri Jan  8 13:50:40 2021, MaxMem=13421772800 cpu:       1.2
 (Enter /opt/g09gh/gaussian/g09/l202.exe)
                          Input orientation:                          
 ---------------------------------------------------------------------
 Center     Atomic      Atomic             Coordinates (Angstroms)
 Number     Number       Type             X           Y           Z
 ---------------------------------------------------------------------
      1          8           0       -0.756918    0.104669   -0.000017
      2          6           0        0.659174   -0.009248   -0.000042
      3          1           0        1.016097   -0.526394   -0.903636
      4          1           0        1.016087   -0.526414    0.903666
      5          1           0        1.109857    0.994023    0.000039
      6          1           0       -1.131847   -0.790372   -0.000011
 ---------------------------------------------------------------------
                    Distance matrix (angstroms):
                    1          2          3          4          5
     1  O    0.000000
     2  C    1.420667   0.000000
     3  H    2.087666   1.100598   0.000000
     4  H    2.087691   1.100698   1.807302   0.000000
     5  H    2.067801   1.099849   1.771182   1.771176   0.000000
     6  H    0.970397   1.953948   2.345184   2.345192   2.865188
                    6
     6  H    0.000000
 Stoichiometry    CH4O
 Framework group  C1[X(CH4O)]
 Deg. of freedom    12
 Full point group                 C1      NOp   1
 Largest Abelian subgroup         C1      NOp   1
 Largest concise Abelian subgroup C1      NOp   1
                         Standard orientation:                         
 ---------------------------------------------------------------------
 Center     Atomic      Atomic             Coordinates (Angstroms)
 Number     Number       Type             X           Y           Z
 ---------------------------------------------------------------------
      1          8           0       -0.748708    0.128686    0.000001
      2          6           0        0.663788   -0.023455   -0.000024
      3          1           0        1.006607   -0.550056   -0.903618
      4          1           0        1.006597   -0.550076    0.903684
      5          1           0        1.141417    0.967272    0.000057
      6          1           0       -1.147686   -0.755897    0.000007
 ---------------------------------------------------------------------
 Rotational constants (GHZ):    126.8907335     24.6549126     23.8510137
 Leave Link  202 at Fri Jan  8 13:50:40 2021, MaxMem=13421772800 cpu:       0.4
 (Enter /opt/g09gh/gaussian/g09/l301.exe)
 Standard basis: 6-311+G(d) (5D, 7F)
 Ernie: Thresh=  0.10000D-02 Tol=  0.10000D-05 Strict=F.
 There are    56 symmetry adapted basis functions of A   symmetry.
 Integral buffers will be    131072 words long.
 Raffenetti 2 integral format.
 Two-electron integral symmetry is turned on.
    56 basis functions,    92 primitive gaussians,    58 cartesian basis functions
     9 alpha electrons        9 beta electrons
       nuclear repulsion energy        40.1523069147 Hartrees.
 IExCor= 4639 DFT=T Ex+Corr=wB97XD ExCW=0 ScaHFX=  1.000000
 ScaDFX=  1.000000  1.000000  1.000000  1.000000 ScalE2=  1.000000  1.000000
 IRadAn=      0 IRanWt=     -1 IRanGd=            0 ICorTp=0
  HFx wShort=  0.000000 wLong=  0.200000 cFull=  0.222036 cShort=  0.000000 cLong=  0.777964
  DFx wShort=  0.000000 wLong=  0.200000 cFull=  0.000000 cShort=  0.000000 cLong=  1.000000
 NAtoms=    6 NActive=    6 NUniq=    6 SFac= 7.50D-01 NAtFMM=   80 NAOKFM=F Big=F
 R6Disp: Dispersion energy =        -0.0008387442 Hartrees.
 Nuclear repulsion after empirical dispersion term =       40.1514681704 Hartrees.
 Leave Link  301 at Fri Jan  8 13:50:41 2021, MaxMem=13421772800 cpu:       0.6
 (Enter /opt/g09gh/gaussian/g09/l302.exe)
 NPDir=0 NMtPBC=     1 NCelOv=     1 NCel=       1 NClECP=     1 NCelD=      1
         NCelK=      1 NCelE2=     1 NClLst=     1 CellRange=     0.0.
 One-electron integrals computed using PRISM.
 NBasis=    56 RedAO= T  NBF=    56
 NBsUse=    56 1.00D-06 NBFU=    56
 Precomputing XC quadrature grid using
 IXCGrd= 2 IRadAn=           0 IRanWt=          -1 IRanGd=           0 AccXCQ= 1.00D-10.
 NRdTot=     384 NPtTot=       48764 NUsed=       51543 NTot=       51575
 NSgBfM=    58    58    58    58    58 NAtAll=     6     6.
 Leave Link  302 at Fri Jan  8 13:50:41 2021, MaxMem=13421772800 cpu:       1.2
 (Enter /opt/g09gh/gaussian/g09/l303.exe)
 DipDrv:  MaxL=1.
 Leave Link  303 at Fri Jan  8 13:50:41 2021, MaxMem=13421772800 cpu:       0.3
 (Enter /opt/g09gh/gaussian/g09/l401.exe)
 Harris functional with IExCor= 4639 diagonalized for initial guess.
 ExpMin= 4.38D-02 ExpMax= 8.59D+03 ExpMxC= 1.30D+03 IAcc=2 IRadAn=         0 AccDes= 0.00D+00
 HarFok:  IExCor= 4639 AccDes= 0.00D+00 IRadAn=         0 IDoV= 1
 ScaDFX=  1.000000  1.000000  1.000000  1.000000
 FoFCou: FMM=F IPFlag=           0 FMFlag=      100000 FMFlg1=           0
         NFxFlg=           0 DoJE=T BraDBF=F KetDBF=T FulRan=T
         Omega=  0.000000  0.000000  1.000000  0.000000  0.000000 ICntrl=     500 IOpCl=  0
         NMat0=    1 NMatS0=    1 NMatT0=    0 NMatD0=    1 NMtDS0=    0 NMtDT0=    0
         I1Cent=           4 NGrid=           0.
 Petite list used in FoFCou.
 Harris En= -110.971496100703    
 Initial guess orbital symmetries:
       Occupied  (A) (A) (A) (A) (A) (A) (A) (A) (A)
       Virtual   (A) (A) (A) (A) (A) (A) (A) (A) (A) (A) (A) (A)
                 (A) (A) (A) (A) (A) (A) (A) (A) (A) (A) (A) (A)
                 (A) (A) (A) (A) (A) (A) (A) (A) (A) (A) (A) (A)
                 (A) (A) (A) (A) (A) (A) (A) (A) (A) (A) (A)
 The electronic state of the initial guess is 1-A.
 Leave Link  401 at Fri Jan  8 13:50:41 2021, MaxMem=13421772800 cpu:       1.6
 (Enter /opt/g09gh/gaussian/g09/l508.exe)
 Direct SCF.
 Tight linear equation convergence will be used.
 RwB97XD wavefunction.
 Quadratic Convergence SCF Method.
 Line search only if initial step raises energy.
 Integral symmetry usage will be decided dynamically.
 ReadGW:  IGet=1 IStart=           2 Next=       51478 LGW=       51476.
 Pruned (  75, 302) grid will be used in CalDFT.
 FoFJK:  IHMeth= 1 ICntrl=     0 DoSepK=T KAlg= 1 I1Cent= 0 FoldK=F
 FoFCou: FMM=F IPFlag=           0 FMFlag=      100000 FMFlg1=           0
         NFxFlg=           0 DoJE=T BraDBF=F KetDBF=F FulRan=T
         Omega=  0.000000  0.000000  1.000000  0.000000  0.000000 ICntrl=     500 IOpCl=  0
         NMat0=    1 NMatS0=    1 NMatT0=    0 NMatD0=    1 NMtDS0=    0 NMtDT0=    0
         I1Cent=           0 NGrid=           0.
 Petite list used in FoFCou.
 Iteration   1 EE= -115.682771120370                                    Grad=6.852D-01
 Gradient too large for Newton-Raphson -- use scaled steepest descent instead.
     ILin= 1 X=0.000D+00 Y=-1.156827711204D+02 DE= 0.00D+00
 FoFJK:  IHMeth= 1 ICntrl=     0 DoSepK=T KAlg= 1 I1Cent= 0 FoldK=F
     ILin= 2 X=3.000D-01 Y=-1.157013823184D+02 DE=-1.86D-02
 FoFJK:  IHMeth= 1 ICntrl=     0 DoSepK=T KAlg= 1 I1Cent= 0 FoldK=F
     ILin= 3 X=4.243D-01 Y=-1.157054962710D+02 DE=-2.27D-02
 FoFJK:  IHMeth= 1 ICntrl=     0 DoSepK=T KAlg= 1 I1Cent= 0 FoldK=F
     ILin= 4 X=6.000D-01 Y=-1.157077449134D+02 DE=-2.50D-02
 FoFJK:  IHMeth= 1 ICntrl=     0 DoSepK=T KAlg= 1 I1Cent= 0 FoldK=F
     ILin= 5 X=8.485D-01 Y=-1.157038418054D+02 DE=-2.11D-02
     An  expanding polynomial of degree  5 produced  0.6070
 FoFJK:  IHMeth= 1 ICntrl=     0 DoSepK=T KAlg= 1 I1Cent= 0 FoldK=F
 Iteration   2 EE= -115.707748240713     Delta-E=       -0.024977120343 Grad=2.417D-01
 Gradient too large for Newton-Raphson -- use scaled steepest descent instead.
     ILin= 1 X=0.000D+00 Y=-1.157077482407D+02 DE= 0.00D+00
 FoFJK:  IHMeth= 1 ICntrl=     0 DoSepK=T KAlg= 1 I1Cent= 0 FoldK=F
     ILin= 2 X=6.070D-01 Y=-1.157110441463D+02 DE=-3.30D-03
 FoFJK:  IHMeth= 1 ICntrl=     0 DoSepK=T KAlg= 1 I1Cent= 0 FoldK=F
     ILin= 3 X=8.585D-01 Y=-1.157106441995D+02 DE=-2.90D-03
     An  expanding polynomial of degree  3 produced  0.6355
 FoFJK:  IHMeth= 1 ICntrl=     0 DoSepK=T KAlg= 1 I1Cent= 0 FoldK=F
 Iteration   3 EE= -115.711050825853     Delta-E=       -0.003302585141 Grad=8.629D-02
 Gradient too large for Newton-Raphson -- use scaled steepest descent instead.
     ILin= 1 X=0.000D+00 Y=-1.157110508259D+02 DE= 0.00D+00
 FoFJK:  IHMeth= 1 ICntrl=     0 DoSepK=T KAlg= 1 I1Cent= 0 FoldK=F
     ILin= 2 X=6.355D-01 Y=-1.157115544856D+02 DE=-5.04D-04
 FoFJK:  IHMeth= 1 ICntrl=     0 DoSepK=T KAlg= 1 I1Cent= 0 FoldK=F
     ILin= 3 X=8.987D-01 Y=-1.157114686355D+02 DE=-4.18D-04
     An  expanding polynomial of degree  3 produced  0.6361
 FoFJK:  IHMeth= 1 ICntrl=     0 DoSepK=T KAlg= 1 I1Cent= 0 FoldK=F
 Iteration   4 EE= -115.711554485576     Delta-E=       -0.000503659723 Grad=2.890D-02
 Gradient too large for Newton-Raphson -- use scaled steepest descent instead.
     ILin= 1 X=0.000D+00 Y=-1.157115544856D+02 DE= 0.00D+00
 FoFJK:  IHMeth= 1 ICntrl=     0 DoSepK=T KAlg= 1 I1Cent= 0 FoldK=F
     ILin= 2 X=6.361D-01 Y=-1.157116427537D+02 DE=-8.83D-05
 FoFJK:  IHMeth= 1 ICntrl=     0 DoSepK=T KAlg= 1 I1Cent= 0 FoldK=F
     ILin= 3 X=8.996D-01 Y=-1.157116313489D+02 DE=-7.69D-05
     An  expanding polynomial of degree  3 produced  0.6609
 FoFJK:  IHMeth= 1 ICntrl=     0 DoSepK=T KAlg= 1 I1Cent= 0 FoldK=F
 Iteration   5 EE= -115.711642878375     Delta-E=       -0.000088392799 Grad=1.027D-02
 Gradient too large for Newton-Raphson -- use scaled steepest descent instead.
     ILin= 1 X=0.000D+00 Y=-1.157116428784D+02 DE= 0.00D+00
 FoFJK:  IHMeth= 1 ICntrl=     0 DoSepK=T KAlg= 1 I1Cent= 0 FoldK=F
     ILin= 2 X=6.609D-01 Y=-1.157116604238D+02 DE=-1.75D-05
 FoFJK:  IHMeth= 1 ICntrl=     0 DoSepK=T KAlg= 1 I1Cent= 0 FoldK=F
     ILin= 3 X=9.347D-01 Y=-1.157116574502D+02 DE=-1.46D-05
     An  expanding polynomial of degree  3 produced  0.6621
 FoFJK:  IHMeth= 1 ICntrl=     0 DoSepK=T KAlg= 1 I1Cent= 0 FoldK=F
 Iteration   6 EE= -115.711660423815     Delta-E=       -0.000017545440 Grad=3.656D-03
 QCNR:  CnvC1=2.91D-09 CnvC2=2.91D-08
 LinEq1:  Iter=  0 NonCon=     1 RMS=7.99D-05 Max=4.60D-04
 AX will form     1 AO Fock derivatives at one time.
 FoFJK:  IHMeth= 1 ICntrl=     0 DoSepK=T KAlg= 1 I1Cent= 0 FoldK=F
 LinEq1:  Iter=  1 NonCon=     1 RMS=6.29D-05 Max=6.61D-04
 FoFJK:  IHMeth= 1 ICntrl=     0 DoSepK=T KAlg= 1 I1Cent= 0 FoldK=F
 LinEq1:  Iter=  2 NonCon=     1 RMS=6.83D-06 Max=5.45D-05
 FoFJK:  IHMeth= 1 ICntrl=     0 DoSepK=T KAlg= 1 I1Cent= 0 FoldK=F
 LinEq1:  Iter=  3 NonCon=     1 RMS=8.17D-07 Max=5.59D-06
 FoFJK:  IHMeth= 1 ICntrl=     0 DoSepK=T KAlg= 1 I1Cent= 0 FoldK=F
 LinEq1:  Iter=  4 NonCon=     1 RMS=1.02D-07 Max=7.11D-07
 FoFJK:  IHMeth= 1 ICntrl=     0 DoSepK=T KAlg= 1 I1Cent= 0 FoldK=F
 LinEq1:  Iter=  5 NonCon=     1 RMS=1.46D-08 Max=6.66D-08
 FoFJK:  IHMeth= 1 ICntrl=     0 DoSepK=T KAlg= 1 I1Cent= 0 FoldK=F
 LinEq1:  Iter=  6 NonCon=     1 RMS=3.60D-09 Max=1.71D-08
 FoFJK:  IHMeth= 1 ICntrl=     0 DoSepK=T KAlg= 1 I1Cent= 0 FoldK=F
 LinEq1:  Iter=  7 NonCon=     0 RMS=1.32D-09 Max=9.79D-09
 Linear equations converged to 2.909D-09 2.909D-08 after     7 iterations.
 Angle between quadratic step and gradient=  56.78 degrees.
     ILin= 1 X=0.000D+00 Y=-1.157116604238D+02 DE= 0.00D+00
 FoFJK:  IHMeth= 1 ICntrl=     0 DoSepK=T KAlg= 1 I1Cent= 0 FoldK=F
     ILin= 2 X=1.000D+00 Y=-1.157116655507D+02 DE=-5.13D-06
 FoFJK:  IHMeth= 1 ICntrl=     0 DoSepK=T KAlg= 1 I1Cent= 0 FoldK=F
     ILin= 3 X=1.414D+00 Y=-1.157116646678D+02 DE=-4.24D-06
     An  expanding polynomial of degree  3 produced  0.9995
 FoFJK:  IHMeth= 1 ICntrl=     0 DoSepK=T KAlg= 1 I1Cent= 0 FoldK=F
 Iteration   7 EE= -115.711665550677     Delta-E=       -0.000005126862 Grad=2.009D-06
 QCNR:  CnvC1=2.01D-11 CnvC2=2.01D-10
 LinEq1:  Iter=  0 NonCon=     1 RMS=4.41D-08 Max=3.69D-07
 FoFJK:  IHMeth= 1 ICntrl=     0 DoSepK=T KAlg= 1 I1Cent= 0 FoldK=F
 LinEq1:  Iter=  1 NonCon=     1 RMS=1.66D-08 Max=1.33D-07
 FoFJK:  IHMeth= 1 ICntrl=     0 DoSepK=T KAlg= 1 I1Cent= 0 FoldK=F
 LinEq1:  Iter=  2 NonCon=     1 RMS=4.11D-09 Max=2.39D-08
 FoFJK:  IHMeth= 1 ICntrl=     0 DoSepK=T KAlg= 1 I1Cent= 0 FoldK=F
 LinEq1:  Iter=  3 NonCon=     1 RMS=1.32D-09 Max=7.57D-09
 FoFJK:  IHMeth= 1 ICntrl=     0 DoSepK=T KAlg= 1 I1Cent= 0 FoldK=F
 LinEq1:  Iter=  4 NonCon=     1 RMS=7.11D-10 Max=4.89D-09
 FoFJK:  IHMeth= 1 ICntrl=     0 DoSepK=T KAlg= 1 I1Cent= 0 FoldK=F
 LinEq1:  Iter=  5 NonCon=     1 RMS=2.08D-10 Max=1.42D-09
 FoFJK:  IHMeth= 1 ICntrl=     0 DoSepK=T KAlg= 1 I1Cent= 0 FoldK=F
 LinEq1:  Iter=  6 NonCon=     1 RMS=2.59D-11 Max=1.95D-10
 FoFJK:  IHMeth= 1 ICntrl=     0 DoSepK=T KAlg= 1 I1Cent= 0 FoldK=F
 LinEq1:  Iter=  7 NonCon=     0 RMS=4.36D-12 Max=2.32D-11
 Linear equations converged to 2.009D-11 2.009D-10 after     7 iterations.
 Angle between quadratic step and gradient=  58.45 degrees.
     ILin= 1 X=0.000D+00 Y=-1.157116655507D+02 DE= 0.00D+00
 FoFJK:  IHMeth= 1 ICntrl=     0 DoSepK=T KAlg= 1 I1Cent= 0 FoldK=F
     ILin= 2 X=1.000D+00 Y=-1.157116655507D+02 DE=-1.59D-12
 Iteration   8 EE= -115.711665550678     Delta-E=       -0.000000000002 Grad=1.739D-10
 Rotation gradient small -- convergence achieved.
 SCF Done:  E(RwB97XD) =  -115.711665551     a.u. after    8 cycles
            Convg  =    0.1739D-09                    36 Fock formations.
              S**2 =  0.0000                  -V/T =  2.0037
 Leave Link  508 at Fri Jan  8 13:50:51 2021, MaxMem=13421772800 cpu:      75.8
 (Enter /opt/g09gh/gaussian/g09/l601.exe)
 Copying SCF densities to generalized density rwf, IOpCl= 0 IROHF=0.

 **********************************************************************

            Population analysis using the SCF density.

 **********************************************************************

 Orbital symmetries:
       Occupied  (A) (A) (A) (A) (A) (A) (A) (A) (A)
       Virtual   (A) (A) (A) (A) (A) (A) (A) (A) (A) (A) (A) (A)
                 (A) (A) (A) (A) (A) (A) (A) (A) (A) (A) (A) (A)
                 (A) (A) (A) (A) (A) (A) (A) (A) (A) (A) (A) (A)
                 (A) (A) (A) (A) (A) (A) (A) (A) (A) (A) (A)
 The electronic state is 1-A.
 Alpha  occ. eigenvalues --  -19.24994 -10.32634  -1.12620  -0.78268  -0.59987
 Alpha  occ. eigenvalues --   -0.53307  -0.51697  -0.42283  -0.36428
 Alpha virt. eigenvalues --    0.06402   0.08314   0.10589   0.10719   0.20723
 Alpha virt. eigenvalues --    0.22622   0.23400   0.24089   0.27784   0.28392
 Alpha virt. eigenvalues --    0.29160   0.30170   0.37754   0.48064   0.50102
 Alpha virt. eigenvalues --    0.58798   0.61426   0.67061   0.67197   0.74160
 Alpha virt. eigenvalues --    0.96873   1.10312   1.13342   1.13865   1.37633
 Alpha virt. eigenvalues --    1.45955   1.61548   1.64999   1.65430   1.82254
 Alpha virt. eigenvalues --    2.25039   2.47174   2.49930   2.52747   2.87431
 Alpha virt. eigenvalues --    2.93322   3.07952   3.10547   3.19431   3.25750
 Alpha virt. eigenvalues --    3.42522   3.95626   5.08777   5.18434   5.47722
 Alpha virt. eigenvalues --   23.59386  49.97584
          Condensed to atoms (all electrons):
              1          2          3          4          5          6
     1  O    8.220786   0.132403  -0.044268  -0.044279  -0.050192   0.227561
     2  C    0.132403   5.332470   0.389974   0.389984   0.391684  -0.025411
     3  H   -0.044268   0.389974   0.516679  -0.040919  -0.033833  -0.007094
     4  H   -0.044279   0.389984  -0.040919   0.516727  -0.033841  -0.007095
     5  H   -0.050192   0.391684  -0.033833  -0.033841   0.466175   0.008756
     6  H    0.227561  -0.025411  -0.007094  -0.007095   0.008756   0.440300
 Mulliken atomic charges:
              1
     1  O   -0.442011
     2  C   -0.611104
     3  H    0.219460
     4  H    0.219422
     5  H    0.251251
     6  H    0.362981
 Sum of Mulliken atomic charges =   0.00000
 Mulliken charges with hydrogens summed into heavy atoms:
              1
     1  O   -0.079029
     2  C    0.079029
 Sum of Mulliken charges with hydrogens summed into heavy atoms =   0.00000
 Electronic spatial extent (au):  <R**2>=             85.0686
 Charge=              0.0000 electrons
 Dipole moment (field-independent basis, Debye):
    X=              0.9871    Y=             -1.7639    Z=             -0.0001  Tot=              2.0213
 Quadrupole moment (field-independent basis, Debye-Ang):
   XX=            -13.0133   YY=            -12.3265   ZZ=            -13.8823
   XY=              2.6463   XZ=             -0.0001   YZ=              0.0001
 Traceless Quadrupole moment (field-independent basis, Debye-Ang):
   XX=              0.0607   YY=              0.7475   ZZ=             -0.8082
   XY=              2.6463   XZ=             -0.0001   YZ=              0.0001
 Octapole moment (field-independent basis, Debye-Ang**2):
  XXX=             -3.8530  YYY=             -0.6730  ZZZ=             -0.0002  XYY=             -1.5273
  XXY=             -2.5408  XXZ=             -0.0001  XZZ=             -0.0509  YZZ=             -0.9314
  YYZ=             -0.0001  XYZ=              0.0002
 Hexadecapole moment (field-independent basis, Debye-Ang**3):
 XXXX=            -62.9513 YYYY=            -20.6069 ZZZZ=            -20.5993 XXXY=              4.9052
 XXXZ=             -0.0006 YYYX=              3.4591 YYYZ=              0.0004 ZZZX=             -0.0004
 ZZZY=              0.0002 XXYY=            -12.7989 XXZZ=            -14.7855 YYZZ=             -6.9713
 XXYZ=              0.0003 YYXZ=             -0.0001 ZZXY=             -0.0070
 N-N= 4.015146817045D+01 E-N=-3.519551076327D+02  KE= 1.152899832971D+02
 No NMR shielding tensors so no spin-rotation constants.
 Leave Link  601 at Fri Jan  8 13:50:51 2021, MaxMem=13421772800 cpu:       0.9
 (Enter /opt/g09gh/gaussian/g09/l607.exe)
 Leave Link  607 at Fri Jan  8 13:51:02 2021, MaxMem=13421772800 cpu:      91.3
 (Enter /opt/g09gh/gaussian/g09/l9999.exe)
 1\1\GINC-NODE37\SP\RwB97XD\6-311+G(d)\C1H4O1\BDW2292\08-Jan-2021\0\\#P
  wB97XD/6-311+G* SP SCF=(qc,maxcycle=800) Pop=NBORead MaxDisk=200GB\\m
 ethanol Rotatable Bond SP Calculation on node37.bme.utexas.edu\\0,1\O,
 0,-0.756918,0.104669,-0.000017\C,0,0.659174,-0.009248,-0.000042\H,0,1.
 016097,-0.526394,-0.903636\H,0,1.016087,-0.526414,0.903666\H,0,1.10985
 7,0.994023,0.000039\H,0,-1.131847,-0.790372,-0.000011\\Version=EM64L-G
 09RevA.02\State=1-A\HF=-115.7116656\RMSD=0.000e+00\Dipole=0.4069749,-0
 .6832076,-0.0000235\Quadrupole=-0.0607687,0.6616722,-0.6009036,1.95077
 68,-0.0000827,0.0001074\PG=C01 [X(C1H4O1)]\\@


 THERE ARE TWO THINGS THAT EVERYBODY THINKS THEY CAN DO BETTER THAN
 ANYONE ELSE - PUNCH THE FIRE, AND EDIT A DAILY PAPER.
 -- UNCLE ESEK, "CENTURY MAGAZINE", 1885
 Job cpu time:  0 days  0 hours  3 minutes  1.7 seconds.
 File lengths (MBytes):  RWF=      5 Int=      0 D2E=      0 Chk=      1 Scr=      1
 Normal termination of Gaussian 09 at Fri Jan  8 13:51:09 2021.
