6
methanol-opt-1_2-1-302.log	Energy:  -71785.4051000
O          0.75734        0.12011       -0.00507
C         -0.67631       -0.01230       -0.00519
H         -1.05143       -0.60802       -0.83116
H         -1.09061        0.98042       -0.01974
H         -1.04146       -0.51342        0.88884
H          1.18267       -0.74610        0.03373
