 Entering Gaussian System, Link 0=/opt/g09gh/gaussian/g09/g09
 Input=methanol-opt-2_2-1-032.com
 Output=methanol-opt-2_2-1-032.log
 Initial command:
 /opt/g09gh/gaussian/g09/l1.exe /scratch/bdw2292/Gau-methanol/Gau-45915.inp -scrdir=/scratch/bdw2292/Gau-methanol/
 Entering Link 1 = /opt/g09gh/gaussian/g09/l1.exe PID=     45916.
  
 Copyright (c) 1988,1990,1992,1993,1995,1998,2003,2009, Gaussian, Inc.
                  All Rights Reserved.
  
 This is part of the Gaussian(R) 09 program.  It is based on
 the Gaussian(R) 03 system (copyright 2003, Gaussian, Inc.),
 the Gaussian(R) 98 system (copyright 1998, Gaussian, Inc.),
 the Gaussian(R) 94 system (copyright 1995, Gaussian, Inc.),
 the Gaussian 92(TM) system (copyright 1992, Gaussian, Inc.),
 the Gaussian 90(TM) system (copyright 1990, Gaussian, Inc.),
 the Gaussian 88(TM) system (copyright 1988, Gaussian, Inc.),
 the Gaussian 86(TM) system (copyright 1986, Carnegie Mellon
 University), and the Gaussian 82(TM) system (copyright 1983,
 Carnegie Mellon University). Gaussian is a federally registered
 trademark of Gaussian, Inc.
  
 This software contains proprietary and confidential information,
 including trade secrets, belonging to Gaussian, Inc.
  
 This software is provided under written license and may be
 used, copied, transmitted, or stored only in accord with that
 written license.
  
 The following legend is applicable only to US Government
 contracts under FAR:
  
                    RESTRICTED RIGHTS LEGEND
  
 Use, reproduction and disclosure by the US Government is
 subject to restrictions as set forth in subparagraphs (a)
 and (c) of the Commercial Computer Software - Restricted
 Rights clause in FAR 52.227-19.
  
 Gaussian, Inc.
 340 Quinnipiac St., Bldg. 40, Wallingford CT 06492
  
  
 ---------------------------------------------------------------
 Warning -- This program may not be used in any manner that
 competes with the business of Gaussian, Inc. or will provide
 assistance to any competitor of Gaussian, Inc.  The licensee
 of this program is prohibited from giving any competitor of
 Gaussian, Inc. access to this program.  By using this program,
 the user acknowledges that Gaussian, Inc. is engaged in the
 business of creating and licensing software in the field of
 computational chemistry and represents and warrants to the
 licensee that it is not a competitor of Gaussian, Inc. and that
 it will not use this program in any manner prohibited above.
 ---------------------------------------------------------------
  

 Cite this work as:
 Gaussian 09, Revision A.02,
 M. J. Frisch, G. W. Trucks, H. B. Schlegel, G. E. Scuseria, 
 M. A. Robb, J. R. Cheeseman, G. Scalmani, V. Barone, B. Mennucci, 
 G. A. Petersson, H. Nakatsuji, M. Caricato, X. Li, H. P. Hratchian, 
 A. F. Izmaylov, J. Bloino, G. Zheng, J. L. Sonnenberg, M. Hada, 
 M. Ehara, K. Toyota, R. Fukuda, J. Hasegawa, M. Ishida, T. Nakajima, 
 Y. Honda, O. Kitao, H. Nakai, T. Vreven, J. A. Montgomery, Jr., 
 J. E. Peralta, F. Ogliaro, M. Bearpark, J. J. Heyd, E. Brothers, 
 K. N. Kudin, V. N. Staroverov, R. Kobayashi, J. Normand, 
 K. Raghavachari, A. Rendell, J. C. Burant, S. S. Iyengar, J. Tomasi, 
 M. Cossi, N. Rega, J. M. Millam, M. Klene, J. E. Knox, J. B. Cross, 
 V. Bakken, C. Adamo, J. Jaramillo, R. Gomperts, R. E. Stratmann, 
 O. Yazyev, A. J. Austin, R. Cammi, C. Pomelli, J. W. Ochterski, 
 R. L. Martin, K. Morokuma, V. G. Zakrzewski, G. A. Voth, 
 P. Salvador, J. J. Dannenberg, S. Dapprich, A. D. Daniels, 
 O. Farkas, J. B. Foresman, J. V. Ortiz, J. Cioslowski, 
 and D. J. Fox, Gaussian, Inc., Wallingford CT, 2009.
 
 ******************************************
 Gaussian 09:  EM64L-G09RevA.02 11-Jun-2009
                 8-Jan-2021 
 ******************************************
 %RWF=/scratch/bdw2292/Gau-methanol/,200GB
 %Nosave
 %Chk=methanol-opt-2_2-1-032.chk
 %Mem=100GB
 %Nproc=8
 Will use up to    8 processors via shared memory.
 ------------------------------------------------------------------
 #P opt=(ModRedundant,maxcycle=2,Loose) wB97XD/6-31G* MaxDisk=200GB
 ------------------------------------------------------------------
 1/6=2,7=-1,14=-1,18=120,19=15,26=3,38=1/1,3;
 2/9=110,12=2,17=6,18=5,40=1/2;
 3/5=1,6=6,7=1,11=2,16=1,25=1,30=1,71=1,74=-58/1,2,3;
 4//1;
 5/5=2,38=5/2;
 6/7=2,8=2,9=2,10=2,28=1/1;
 7//1,2,3,16;
 1/6=2,7=-1,14=-1,18=20,19=15/3(2);
 2/9=110/2;
 99//99;
 2/9=110/2;
 3/5=1,6=6,7=1,11=2,16=1,25=1,30=1,71=1,74=-58/1,2,3;
 4/5=5,16=3/1;
 5/5=2,38=5/2;
 7//1,2,3,16;
 1/6=2,7=-1,14=-1,18=20,19=15/3(-5);
 2/9=110/2;
 6/7=2,8=2,9=2,10=2,19=2,28=1/1;
 99/9=1/99;
 Leave Link    1 at Fri Jan  8 13:31:11 2021, MaxMem=13421772800 cpu:       0.3
 (Enter /opt/g09gh/gaussian/g09/l101.exe)
 -------------------------------------------------------------
 methanol Rotatable Bond Optimization on node37.bme.utexas.edu
 -------------------------------------------------------------
 Symbolic Z-matrix:
 Charge =  0 Multiplicity = 1
 O                     0.75699  -0.12149  -0.00019 
 C                    -0.67779   0.02204   0.00245 
 H                    -1.02146   0.91693  -0.50522 
 H                    -1.08899   0.0163    1.00501 
 H                    -1.08462  -0.82622  -0.52746 
 H                     1.20596   0.73265   0.01443 
 
 NAtoms=      6 NQM=      6 NQMF=      0 NMic=      0 NMicF=      0 NTot=      6.
 The following ModRedundant input section has been read:
 D    6    1    2    3 F                                                       
 D    6    1    2    4 F                                                       
 D    6    1    2    5 F                                                       
                    Isotopes and Nuclear Properties:
 (Nuclear quadrupole moments (NQMom) in fm**2, nuclear magnetic moments (NMagM)
  in nuclear magnetons)

  Atom         1           2           3           4           5           6
 IAtWgt=          16          12           1           1           1           1
 AtmWgt=  15.9949146  12.0000000   1.0078250   1.0078250   1.0078250   1.0078250
 NucSpn=           0           0           1           1           1           1
 AtZEff=   0.0000000   0.0000000   0.0000000   0.0000000   0.0000000   0.0000000
 NQMom=    0.0000000   0.0000000   0.0000000   0.0000000   0.0000000   0.0000000
 NMagM=    0.0000000   0.0000000   2.7928460   2.7928460   2.7928460   2.7928460
 Leave Link  101 at Fri Jan  8 13:31:11 2021, MaxMem=13421772800 cpu:       1.0
 (Enter /opt/g09gh/gaussian/g09/l103.exe)

 GradGradGradGradGradGradGradGradGradGradGradGradGradGradGradGradGradGrad
 Berny optimization.
 Initialization pass.
                           ----------------------------
                           !    Initial Parameters    !
                           ! (Angstroms and Degrees)  !
 --------------------------                            --------------------------
 ! Name  Definition              Value          Derivative Info.                !
 --------------------------------------------------------------------------------
 ! R1    R(1,2)                  1.4419         estimate D2E/DX2                !
 ! R2    R(1,6)                  0.9651         estimate D2E/DX2                !
 ! R3    R(2,3)                  1.0847         estimate D2E/DX2                !
 ! R4    R(2,4)                  1.0836         estimate D2E/DX2                !
 ! R5    R(2,5)                  1.0798         estimate D2E/DX2                !
 ! A1    A(2,1,6)              112.0111         estimate D2E/DX2                !
 ! A2    A(1,2,3)              113.3601         estimate D2E/DX2                !
 ! A3    A(1,2,4)              112.2562         estimate D2E/DX2                !
 ! A4    A(1,2,5)              107.2063         estimate D2E/DX2                !
 ! A5    A(3,2,4)              108.4903         estimate D2E/DX2                !
 ! A6    A(3,2,5)              107.4007         estimate D2E/DX2                !
 ! A7    A(4,2,5)              107.8737         estimate D2E/DX2                !
 ! D1    D(6,1,2,3)             31.6818         Frozen                          !
 ! D2    D(6,1,2,4)            -91.687          Frozen                          !
 ! D3    D(6,1,2,5)            150.0259         Frozen                          !
 --------------------------------------------------------------------------------
 Trust Radius=3.00D-01 FncErr=1.00D-07 GrdErr=1.00D-06
 Number of steps in this run=   2 maximum allowed number of steps= 100.
 GradGradGradGradGradGradGradGradGradGradGradGradGradGradGradGradGradGrad

 Leave Link  103 at Fri Jan  8 13:31:11 2021, MaxMem=13421772800 cpu:       0.1
 (Enter /opt/g09gh/gaussian/g09/l202.exe)
                          Input orientation:                          
 ---------------------------------------------------------------------
 Center     Atomic      Atomic             Coordinates (Angstroms)
 Number     Number       Type             X           Y           Z
 ---------------------------------------------------------------------
      1          8           0        0.756990   -0.121490   -0.000190
      2          6           0       -0.677790    0.022040    0.002450
      3          1           0       -1.021460    0.916930   -0.505220
      4          1           0       -1.088990    0.016300    1.005010
      5          1           0       -1.084620   -0.826220   -0.527460
      6          1           0        1.205960    0.732650    0.014430
 ---------------------------------------------------------------------
                    Distance matrix (angstroms):
                    1          2          3          4          5
     1  O    0.000000
     2  C    1.441944   0.000000
     3  H    2.120438   1.084742   0.000000
     4  H    2.106432   1.083626   1.759684   0.000000
     5  H    2.041124   1.079750   1.744436   1.748806   0.000000
     6  H    0.965061   2.013361   2.294645   2.600231   2.823203
                    6
     6  H    0.000000
 Stoichiometry    CH4O
 Framework group  C1[X(CH4O)]
 Deg. of freedom    12
 Full point group                 C1      NOp   1
 Largest Abelian subgroup         C1      NOp   1
 Largest concise Abelian subgroup C1      NOp   1
                         Standard orientation:                         
 ---------------------------------------------------------------------
 Center     Atomic      Atomic             Coordinates (Angstroms)
 Number     Number       Type             X           Y           Z
 ---------------------------------------------------------------------
      1          8           0        0.756987   -0.121486   -0.000187
      2          6           0       -0.677794    0.022038    0.002453
      3          1           0       -1.021468    0.916927   -0.505217
      4          1           0       -1.088994    0.016297    1.005013
      5          1           0       -1.084620   -0.826223   -0.527457
      6          1           0        1.205953    0.732656    0.014433
 ---------------------------------------------------------------------
 Rotational constants (GHZ):    132.3519744     24.0137362     23.2335162
 Leave Link  202 at Fri Jan  8 13:31:11 2021, MaxMem=13421772800 cpu:       0.0
 (Enter /opt/g09gh/gaussian/g09/l301.exe)
 Standard basis: 6-31G(d) (6D, 7F)
 Ernie: Thresh=  0.10000D-02 Tol=  0.10000D-05 Strict=F.
 There are    38 symmetry adapted basis functions of A   symmetry.
 Integral buffers will be    131072 words long.
 Raffenetti 2 integral format.
 Two-electron integral symmetry is turned on.
    38 basis functions,    72 primitive gaussians,    38 cartesian basis functions
     9 alpha electrons        9 beta electrons
       nuclear repulsion energy        39.9852892761 Hartrees.
 IExCor= 4639 DFT=T Ex+Corr=wB97XD ExCW=0 ScaHFX=  1.000000
 ScaDFX=  1.000000  1.000000  1.000000  1.000000 ScalE2=  1.000000  1.000000
 IRadAn=      0 IRanWt=     -1 IRanGd=            0 ICorTp=0
  HFx wShort=  0.000000 wLong=  0.200000 cFull=  0.222036 cShort=  0.000000 cLong=  0.777964
  DFx wShort=  0.000000 wLong=  0.200000 cFull=  0.000000 cShort=  0.000000 cLong=  1.000000
 NAtoms=    6 NActive=    6 NUniq=    6 SFac= 7.50D-01 NAtFMM=   80 NAOKFM=F Big=F
 R6Disp: Dispersion energy =        -0.0008051428 Hartrees.
 Nuclear repulsion after empirical dispersion term =       39.9844841334 Hartrees.
 Leave Link  301 at Fri Jan  8 13:31:11 2021, MaxMem=13421772800 cpu:       0.5
 (Enter /opt/g09gh/gaussian/g09/l302.exe)
 NPDir=0 NMtPBC=     1 NCelOv=     1 NCel=       1 NClECP=     1 NCelD=      1
         NCelK=      1 NCelE2=     1 NClLst=     1 CellRange=     0.0.
 One-electron integrals computed using PRISM.
 NBasis=    38 RedAO= T  NBF=    38
 NBsUse=    38 1.00D-06 NBFU=    38
 Precomputing XC quadrature grid using
 IXCGrd= 2 IRadAn=           0 IRanWt=          -1 IRanGd=           0 AccXCQ= 1.00D-10.
 NRdTot=     369 NPtTot=       46428 NUsed=       49102 NTot=       49134
 NSgBfM=    38    38    38    38    38 NAtAll=     6     6.
 Leave Link  302 at Fri Jan  8 13:31:11 2021, MaxMem=13421772800 cpu:       1.2
 (Enter /opt/g09gh/gaussian/g09/l303.exe)
 DipDrv:  MaxL=1.
 Leave Link  303 at Fri Jan  8 13:31:11 2021, MaxMem=13421772800 cpu:       0.3
 (Enter /opt/g09gh/gaussian/g09/l401.exe)
 Harris functional with IExCor= 4639 diagonalized for initial guess.
 ExpMin= 1.61D-01 ExpMax= 5.48D+03 ExpMxC= 8.25D+02 IAcc=1 IRadAn=         1 AccDes= 0.00D+00
 HarFok:  IExCor= 4639 AccDes= 0.00D+00 IRadAn=         1 IDoV= 1
 ScaDFX=  1.000000  1.000000  1.000000  1.000000
 FoFCou: FMM=F IPFlag=           0 FMFlag=      100000 FMFlg1=           0
         NFxFlg=           0 DoJE=T BraDBF=F KetDBF=T FulRan=T
         Omega=  0.000000  0.000000  1.000000  0.000000  0.000000 ICntrl=     500 IOpCl=  0
         NMat0=    1 NMatS0=    1 NMatT0=    0 NMatD0=    1 NMtDS0=    0 NMtDT0=    0
         I1Cent=           4 NGrid=           0.
 Petite list used in FoFCou.
 Harris En= -110.932516239342    
 Initial guess orbital symmetries:
       Occupied  (A) (A) (A) (A) (A) (A) (A) (A) (A)
       Virtual   (A) (A) (A) (A) (A) (A) (A) (A) (A) (A) (A) (A)
                 (A) (A) (A) (A) (A) (A) (A) (A) (A) (A) (A) (A)
                 (A) (A) (A) (A) (A)
 The electronic state of the initial guess is 1-A.
 Leave Link  401 at Fri Jan  8 13:31:11 2021, MaxMem=13421772800 cpu:       1.4
 (Enter /opt/g09gh/gaussian/g09/l502.exe)
 Closed shell SCF:
 Requested convergence on RMS density matrix=1.00D-08 within 128 cycles.
 Requested convergence on MAX density matrix=1.00D-06.
 Requested convergence on             energy=1.00D-06.
 No special actions if energy rises.
 Using DIIS extrapolation, IDIIS=  1040.
 Integral symmetry usage will be decided dynamically.
        49035 words used for storage of precomputed grid.
 IEnd=       72111 IEndB=       72111 NGot= 13421772800 MDV= 13421718812
 LenX= 13421718812 LenY= 13421716927
 Fock matrices will be formed incrementally for  20 cycles.
 Integral accuracy reduced to 1.0D-05 until final iterations.

 Cycle   1  Pass 0  IDiag  1:
 FoFJK:  IHMeth= 1 ICntrl=     0 DoSepK=T KAlg= 1 I1Cent= 0 FoldK=F
 FoFCou: FMM=F IPFlag=           0 FMFlag=      100000 FMFlg1=           0
         NFxFlg=           0 DoJE=T BraDBF=F KetDBF=F FulRan=T
         Omega=  0.000000  0.000000  1.000000  0.000000  0.000000 ICntrl=     500 IOpCl=  0
         NMat0=    1 NMatS0=    1 NMatT0=    0 NMatD0=    1 NMtDS0=    0 NMtDT0=    0
         I1Cent=           0 NGrid=           0.
 Symmetry not used in FoFCou.
 E= -115.653401914174    
 DIIS: error= 5.09D-02 at cycle   1 NSaved=   1.
 NSaved= 1 IEnMin= 1 EnMin= -115.653401914174     IErMin= 1 ErrMin= 5.09D-02
 ErrMax= 5.09D-02 EMaxC= 1.00D-01 BMatC= 8.14D-02 BMatP= 8.14D-02
 IDIUse=3 WtCom= 4.91D-01 WtEn= 5.09D-01
 Coeff-Com:  0.100D+01
 Coeff-En:   0.100D+01
 Coeff:      0.100D+01
 Gap=     0.538 Goal=   None    Shift=    0.000
 GapD=    0.538 DampG=2.000 DampE=0.500 DampFc=1.0000 IDamp=-1.
 RMSDP=4.77D-03 MaxDP=4.30D-02              OVMax= 4.61D-02

 Cycle   2  Pass 0  IDiag  1:
 RMSU=  3.36D-03    CP:  1.01D+00
 FoFJK:  IHMeth= 1 ICntrl=     0 DoSepK=T KAlg= 1 I1Cent= 0 FoldK=F
 E= -115.666782751855     Delta-E=       -0.013380837681 Rises=F Damp=F
 DIIS: error= 1.28D-02 at cycle   2 NSaved=   2.
 NSaved= 2 IEnMin= 2 EnMin= -115.666782751855     IErMin= 2 ErrMin= 1.28D-02
 ErrMax= 1.28D-02 EMaxC= 1.00D-01 BMatC= 1.11D-02 BMatP= 8.14D-02
 IDIUse=3 WtCom= 8.72D-01 WtEn= 1.28D-01
 Coeff-Com:  0.199D+00 0.801D+00
 Coeff-En:   0.709D-01 0.929D+00
 Coeff:      0.182D+00 0.818D+00
 Gap=     0.506 Goal=   None    Shift=    0.000
 RMSDP=2.72D-03 MaxDP=3.58D-02 DE=-1.34D-02 OVMax= 3.38D-02

 Cycle   3  Pass 0  IDiag  1:
 RMSU=  1.53D-03    CP:  1.01D+00  6.52D-01
 FoFJK:  IHMeth= 1 ICntrl=     0 DoSepK=T KAlg= 1 I1Cent= 0 FoldK=F
 E= -115.670696945316     Delta-E=       -0.003914193461 Rises=F Damp=F
 DIIS: error= 1.04D-02 at cycle   3 NSaved=   3.
 NSaved= 3 IEnMin= 3 EnMin= -115.670696945316     IErMin= 3 ErrMin= 1.04D-02
 ErrMax= 1.04D-02 EMaxC= 1.00D-01 BMatC= 5.72D-03 BMatP= 1.11D-02
 IDIUse=3 WtCom= 8.96D-01 WtEn= 1.04D-01
 Coeff-Com:  0.757D-02 0.418D+00 0.574D+00
 Coeff-En:   0.000D+00 0.335D+00 0.665D+00
 Coeff:      0.678D-02 0.410D+00 0.584D+00
 Gap=     0.516 Goal=   None    Shift=    0.000
 RMSDP=1.23D-03 MaxDP=1.57D-02 DE=-3.91D-03 OVMax= 1.39D-02

 Cycle   4  Pass 0  IDiag  1:
 RMSU=  1.84D-04    CP:  1.01D+00  8.06D-01  5.61D-01
 FoFJK:  IHMeth= 1 ICntrl=     0 DoSepK=T KAlg= 1 I1Cent= 0 FoldK=F
 E= -115.674670345980     Delta-E=       -0.003973400663 Rises=F Damp=F
 DIIS: error= 5.63D-04 at cycle   4 NSaved=   4.
 NSaved= 4 IEnMin= 4 EnMin= -115.674670345980     IErMin= 4 ErrMin= 5.63D-04
 ErrMax= 5.63D-04 EMaxC= 1.00D-01 BMatC= 1.75D-05 BMatP= 5.72D-03
 IDIUse=3 WtCom= 9.94D-01 WtEn= 5.63D-03
 Coeff-Com:  0.156D-02 0.915D-01 0.152D+00 0.755D+00
 Coeff-En:   0.000D+00 0.000D+00 0.000D+00 0.100D+01
 Coeff:      0.155D-02 0.910D-01 0.151D+00 0.757D+00
 Gap=     0.513 Goal=   None    Shift=    0.000
 RMSDP=9.49D-05 MaxDP=1.10D-03 DE=-3.97D-03 OVMax= 1.20D-03

 Cycle   5  Pass 0  IDiag  1:
 RMSU=  5.45D-05    CP:  1.01D+00  8.07D-01  5.82D-01  8.87D-01
 FoFJK:  IHMeth= 1 ICntrl=     0 DoSepK=T KAlg= 1 I1Cent= 0 FoldK=F
 E= -115.674683930424     Delta-E=       -0.000013584445 Rises=F Damp=F
 DIIS: error= 1.64D-04 at cycle   5 NSaved=   5.
 NSaved= 5 IEnMin= 5 EnMin= -115.674683930424     IErMin= 5 ErrMin= 1.64D-04
 ErrMax= 1.64D-04 EMaxC= 1.00D-01 BMatC= 9.81D-07 BMatP= 1.75D-05
 IDIUse=3 WtCom= 9.98D-01 WtEn= 1.64D-03
 Coeff-Com: -0.359D-03 0.160D-02 0.103D-01 0.207D+00 0.781D+00
 Coeff-En:   0.000D+00 0.000D+00 0.000D+00 0.000D+00 0.100D+01
 Coeff:     -0.359D-03 0.160D-02 0.103D-01 0.207D+00 0.781D+00
 Gap=     0.513 Goal=   None    Shift=    0.000
 RMSDP=2.65D-05 MaxDP=2.86D-04 DE=-1.36D-05 OVMax= 2.64D-04

 Cycle   6  Pass 0  IDiag  1:
 RMSU=  1.10D-05    CP:  1.01D+00  8.08D-01  5.85D-01  9.60D-01  9.79D-01
 FoFJK:  IHMeth= 1 ICntrl=     0 DoSepK=T KAlg= 1 I1Cent= 0 FoldK=F
 E= -115.674684848824     Delta-E=       -0.000000918400 Rises=F Damp=F
 DIIS: error= 2.55D-05 at cycle   6 NSaved=   6.
 NSaved= 6 IEnMin= 6 EnMin= -115.674684848824     IErMin= 6 ErrMin= 2.55D-05
 ErrMax= 2.55D-05 EMaxC= 1.00D-01 BMatC= 3.55D-08 BMatP= 9.81D-07
 IDIUse=1 WtCom= 1.00D+00 WtEn= 0.00D+00
 Coeff-Com: -0.827D-04-0.895D-02-0.134D-01-0.350D-01 0.113D+00 0.945D+00
 Coeff:     -0.827D-04-0.895D-02-0.134D-01-0.350D-01 0.113D+00 0.945D+00
 Gap=     0.513 Goal=   None    Shift=    0.000
 RMSDP=1.02D-05 MaxDP=6.81D-05 DE=-9.18D-07 OVMax= 8.96D-05

 Cycle   7  Pass 0  IDiag  1:
 RMSU=  2.55D-06    CP:  1.01D+00  8.09D-01  5.86D-01  9.76D-01  1.08D+00
                    CP:  1.09D+00
 FoFJK:  IHMeth= 1 ICntrl=     0 DoSepK=T KAlg= 1 I1Cent= 0 FoldK=F
 E= -115.674684907197     Delta-E=       -0.000000058373 Rises=F Damp=F
 DIIS: error= 2.59D-06 at cycle   7 NSaved=   7.
 NSaved= 7 IEnMin= 7 EnMin= -115.674684907197     IErMin= 7 ErrMin= 2.59D-06
 ErrMax= 2.59D-06 EMaxC= 1.00D-01 BMatC= 4.83D-10 BMatP= 3.55D-08
 IDIUse=1 WtCom= 1.00D+00 WtEn= 0.00D+00
 Coeff-Com:  0.141D-04 0.771D-03 0.996D-03 0.186D-03-0.316D-01-0.786D-01
 Coeff-Com:  0.111D+01
 Coeff:      0.141D-04 0.771D-03 0.996D-03 0.186D-03-0.316D-01-0.786D-01
 Coeff:      0.111D+01
 Gap=     0.513 Goal=   None    Shift=    0.000
 RMSDP=1.82D-06 MaxDP=1.51D-05 DE=-5.84D-08 OVMax= 2.04D-05

 Initial convergence to 1.0D-05 achieved.  Increase integral accuracy.
 Cycle   8  Pass 1  IDiag  1:
 FoFJK:  IHMeth= 1 ICntrl=     0 DoSepK=T KAlg= 1 I1Cent= 0 FoldK=F
 E= -115.674434919605     Delta-E=        0.000249987591 Rises=F Damp=F
 DIIS: error= 1.11D-04 at cycle   1 NSaved=   1.
 NSaved= 1 IEnMin= 1 EnMin= -115.674434919605     IErMin= 1 ErrMin= 1.11D-04
 ErrMax= 1.11D-04 EMaxC= 1.00D-01 BMatC= 7.54D-07 BMatP= 7.54D-07
 IDIUse=3 WtCom= 9.99D-01 WtEn= 1.11D-03
 Coeff-Com:  0.100D+01
 Coeff-En:   0.100D+01
 Coeff:      0.100D+01
 Gap=     0.513 Goal=   None    Shift=    0.000
 RMSDP=1.82D-06 MaxDP=1.51D-05 DE= 2.50D-04 OVMax= 1.84D-04

 Cycle   9  Pass 1  IDiag  1:
 RMSU=  1.46D-05    CP:  1.00D+00
 FoFJK:  IHMeth= 1 ICntrl=     0 DoSepK=T KAlg= 1 I1Cent= 0 FoldK=F
 E= -115.674435541655     Delta-E=       -0.000000622049 Rises=F Damp=F
 DIIS: error= 3.13D-05 at cycle   2 NSaved=   2.
 NSaved= 2 IEnMin= 2 EnMin= -115.674435541655     IErMin= 2 ErrMin= 3.13D-05
 ErrMax= 3.13D-05 EMaxC= 1.00D-01 BMatC= 4.00D-08 BMatP= 7.54D-07
 IDIUse=1 WtCom= 1.00D+00 WtEn= 0.00D+00
 Coeff-Com:  0.102D-01 0.990D+00
 Coeff:      0.102D-01 0.990D+00
 Gap=     0.513 Goal=   None    Shift=    0.000
 RMSDP=7.48D-06 MaxDP=8.37D-05 DE=-6.22D-07 OVMax= 8.43D-05

 Cycle  10  Pass 1  IDiag  1:
 RMSU=  5.28D-06    CP:  1.00D+00  1.01D+00
 FoFJK:  IHMeth= 1 ICntrl=     0 DoSepK=T KAlg= 1 I1Cent= 0 FoldK=F
 E= -115.674435552295     Delta-E=       -0.000000010640 Rises=F Damp=F
 DIIS: error= 2.83D-05 at cycle   3 NSaved=   3.
 NSaved= 3 IEnMin= 3 EnMin= -115.674435552295     IErMin= 3 ErrMin= 2.83D-05
 ErrMax= 2.83D-05 EMaxC= 1.00D-01 BMatC= 3.93D-08 BMatP= 4.00D-08
 IDIUse=1 WtCom= 1.00D+00 WtEn= 0.00D+00
 Coeff-Com: -0.509D-01 0.519D+00 0.532D+00
 Coeff:     -0.509D-01 0.519D+00 0.532D+00
 Gap=     0.513 Goal=   None    Shift=    0.000
 RMSDP=3.00D-06 MaxDP=4.08D-05 DE=-1.06D-08 OVMax= 3.52D-05

 Cycle  11  Pass 1  IDiag  1:
 RMSU=  1.02D-06    CP:  1.00D+00  1.06D+00  6.79D-01
 FoFJK:  IHMeth= 1 ICntrl=     0 DoSepK=T KAlg= 1 I1Cent= 0 FoldK=F
 E= -115.674435579194     Delta-E=       -0.000000026899 Rises=F Damp=F
 DIIS: error= 1.85D-06 at cycle   4 NSaved=   4.
 NSaved= 4 IEnMin= 4 EnMin= -115.674435579194     IErMin= 4 ErrMin= 1.85D-06
 ErrMax= 1.85D-06 EMaxC= 1.00D-01 BMatC= 1.13D-10 BMatP= 3.93D-08
 IDIUse=1 WtCom= 1.00D+00 WtEn= 0.00D+00
 Coeff-Com: -0.273D-02-0.659D-02 0.104D-01 0.999D+00
 Coeff:     -0.273D-02-0.659D-02 0.104D-01 0.999D+00
 Gap=     0.513 Goal=   None    Shift=    0.000
 RMSDP=4.87D-07 MaxDP=4.61D-06 DE=-2.69D-08 OVMax= 5.42D-06

 Cycle  12  Pass 1  IDiag  1:
 RMSU=  2.35D-07    CP:  1.00D+00  1.07D+00  7.12D-01  1.17D+00
 FoFJK:  IHMeth= 1 ICntrl=     0 DoSepK=T KAlg= 1 I1Cent= 0 FoldK=F
 E= -115.674435579370     Delta-E=       -0.000000000176 Rises=F Damp=F
 DIIS: error= 6.91D-07 at cycle   5 NSaved=   5.
 NSaved= 5 IEnMin= 5 EnMin= -115.674435579370     IErMin= 5 ErrMin= 6.91D-07
 ErrMax= 6.91D-07 EMaxC= 1.00D-01 BMatC= 2.26D-11 BMatP= 1.13D-10
 IDIUse=1 WtCom= 1.00D+00 WtEn= 0.00D+00
 Coeff-Com:  0.160D-02-0.300D-01-0.269D-01 0.275D+00 0.781D+00
 Coeff:      0.160D-02-0.300D-01-0.269D-01 0.275D+00 0.781D+00
 Gap=     0.513 Goal=   None    Shift=    0.000
 RMSDP=1.61D-07 MaxDP=1.47D-06 DE=-1.76D-10 OVMax= 1.85D-06

 Cycle  13  Pass 1  IDiag  1:
 RMSU=  7.38D-08    CP:  1.00D+00  1.07D+00  7.21D-01  1.24D+00  9.58D-01
 FoFJK:  IHMeth= 1 ICntrl=     0 DoSepK=T KAlg= 1 I1Cent= 0 FoldK=F
 E= -115.674435579395     Delta-E=       -0.000000000025 Rises=F Damp=F
 DIIS: error= 2.19D-07 at cycle   6 NSaved=   6.
 NSaved= 6 IEnMin= 6 EnMin= -115.674435579395     IErMin= 6 ErrMin= 2.19D-07
 ErrMax= 2.19D-07 EMaxC= 1.00D-01 BMatC= 1.31D-12 BMatP= 2.26D-11
 IDIUse=1 WtCom= 1.00D+00 WtEn= 0.00D+00
 Coeff-Com:  0.686D-03-0.684D-02-0.691D-02-0.881D-02 0.181D+00 0.841D+00
 Coeff:      0.686D-03-0.684D-02-0.691D-02-0.881D-02 0.181D+00 0.841D+00
 Gap=     0.513 Goal=   None    Shift=    0.000
 RMSDP=4.99D-08 MaxDP=4.29D-07 DE=-2.51D-11 OVMax= 5.48D-07

 Cycle  14  Pass 1  IDiag  1:
 RMSU=  1.66D-08    CP:  1.00D+00  1.07D+00  7.23D-01  1.26D+00  1.06D+00
                    CP:  1.07D+00
 FoFJK:  IHMeth= 1 ICntrl=     0 DoSepK=T KAlg= 1 I1Cent= 0 FoldK=F
 E= -115.674435579397     Delta-E=       -0.000000000002 Rises=F Damp=F
 DIIS: error= 2.29D-08 at cycle   7 NSaved=   7.
 NSaved= 7 IEnMin= 7 EnMin= -115.674435579397     IErMin= 7 ErrMin= 2.29D-08
 ErrMax= 2.29D-08 EMaxC= 1.00D-01 BMatC= 3.66D-14 BMatP= 1.31D-12
 IDIUse=1 WtCom= 1.00D+00 WtEn= 0.00D+00
 Coeff-Com: -0.685D-04 0.135D-02 0.119D-02-0.155D-01-0.377D-01 0.348D-01
 Coeff-Com:  0.102D+01
 Coeff:     -0.685D-04 0.135D-02 0.119D-02-0.155D-01-0.377D-01 0.348D-01
 Coeff:      0.102D+01
 Gap=     0.513 Goal=   None    Shift=    0.000
 RMSDP=1.70D-08 MaxDP=1.47D-07 DE=-1.65D-12 OVMax= 1.82D-07

 Cycle  15  Pass 1  IDiag  1:
 RMSU=  3.12D-09    CP:  1.00D+00  1.07D+00  7.24D-01  1.26D+00  1.08D+00
                    CP:  1.17D+00  1.22D+00
 FoFJK:  IHMeth= 1 ICntrl=     0 DoSepK=T KAlg= 1 I1Cent= 0 FoldK=F
 E= -115.674435579397     Delta-E=        0.000000000000 Rises=F Damp=F
 DIIS: error= 3.77D-09 at cycle   8 NSaved=   8.
 NSaved= 8 IEnMin= 8 EnMin= -115.674435579397     IErMin= 8 ErrMin= 3.77D-09
 ErrMax= 3.77D-09 EMaxC= 1.00D-01 BMatC= 1.30D-15 BMatP= 3.66D-14
 IDIUse=1 WtCom= 1.00D+00 WtEn= 0.00D+00
 Coeff-Com: -0.165D-04 0.127D-03 0.700D-04 0.147D-02-0.270D-02-0.355D-01
 Coeff-Com: -0.687D-01 0.111D+01
 Coeff:     -0.165D-04 0.127D-03 0.700D-04 0.147D-02-0.270D-02-0.355D-01
 Coeff:     -0.687D-01 0.111D+01
 Gap=     0.513 Goal=   None    Shift=    0.000
 RMSDP=4.01D-09 MaxDP=3.18D-08 DE=-3.98D-13 OVMax= 4.80D-08

 SCF Done:  E(RwB97XD) =  -115.674435579     A.U. after   15 cycles
             Convg  =    0.4012D-08             -V/T =  2.0086
 KE= 1.146866781283D+02 PE=-3.511101241292D+02 EE= 8.076452628820D+01
 Leave Link  502 at Fri Jan  8 13:31:14 2021, MaxMem=13421772800 cpu:      21.9
 (Enter /opt/g09gh/gaussian/g09/l601.exe)
 Copying SCF densities to generalized density rwf, IOpCl= 0 IROHF=0.

 **********************************************************************

            Population analysis using the SCF density.

 **********************************************************************

 Orbital symmetries:
       Occupied  (A) (A) (A) (A) (A) (A) (A) (A) (A)
       Virtual   (A) (A) (A) (A) (A) (A) (A) (A) (A) (A) (A) (A)
                 (A) (A) (A) (A) (A) (A) (A) (A) (A) (A) (A) (A)
                 (A) (A) (A) (A) (A)
 The electronic state is 1-A.
 Alpha  occ. eigenvalues --  -19.25924 -10.33080  -1.10010  -0.78059  -0.58711
 Alpha  occ. eigenvalues --   -0.51933  -0.50448  -0.40940  -0.34745
 Alpha virt. eigenvalues --    0.16556   0.21897   0.25119   0.26717   0.29407
 Alpha virt. eigenvalues --    0.62357   0.64648   0.65998   0.90152   0.96010
 Alpha virt. eigenvalues --    0.97054   1.01433   1.05350   1.06902   1.11459
 Alpha virt. eigenvalues --    1.22981   1.54421   1.58196   1.66028   1.84772
 Alpha virt. eigenvalues --    2.11223   2.19563   2.22735   2.40162   2.46328
 Alpha virt. eigenvalues --    2.60370   2.87435   3.79883   4.32931
          Condensed to atoms (all electrons):
              1          2          3          4          5          6
     1  O    8.253236   0.251559  -0.026355  -0.038602  -0.037484   0.245633
     2  C    0.251559   4.877065   0.374546   0.377767   0.391988  -0.024613
     3  H   -0.026355   0.374546   0.583990  -0.042506  -0.031675  -0.008484
     4  H   -0.038602   0.377767  -0.042506   0.587347  -0.042199   0.000395
     5  H   -0.037484   0.391988  -0.031675  -0.042199   0.535146   0.004961
     6  H    0.245633  -0.024613  -0.008484   0.000395   0.004961   0.373358
 Mulliken atomic charges:
              1
     1  O   -0.647986
     2  C   -0.248312
     3  H    0.150484
     4  H    0.157799
     5  H    0.179264
     6  H    0.408751
 Sum of Mulliken atomic charges =   0.00000
 Mulliken charges with hydrogens summed into heavy atoms:
              1
     1  O   -0.239235
     2  C    0.239235
 Sum of Mulliken charges with hydrogens summed into heavy atoms =   0.00000
 Electronic spatial extent (au):  <R**2>=             84.7446
 Charge=              0.0000 electrons
 Dipole moment (field-independent basis, Debye):
    X=             -0.8153    Y=              1.6161    Z=             -0.0306  Tot=              1.8104
 Quadrupole moment (field-independent basis, Debye-Ang):
   XX=            -12.0309   YY=            -12.0224   ZZ=            -13.4358
   XY=              2.2713   XZ=              0.1068   YZ=              0.0520
 Traceless Quadrupole moment (field-independent basis, Debye-Ang):
   XX=              0.4655   YY=              0.4739   ZZ=             -0.9394
   XY=              2.2713   XZ=              0.1068   YZ=              0.0520
 Octapole moment (field-independent basis, Debye-Ang**2):
  XXX=              4.8360  YYY=              1.1368  ZZZ=              0.3409  XYY=              1.8384
  XXY=              2.5905  XXZ=             -0.0386  XZZ=              0.3610  YZZ=              0.1366
  YYZ=             -0.5033  XYZ=             -0.0268
 Hexadecapole moment (field-independent basis, Debye-Ang**3):
 XXXX=            -59.5912 YYYY=            -18.7755 ZZZZ=            -18.2723 XXXY=              4.0529
 XXXZ=              0.1905 YYYX=              2.1373 YYYZ=              0.0597 ZZZX=             -0.3859
 ZZZY=              0.0789 XXYY=            -12.0857 XXZZ=            -13.5438 YYZZ=             -6.2580
 XXYZ=              0.1393 YYXZ=              0.6377 ZZXY=              0.4710
 N-N= 3.998448413336D+01 E-N=-3.511101242456D+02  KE= 1.146866781283D+02
 No NMR shielding tensors so no spin-rotation constants.
 Leave Link  601 at Fri Jan  8 13:31:14 2021, MaxMem=13421772800 cpu:       0.9
 (Enter /opt/g09gh/gaussian/g09/l701.exe)
 Compute integral first derivatives.
 ... and contract with generalized density number  0.
 R6Disp: Adding dispersion energy 1st derivatives to the gradient.
 Leave Link  701 at Fri Jan  8 13:31:14 2021, MaxMem=13421772800 cpu:       0.9
 (Enter /opt/g09gh/gaussian/g09/l702.exe)
 L702 exits ... SP integral derivatives will be done elsewhere.
 Leave Link  702 at Fri Jan  8 13:31:15 2021, MaxMem=13421772800 cpu:       0.3
 (Enter /opt/g09gh/gaussian/g09/l703.exe)
 Compute integral first derivatives, UseDBF=F ICtDFT=           0.
 Integral derivatives from FoFDir, PRISM(SPDF).
 Calling FoFJK, ICntrl=      2127 FMM=F ISym2X=0 I1Cent= 0 IOpClX= 0 NMat=1 NMatS=1 NMatT=0.
 FoFJK:  IHMeth= 1 ICntrl=  2127 DoSepK=T KAlg= 1 I1Cent= 0 FoldK=F
 FoFCou: FMM=F IPFlag=           0 FMFlag=      100000 FMFlg1=         800
         NFxFlg=           0 DoJE=F BraDBF=F KetDBF=F FulRan=T
         Omega=  0.000000  0.000000  1.000000  0.000000  0.000000 ICntrl=    2527 IOpCl=  0
         NMat0=    1 NMatS0=    1 NMatT0=    0 NMatD0=    1 NMtDS0=    0 NMtDT0=    0
         I1Cent=           0 NGrid=           0.
 Symmetry not used in FoFCou.
 Leave Link  703 at Fri Jan  8 13:31:15 2021, MaxMem=13421772800 cpu:       2.4
 (Enter /opt/g09gh/gaussian/g09/l716.exe)
 Dipole        =-3.20747257D-01 6.35842262D-01-1.20440441D-02
 ***** Axes restored to original set *****
 -------------------------------------------------------------------
 Center     Atomic                   Forces (Hartrees/Bohr)
 Number     Number              X              Y              Z
 -------------------------------------------------------------------
      1        8          -0.013792416   -0.002969993   -0.001775842
      2        6           0.025379954    0.001928584   -0.001552439
      3        1          -0.000127969    0.007885863   -0.004115145
      4        1          -0.001054467    0.001052732    0.010037767
      5        1          -0.001470893   -0.008307472   -0.004334775
      6        1          -0.008934210    0.000410286    0.001740435
 -------------------------------------------------------------------
 Cartesian Forces:  Max     0.025379954 RMS     0.008190702
 Leave Link  716 at Fri Jan  8 13:31:15 2021, MaxMem=13421772800 cpu:       0.3
 (Enter /opt/g09gh/gaussian/g09/l103.exe)

 GradGradGradGradGradGradGradGradGradGradGradGradGradGradGradGradGradGrad
 Berny optimization.
 Internal  Forces:  Max     0.022360464 RMS     0.008280940
 Search for a local minimum.
 Step number   1 out of a maximum of    2
 All quantities printed in internal units (Hartrees-Bohrs-Radians)
 RMS Force = .92269D-02 SwitMx=.10000D-02 MixMth= 1
 Mixed Optimization -- RFO/linear search
 Second derivative matrix not updated -- first step.
 The second derivative matrix:
                          R1        R2        R3        R4        R5
           R1           0.39320
           R2           0.00000   0.54399
           R3           0.00000   0.00000   0.35427
           R4           0.00000   0.00000   0.00000   0.35560
           R5           0.00000   0.00000   0.00000   0.00000   0.36025
           A1           0.00000   0.00000   0.00000   0.00000   0.00000
           A2           0.00000   0.00000   0.00000   0.00000   0.00000
           A3           0.00000   0.00000   0.00000   0.00000   0.00000
           A4           0.00000   0.00000   0.00000   0.00000   0.00000
           A5           0.00000   0.00000   0.00000   0.00000   0.00000
           A6           0.00000   0.00000   0.00000   0.00000   0.00000
           A7           0.00000   0.00000   0.00000   0.00000   0.00000
           D1           0.00000   0.00000   0.00000   0.00000   0.00000
           D2           0.00000   0.00000   0.00000   0.00000   0.00000
           D3           0.00000   0.00000   0.00000   0.00000   0.00000
                          A1        A2        A3        A4        A5
           A1           0.16000
           A2           0.00000   0.16000
           A3           0.00000   0.00000   0.16000
           A4           0.00000   0.00000   0.00000   0.16000
           A5           0.00000   0.00000   0.00000   0.00000   0.16000
           A6           0.00000   0.00000   0.00000   0.00000   0.00000
           A7           0.00000   0.00000   0.00000   0.00000   0.00000
           D1           0.00000   0.00000   0.00000   0.00000   0.00000
           D2           0.00000   0.00000   0.00000   0.00000   0.00000
           D3           0.00000   0.00000   0.00000   0.00000   0.00000
                          A6        A7        D1        D2        D3
           A6           0.16000
           A7           0.00000   0.16000
           D1           0.00000   0.00000   0.01137
           D2           0.00000   0.00000   0.00000   0.01137
           D3           0.00000   0.00000   0.00000   0.00000   0.01137
     Eigenvalues ---    0.16000   0.16000   0.16000   0.16000   0.35427
     Eigenvalues ---    0.35560   0.36025   0.39320   0.543991000.00000
     Eigenvalues --- 1000.000001000.000001000.000001000.000001000.00000
 RFO step:  Lambda=-3.55320368D-03 EMin= 1.60000000D-01
 Linear search not attempted -- first point.
 Iteration  1 RMS(Cart)=  0.05180285 RMS(Int)=  0.00134011
 Iteration  2 RMS(Cart)=  0.00109616 RMS(Int)=  0.00006898
 Iteration  3 RMS(Cart)=  0.00000018 RMS(Int)=  0.00006898
 Iteration  1 RMS(Cart)=  0.00000066 RMS(Int)=  0.00000098
 Variable       Old X    -DE/DX   Delta X   Delta X   Delta X     New X
                                 (Linear)    (Quad)   (Total)
    R1        2.72488  -0.02236   0.00000  -0.05636  -0.05636   2.66852
    R2        1.82370  -0.00376   0.00000  -0.00687  -0.00687   1.81683
    R3        2.04987   0.00847   0.00000   0.02367   0.02367   2.07354
    R4        2.04776   0.00968   0.00000   0.02696   0.02696   2.07472
    R5        2.04043   0.00921   0.00000   0.02531   0.02531   2.06574
    A1        1.95496  -0.01480   0.00000  -0.09051  -0.09051   1.86446
    A2        1.97851  -0.00287   0.00000  -0.01582  -0.01593   1.96258
    A3        1.95924  -0.00303   0.00000  -0.01630  -0.01642   1.94282
    A4        1.87110  -0.00143   0.00000  -0.01251  -0.01262   1.85848
    A5        1.89351   0.00204   0.00000   0.01876   0.01865   1.91216
    A6        1.87450   0.00298   0.00000   0.01414   0.01404   1.88853
    A7        1.88275   0.00281   0.00000   0.01409   0.01398   1.89673
    D1        0.55295  -0.00001   0.00000   0.00000   0.00000   0.55295
    D2       -1.60024   0.00187   0.00000   0.00000   0.00000  -1.60024
    D3        2.61845   0.00106   0.00000   0.00000   0.00000   2.61844
         Item               Value     Threshold  Converged?
 Maximum Force            0.022360     0.002500     NO 
 RMS     Force            0.009227     0.001667     NO 
 Maximum Displacement     0.153858     0.010000     NO 
 RMS     Displacement     0.052292     0.006667     NO 
 Predicted change in Energy=-1.802828D-03
 GradGradGradGradGradGradGradGradGradGradGradGradGradGradGradGradGradGrad

 Leave Link  103 at Fri Jan  8 13:31:15 2021, MaxMem=13421772800 cpu:       0.0
 (Enter /opt/g09gh/gaussian/g09/l202.exe)
                          Input orientation:                          
 ---------------------------------------------------------------------
 Center     Atomic      Atomic             Coordinates (Angstroms)
 Number     Number       Type             X           Y           Z
 ---------------------------------------------------------------------
      1          8           0        0.740978   -0.142716   -0.000557
      2          6           0       -0.661534    0.021707    0.002023
      3          1           0       -0.977067    0.936657   -0.514990
      4          1           0       -1.061596    0.020688    1.024433
      5          1           0       -1.075233   -0.834876   -0.536568
      6          1           0        1.124542    0.738749    0.014679
 ---------------------------------------------------------------------
                    Distance matrix (angstroms):
                    1          2          3          4          5
     1  O    0.000000
     2  C    1.412120   0.000000
     3  H    2.093172   1.097268   0.000000
     4  H    2.080043   1.097894   1.793311   0.000000
     5  H    2.016188   1.093143   1.774382   1.780140   0.000000
     6  H    0.961423   1.924676   2.176345   2.512850   2.760286
                    6
     6  H    0.000000
 Stoichiometry    CH4O
 Framework group  C1[X(CH4O)]
 Deg. of freedom    12
 Full point group                 C1      NOp   1
 Largest Abelian subgroup         C1      NOp   1
 Largest concise Abelian subgroup C1      NOp   1
                         Standard orientation:                         
 ---------------------------------------------------------------------
 Center     Atomic      Atomic             Coordinates (Angstroms)
 Number     Number       Type             X           Y           Z
 ---------------------------------------------------------------------
      1          8           0        0.744651   -0.123008   -0.000403
      2          6           0       -0.660209    0.019969    0.002185
      3          1           0       -0.989564    0.931160   -0.512843
      4          1           0       -1.060438    0.010527    1.024485
      5          1           0       -1.060655   -0.841613   -0.538447
      6          1           0        1.114703    0.764177    0.016922
 ---------------------------------------------------------------------
 Rotational constants (GHZ):    126.9636010     25.1000281     24.1989430
 Leave Link  202 at Fri Jan  8 13:31:15 2021, MaxMem=13421772800 cpu:       0.0
 (Enter /opt/g09gh/gaussian/g09/l301.exe)
 Standard basis: 6-31G(d) (6D, 7F)
 Ernie: Thresh=  0.10000D-02 Tol=  0.10000D-05 Strict=F.
 There are    38 symmetry adapted basis functions of A   symmetry.
 Integral buffers will be    131072 words long.
 Raffenetti 2 integral format.
 Two-electron integral symmetry is turned on.
    38 basis functions,    72 primitive gaussians,    38 cartesian basis functions
     9 alpha electrons        9 beta electrons
       nuclear repulsion energy        40.4240225202 Hartrees.
 IExCor= 4639 DFT=T Ex+Corr=wB97XD ExCW=0 ScaHFX=  1.000000
 ScaDFX=  1.000000  1.000000  1.000000  1.000000 ScalE2=  1.000000  1.000000
 IRadAn=      0 IRanWt=     -1 IRanGd=            0 ICorTp=0
  HFx wShort=  0.000000 wLong=  0.200000 cFull=  0.222036 cShort=  0.000000 cLong=  0.777964
  DFx wShort=  0.000000 wLong=  0.200000 cFull=  0.000000 cShort=  0.000000 cLong=  1.000000
 NAtoms=    6 NActive=    6 NUniq=    6 SFac= 7.50D-01 NAtFMM=   80 NAOKFM=F Big=F
 R6Disp: Dispersion energy =        -0.0008163435 Hartrees.
 Nuclear repulsion after empirical dispersion term =       40.4232061767 Hartrees.
 Leave Link  301 at Fri Jan  8 13:31:15 2021, MaxMem=13421772800 cpu:       0.4
 (Enter /opt/g09gh/gaussian/g09/l302.exe)
 NPDir=0 NMtPBC=     1 NCelOv=     1 NCel=       1 NClECP=     1 NCelD=      1
         NCelK=      1 NCelE2=     1 NClLst=     1 CellRange=     0.0.
 One-electron integrals computed using PRISM.
 NBasis=    38 RedAO= T  NBF=    38
 NBsUse=    38 1.00D-06 NBFU=    38
 Precomputing XC quadrature grid using
 IXCGrd= 2 IRadAn=           0 IRanWt=          -1 IRanGd=           0 AccXCQ= 1.00D-10.
 NRdTot=     369 NPtTot=       46428 NUsed=       49102 NTot=       49134
 NSgBfM=    38    38    38    38    38 NAtAll=     6     6.
 Leave Link  302 at Fri Jan  8 13:31:15 2021, MaxMem=13421772800 cpu:       1.1
 (Enter /opt/g09gh/gaussian/g09/l303.exe)
 DipDrv:  MaxL=1.
 Leave Link  303 at Fri Jan  8 13:31:15 2021, MaxMem=13421772800 cpu:       0.3
 (Enter /opt/g09gh/gaussian/g09/l401.exe)
 Initial guess read from the read-write file.
 B after Tr=     0.000000    0.000000    0.000000
         Rot=    1.000000    0.000000    0.000000    0.000000 Ang=   0.00 deg.
 Guess basis will be translated and rotated to current coordinates.
 Initial guess orbital symmetries:
       Occupied  (A) (A) (A) (A) (A) (A) (A) (A) (A)
       Virtual   (A) (A) (A) (A) (A) (A) (A) (A) (A) (A) (A) (A)
                 (A) (A) (A) (A) (A) (A) (A) (A) (A) (A) (A) (A)
                 (A) (A) (A) (A) (A)
 The electronic state of the initial guess is 1-A.
 Generating alternative initial guess.
 Harris functional with IExCor= 4639 diagonalized for initial guess.
 ExpMin= 1.61D-01 ExpMax= 5.48D+03 ExpMxC= 8.25D+02 IAcc=1 IRadAn=         1 AccDes= 0.00D+00
 HarFok:  IExCor= 4639 AccDes= 0.00D+00 IRadAn=         1 IDoV= 1
 ScaDFX=  1.000000  1.000000  1.000000  1.000000
 FoFCou: FMM=F IPFlag=           0 FMFlag=      100000 FMFlg1=           0
         NFxFlg=           0 DoJE=T BraDBF=F KetDBF=T FulRan=T
         Omega=  0.000000  0.000000  1.000000  0.000000  0.000000 ICntrl=     500 IOpCl=  0
         NMat0=    1 NMatS0=    1 NMatT0=    0 NMatD0=    1 NMtDS0=    0 NMtDT0=    0
         I1Cent=           4 NGrid=           0.
 Petite list used in FoFCou.
 Harris En= -110.930650431716    
 Leave Link  401 at Fri Jan  8 13:31:15 2021, MaxMem=13421772800 cpu:       1.6
 (Enter /opt/g09gh/gaussian/g09/l502.exe)
 Closed shell SCF:
 Requested convergence on RMS density matrix=1.00D-08 within 128 cycles.
 Requested convergence on MAX density matrix=1.00D-06.
 Requested convergence on             energy=1.00D-06.
 No special actions if energy rises.
 Using DIIS extrapolation, IDIIS=  1040.
 Integral symmetry usage will be decided dynamically.
        49035 words used for storage of precomputed grid.
 IEnd=       72111 IEndB=       72111 NGot= 13421772800 MDV= 13421718812
 LenX= 13421718812 LenY= 13421716927
 Fock matrices will be formed incrementally for  20 cycles.
 Integral accuracy reduced to 1.0D-05 until final iterations.

 Cycle   1  Pass 0  IDiag  1:
 FoFJK:  IHMeth= 1 ICntrl=     0 DoSepK=T KAlg= 1 I1Cent= 0 FoldK=F
 FoFCou: FMM=F IPFlag=           0 FMFlag=      100000 FMFlg1=           0
         NFxFlg=           0 DoJE=T BraDBF=F KetDBF=F FulRan=T
         Omega=  0.000000  0.000000  1.000000  0.000000  0.000000 ICntrl=     500 IOpCl=  0
         NMat0=    1 NMatS0=    1 NMatT0=    0 NMatD0=    1 NMtDS0=    0 NMtDT0=    0
         I1Cent=           0 NGrid=           0.
 Symmetry not used in FoFCou.
 E= -115.675046421628    
 DIIS: error= 3.62D-03 at cycle   1 NSaved=   1.
 NSaved= 1 IEnMin= 1 EnMin= -115.675046421628     IErMin= 1 ErrMin= 3.62D-03
 ErrMax= 3.62D-03 EMaxC= 1.00D-01 BMatC= 8.01D-04 BMatP= 8.01D-04
 IDIUse=3 WtCom= 9.64D-01 WtEn= 3.62D-02
 Coeff-Com:  0.100D+01
 Coeff-En:   0.100D+01
 Coeff:      0.100D+01
 Gap=     0.514 Goal=   None    Shift=    0.000
 GapD=    0.514 DampG=2.000 DampE=1.000 DampFc=2.0000 IDamp=-1.
 RMSDP=8.16D-04 MaxDP=8.28D-03              OVMax= 9.84D-03

 Cycle   2  Pass 0  IDiag  1:
 RMSU=  5.76D-04    CP:  1.00D+00
 FoFJK:  IHMeth= 1 ICntrl=     0 DoSepK=T KAlg= 1 I1Cent= 0 FoldK=F
 E= -115.676020898017     Delta-E=       -0.000974476388 Rises=F Damp=F
 DIIS: error= 8.07D-04 at cycle   2 NSaved=   2.
 NSaved= 2 IEnMin= 2 EnMin= -115.676020898017     IErMin= 2 ErrMin= 8.07D-04
 ErrMax= 8.07D-04 EMaxC= 1.00D-01 BMatC= 3.76D-05 BMatP= 8.01D-04
 IDIUse=3 WtCom= 9.92D-01 WtEn= 8.07D-03
 Coeff-Com: -0.435D-02 0.100D+01
 Coeff-En:   0.000D+00 0.100D+01
 Coeff:     -0.432D-02 0.100D+01
 Gap=     0.511 Goal=   None    Shift=    0.000
 RMSDP=2.10D-04 MaxDP=1.73D-03 DE=-9.74D-04 OVMax= 2.53D-03

 Cycle   3  Pass 0  IDiag  1:
 RMSU=  1.23D-04    CP:  1.00D+00  1.14D+00
 FoFJK:  IHMeth= 1 ICntrl=     0 DoSepK=T KAlg= 1 I1Cent= 0 FoldK=F
 E= -115.676060694554     Delta-E=       -0.000039796537 Rises=F Damp=F
 DIIS: error= 4.63D-04 at cycle   3 NSaved=   3.
 NSaved= 3 IEnMin= 3 EnMin= -115.676060694554     IErMin= 3 ErrMin= 4.63D-04
 ErrMax= 4.63D-04 EMaxC= 1.00D-01 BMatC= 1.39D-05 BMatP= 3.76D-05
 IDIUse=3 WtCom= 9.95D-01 WtEn= 4.63D-03
 Coeff-Com: -0.471D-01 0.352D+00 0.695D+00
 Coeff-En:   0.000D+00 0.000D+00 0.100D+01
 Coeff:     -0.469D-01 0.350D+00 0.697D+00
 Gap=     0.512 Goal=   None    Shift=    0.000
 RMSDP=8.47D-05 MaxDP=1.05D-03 DE=-3.98D-05 OVMax= 1.09D-03

 Cycle   4  Pass 0  IDiag  1:
 RMSU=  5.41D-05    CP:  1.00D+00  1.18D+00  8.55D-01
 FoFJK:  IHMeth= 1 ICntrl=     0 DoSepK=T KAlg= 1 I1Cent= 0 FoldK=F
 E= -115.676070309265     Delta-E=       -0.000009614711 Rises=F Damp=F
 DIIS: error= 2.06D-04 at cycle   4 NSaved=   4.
 NSaved= 4 IEnMin= 4 EnMin= -115.676070309265     IErMin= 4 ErrMin= 2.06D-04
 ErrMax= 2.06D-04 EMaxC= 1.00D-01 BMatC= 2.01D-06 BMatP= 1.39D-05
 IDIUse=3 WtCom= 9.98D-01 WtEn= 2.06D-03
 Coeff-Com: -0.200D-01 0.331D-01 0.300D+00 0.686D+00
 Coeff-En:   0.000D+00 0.000D+00 0.000D+00 0.100D+01
 Coeff:     -0.199D-01 0.330D-01 0.300D+00 0.687D+00
 Gap=     0.512 Goal=   None    Shift=    0.000
 RMSDP=2.97D-05 MaxDP=2.97D-04 DE=-9.61D-06 OVMax= 3.08D-04

 Cycle   5  Pass 0  IDiag  1:
 RMSU=  1.22D-05    CP:  1.00D+00  1.19D+00  9.76D-01  9.22D-01
 FoFJK:  IHMeth= 1 ICntrl=     0 DoSepK=T KAlg= 1 I1Cent= 0 FoldK=F
 E= -115.676071870186     Delta-E=       -0.000001560921 Rises=F Damp=F
 DIIS: error= 2.06D-05 at cycle   5 NSaved=   5.
 NSaved= 5 IEnMin= 5 EnMin= -115.676071870186     IErMin= 5 ErrMin= 2.06D-05
 ErrMax= 2.06D-05 EMaxC= 1.00D-01 BMatC= 1.40D-08 BMatP= 2.01D-06
 IDIUse=1 WtCom= 1.00D+00 WtEn= 0.00D+00
 Coeff-Com:  0.436D-02-0.193D-01-0.700D-01-0.100D+00 0.119D+01
 Coeff:      0.436D-02-0.193D-01-0.700D-01-0.100D+00 0.119D+01
 Gap=     0.512 Goal=   None    Shift=    0.000
 RMSDP=1.09D-05 MaxDP=8.02D-05 DE=-1.56D-06 OVMax= 1.29D-04

 Cycle   6  Pass 0  IDiag  1:
 RMSU=  1.87D-06    CP:  1.00D+00  1.19D+00  1.01D+00  1.01D+00  1.27D+00
 FoFJK:  IHMeth= 1 ICntrl=     0 DoSepK=T KAlg= 1 I1Cent= 0 FoldK=F
 E= -115.676071908588     Delta-E=       -0.000000038402 Rises=F Damp=F
 DIIS: error= 5.11D-06 at cycle   6 NSaved=   6.
 NSaved= 6 IEnMin= 6 EnMin= -115.676071908588     IErMin= 6 ErrMin= 5.11D-06
 ErrMax= 5.11D-06 EMaxC= 1.00D-01 BMatC= 9.52D-10 BMatP= 1.40D-08
 IDIUse=1 WtCom= 1.00D+00 WtEn= 0.00D+00
 Coeff-Com:  0.147D-02-0.491D-02-0.220D-01-0.359D-01 0.270D+00 0.791D+00
 Coeff:      0.147D-02-0.491D-02-0.220D-01-0.359D-01 0.270D+00 0.791D+00
 Gap=     0.512 Goal=   None    Shift=    0.000
 RMSDP=1.36D-06 MaxDP=9.17D-06 DE=-3.84D-08 OVMax= 1.53D-05

 Initial convergence to 1.0D-05 achieved.  Increase integral accuracy.
 Cycle   7  Pass 1  IDiag  1:
 FoFJK:  IHMeth= 1 ICntrl=     0 DoSepK=T KAlg= 1 I1Cent= 0 FoldK=F
 E= -115.675823800581     Delta-E=        0.000248108007 Rises=F Damp=F
 DIIS: error= 1.41D-04 at cycle   1 NSaved=   1.
 NSaved= 1 IEnMin= 1 EnMin= -115.675823800581     IErMin= 1 ErrMin= 1.41D-04
 ErrMax= 1.41D-04 EMaxC= 1.00D-01 BMatC= 8.52D-07 BMatP= 8.52D-07
 IDIUse=3 WtCom= 9.99D-01 WtEn= 1.41D-03
 Coeff-Com:  0.100D+01
 Coeff-En:   0.100D+01
 Coeff:      0.100D+01
 Gap=     0.512 Goal=   None    Shift=    0.000
 RMSDP=1.36D-06 MaxDP=9.17D-06 DE= 2.48D-04 OVMax= 2.09D-04

 Cycle   8  Pass 1  IDiag  1:
 RMSU=  1.57D-05    CP:  1.00D+00
 FoFJK:  IHMeth= 1 ICntrl=     0 DoSepK=T KAlg= 1 I1Cent= 0 FoldK=F
 E= -115.675824479496     Delta-E=       -0.000000678915 Rises=F Damp=F
 DIIS: error= 3.30D-05 at cycle   2 NSaved=   2.
 NSaved= 2 IEnMin= 2 EnMin= -115.675824479496     IErMin= 2 ErrMin= 3.30D-05
 ErrMax= 3.30D-05 EMaxC= 1.00D-01 BMatC= 4.84D-08 BMatP= 8.52D-07
 IDIUse=1 WtCom= 1.00D+00 WtEn= 0.00D+00
 Coeff-Com:  0.252D-01 0.975D+00
 Coeff:      0.252D-01 0.975D+00
 Gap=     0.511 Goal=   None    Shift=    0.000
 RMSDP=7.90D-06 MaxDP=9.02D-05 DE=-6.79D-07 OVMax= 8.76D-05

 Cycle   9  Pass 1  IDiag  1:
 RMSU=  5.59D-06    CP:  1.00D+00  1.01D+00
 FoFJK:  IHMeth= 1 ICntrl=     0 DoSepK=T KAlg= 1 I1Cent= 0 FoldK=F
 E= -115.675824493044     Delta-E=       -0.000000013548 Rises=F Damp=F
 DIIS: error= 2.83D-05 at cycle   3 NSaved=   3.
 NSaved= 3 IEnMin= 3 EnMin= -115.675824493044     IErMin= 3 ErrMin= 2.83D-05
 ErrMax= 2.83D-05 EMaxC= 1.00D-01 BMatC= 4.49D-08 BMatP= 4.84D-08
 IDIUse=1 WtCom= 1.00D+00 WtEn= 0.00D+00
 Coeff-Com: -0.475D-01 0.506D+00 0.542D+00
 Coeff:     -0.475D-01 0.506D+00 0.542D+00
 Gap=     0.511 Goal=   None    Shift=    0.000
 RMSDP=3.21D-06 MaxDP=4.29D-05 DE=-1.35D-08 OVMax= 3.82D-05

 Cycle  10  Pass 1  IDiag  1:
 RMSU=  1.08D-06    CP:  1.00D+00  1.06D+00  6.77D-01
 FoFJK:  IHMeth= 1 ICntrl=     0 DoSepK=T KAlg= 1 I1Cent= 0 FoldK=F
 E= -115.675824523674     Delta-E=       -0.000000030630 Rises=F Damp=F
 DIIS: error= 1.38D-06 at cycle   4 NSaved=   4.
 NSaved= 4 IEnMin= 4 EnMin= -115.675824523674     IErMin= 4 ErrMin= 1.38D-06
 ErrMax= 1.38D-06 EMaxC= 1.00D-01 BMatC= 1.16D-10 BMatP= 4.49D-08
 IDIUse=1 WtCom= 1.00D+00 WtEn= 0.00D+00
 Coeff-Com: -0.243D-02-0.164D-01 0.745D-02 0.101D+01
 Coeff:     -0.243D-02-0.164D-01 0.745D-02 0.101D+01
 Gap=     0.511 Goal=   None    Shift=    0.000
 RMSDP=5.32D-07 MaxDP=4.99D-06 DE=-3.06D-08 OVMax= 5.52D-06

 Cycle  11  Pass 1  IDiag  1:
 RMSU=  2.18D-07    CP:  1.00D+00  1.07D+00  7.17D-01  1.19D+00
 FoFJK:  IHMeth= 1 ICntrl=     0 DoSepK=T KAlg= 1 I1Cent= 0 FoldK=F
 E= -115.675824523881     Delta-E=       -0.000000000207 Rises=F Damp=F
 DIIS: error= 3.29D-07 at cycle   5 NSaved=   5.
 NSaved= 5 IEnMin= 5 EnMin= -115.675824523881     IErMin= 5 ErrMin= 3.29D-07
 ErrMax= 3.29D-07 EMaxC= 1.00D-01 BMatC= 8.72D-12 BMatP= 1.16D-10
 IDIUse=1 WtCom= 1.00D+00 WtEn= 0.00D+00
 Coeff-Com:  0.143D-02-0.234D-01-0.228D-01 0.120D+00 0.925D+00
 Coeff:      0.143D-02-0.234D-01-0.228D-01 0.120D+00 0.925D+00
 Gap=     0.511 Goal=   None    Shift=    0.000
 RMSDP=1.49D-07 MaxDP=1.39D-06 DE=-2.07D-10 OVMax= 1.40D-06

 Cycle  12  Pass 1  IDiag  1:
 RMSU=  5.19D-08    CP:  1.00D+00  1.07D+00  7.25D-01  1.26D+00  1.09D+00
 FoFJK:  IHMeth= 1 ICntrl=     0 DoSepK=T KAlg= 1 I1Cent= 0 FoldK=F
 E= -115.675824523894     Delta-E=       -0.000000000013 Rises=F Damp=F
 DIIS: error= 1.32D-07 at cycle   6 NSaved=   6.
 NSaved= 6 IEnMin= 6 EnMin= -115.675824523894     IErMin= 6 ErrMin= 1.32D-07
 ErrMax= 1.32D-07 EMaxC= 1.00D-01 BMatC= 6.03D-13 BMatP= 8.72D-12
 IDIUse=1 WtCom= 1.00D+00 WtEn= 0.00D+00
 Coeff-Com:  0.478D-03-0.440D-02-0.503D-02-0.125D-01 0.184D+00 0.838D+00
 Coeff:      0.478D-03-0.440D-02-0.503D-02-0.125D-01 0.184D+00 0.838D+00
 Gap=     0.511 Goal=   None    Shift=    0.000
 RMSDP=3.61D-08 MaxDP=3.39D-07 DE=-1.33D-11 OVMax= 4.17D-07

 Cycle  13  Pass 1  IDiag  1:
 RMSU=  1.47D-08    CP:  1.00D+00  1.07D+00  7.26D-01  1.27D+00  1.16D+00
                    CP:  1.08D+00
 FoFJK:  IHMeth= 1 ICntrl=     0 DoSepK=T KAlg= 1 I1Cent= 0 FoldK=F
 E= -115.675824523895     Delta-E=       -0.000000000001 Rises=F Damp=F
 DIIS: error= 4.67D-08 at cycle   7 NSaved=   7.
 NSaved= 7 IEnMin= 7 EnMin= -115.675824523895     IErMin= 7 ErrMin= 4.67D-08
 ErrMax= 4.67D-08 EMaxC= 1.00D-01 BMatC= 7.31D-14 BMatP= 6.03D-13
 IDIUse=1 WtCom= 1.00D+00 WtEn= 0.00D+00
 Coeff-Com: -0.523D-04 0.131D-02 0.108D-02-0.157D-01-0.457D-01 0.225D+00
 Coeff-Com:  0.834D+00
 Coeff:     -0.523D-04 0.131D-02 0.108D-02-0.157D-01-0.457D-01 0.225D+00
 Coeff:      0.834D+00
 Gap=     0.511 Goal=   None    Shift=    0.000
 RMSDP=1.36D-08 MaxDP=1.28D-07 DE=-7.67D-13 OVMax= 1.43D-07

 Cycle  14  Pass 1  IDiag  1:
 RMSU=  3.09D-09    CP:  1.00D+00  1.07D+00  7.27D-01  1.27D+00  1.18D+00
                    CP:  1.20D+00  1.00D+00
 FoFJK:  IHMeth= 1 ICntrl=     0 DoSepK=T KAlg= 1 I1Cent= 0 FoldK=F
 E= -115.675824523895     Delta-E=        0.000000000000 Rises=F Damp=F
 DIIS: error= 4.25D-09 at cycle   8 NSaved=   8.
 NSaved= 8 IEnMin= 7 EnMin= -115.675824523895     IErMin= 8 ErrMin= 4.25D-09
 ErrMax= 4.25D-09 EMaxC= 1.00D-01 BMatC= 1.23D-15 BMatP= 7.31D-14
 IDIUse=1 WtCom= 1.00D+00 WtEn= 0.00D+00
 Coeff-Com: -0.100D-04 0.420D-04 0.260D-04 0.179D-02-0.216D-02-0.568D-01
 Coeff-Com: -0.563D-01 0.111D+01
 Coeff:     -0.100D-04 0.420D-04 0.260D-04 0.179D-02-0.216D-02-0.568D-01
 Coeff:     -0.563D-01 0.111D+01
 Gap=     0.511 Goal=   None    Shift=    0.000
 RMSDP=3.52D-09 MaxDP=2.99D-08 DE= 0.00D+00 OVMax= 3.45D-08

 SCF Done:  E(RwB97XD) =  -115.675824524     A.U. after   14 cycles
             Convg  =    0.3520D-08             -V/T =  2.0084
 KE= 1.147158814225D+02 PE=-3.519692878180D+02 EE= 8.115437569488D+01
 Leave Link  502 at Fri Jan  8 13:31:18 2021, MaxMem=13421772800 cpu:      21.0
 (Enter /opt/g09gh/gaussian/g09/l701.exe)
 Compute integral first derivatives.
 ... and contract with generalized density number  0.
 R6Disp: Adding dispersion energy 1st derivatives to the gradient.
 Leave Link  701 at Fri Jan  8 13:31:18 2021, MaxMem=13421772800 cpu:       0.9
 (Enter /opt/g09gh/gaussian/g09/l702.exe)
 L702 exits ... SP integral derivatives will be done elsewhere.
 Leave Link  702 at Fri Jan  8 13:31:18 2021, MaxMem=13421772800 cpu:       0.3
 (Enter /opt/g09gh/gaussian/g09/l703.exe)
 Compute integral first derivatives, UseDBF=F ICtDFT=           0.
 Integral derivatives from FoFDir, PRISM(SPDF).
 Calling FoFJK, ICntrl=      2127 FMM=F ISym2X=0 I1Cent= 0 IOpClX= 0 NMat=1 NMatS=1 NMatT=0.
 FoFJK:  IHMeth= 1 ICntrl=  2127 DoSepK=T KAlg= 1 I1Cent= 0 FoldK=F
 FoFCou: FMM=F IPFlag=           0 FMFlag=      100000 FMFlg1=         800
         NFxFlg=           0 DoJE=F BraDBF=F KetDBF=F FulRan=T
         Omega=  0.000000  0.000000  1.000000  0.000000  0.000000 ICntrl=    2527 IOpCl=  0
         NMat0=    1 NMatS0=    1 NMatT0=    0 NMatD0=    1 NMtDS0=    0 NMtDT0=    0
         I1Cent=           0 NGrid=           0.
 Symmetry not used in FoFCou.
 Leave Link  703 at Fri Jan  8 13:31:19 2021, MaxMem=13421772800 cpu:       2.4
 (Enter /opt/g09gh/gaussian/g09/l716.exe)
 Dipole        =-3.18140361D-01 6.44242017D-01-1.32670342D-02
 ***** Axes restored to original set *****
 -------------------------------------------------------------------
 Center     Atomic                   Forces (Hartrees/Bohr)
 Number     Number              X              Y              Z
 -------------------------------------------------------------------
      1        8           0.001051449    0.003475322   -0.002195914
      2        6           0.002217691   -0.005041900   -0.001392413
      3        1          -0.001299302    0.000100353    0.000397245
      4        1          -0.002054189    0.001669807    0.000081331
      5        1          -0.003019616    0.000184778    0.000921002
      6        1           0.003103966   -0.000388359    0.002188749
 -------------------------------------------------------------------
 Cartesian Forces:  Max     0.005041900 RMS     0.002156776
 Leave Link  716 at Fri Jan  8 13:31:19 2021, MaxMem=13421772800 cpu:       0.3
 (Enter /opt/g09gh/gaussian/g09/l103.exe)

 GradGradGradGradGradGradGradGradGradGradGradGradGradGradGradGradGradGrad
 Berny optimization.
 Using GEDIIS/GDIIS optimizer.
 Internal  Forces:  Max     0.005412051 RMS     0.002433943
 Search for a local minimum.
 Step number   2 out of a maximum of    2
 All quantities printed in internal units (Hartrees-Bohrs-Radians)
 RMS Force = .25636D-02 SwitMx=.10000D-02 MixMth= 1
 Mixed Optimization -- RFO/linear search
 Update second derivatives using D2CorX and points    1    2
 DE= -1.39D-03 DEPred=-1.80D-03 R= 7.70D-01
 SS=  1.41D+00  RLast= 1.22D-01 DXNew= 5.0454D-01 3.6454D-01
 Trust test= 7.70D-01 RLast= 1.22D-01 DXMaxT set to 3.65D-01
 The second derivative matrix:
                          R1        R2        R3        R4        R5
           R1           0.40760
           R2           0.00409   0.54498
           R3           0.00451   0.00024   0.34944
           R4           0.00824   0.00083  -0.00650   0.34713
           R5           0.00642   0.00053  -0.00573  -0.00758   0.35351
           A1           0.02802   0.00601  -0.00289  -0.00093  -0.00197
           A2           0.00330   0.00076   0.00000   0.00039   0.00019
           A3           0.01154   0.00225  -0.00255  -0.00236  -0.00250
           A4           0.02126   0.00395  -0.00585  -0.00601  -0.00603
           A5          -0.00982  -0.00196   0.00187   0.00156   0.00175
           A6          -0.01273  -0.00244   0.00308   0.00299   0.00308
           A7          -0.01485  -0.00282   0.00375   0.00371   0.00379
           D1           0.00143   0.00026  -0.00045  -0.00048  -0.00047
           D2           0.00260   0.00047  -0.00082  -0.00088  -0.00086
           D3           0.00124   0.00022  -0.00039  -0.00042  -0.00041
                          A1        A2        A3        A4        A5
           A1           0.19271
           A2           0.00449   0.16059
           A3           0.01093   0.00163   0.16316
           A4           0.01799   0.00281   0.00468   0.16633
           A5          -0.00987  -0.00143  -0.00299  -0.00460   0.16278
           A6          -0.01156  -0.00175  -0.00322  -0.00463   0.00309
           A7          -0.01319  -0.00202  -0.00360  -0.00509   0.00348
           D1           0.00110   0.00018   0.00026   0.00031  -0.00026
           D2           0.00201   0.00033   0.00047   0.00057  -0.00048
           D3           0.00096   0.00016   0.00023   0.00027  -0.00023
                          A6        A7        D1        D2        D3
           A6           0.16325
           A7           0.00362   0.16401
           D1          -0.00025  -0.00027   0.01138
           D2          -0.00045  -0.00049   0.00002   0.01141
           D3          -0.00022  -0.00023   0.00001   0.00002   0.01138
 Use linear search instead of GDIIS.
     Eigenvalues ---    0.15513   0.16000   0.16000   0.20645   0.33734
     Eigenvalues ---    0.35479   0.35884   0.41750   0.545421000.00000
     Eigenvalues --- 1000.000001000.000001000.000001000.000001000.00000
 RFO step:  Lambda=-1.41668548D-04 EMin= 1.55128034D-01
 Quartic linear search produced a step of -0.18602.
 Iteration  1 RMS(Cart)=  0.01333187 RMS(Int)=  0.00008149
 Iteration  2 RMS(Cart)=  0.00006774 RMS(Int)=  0.00002455
 Iteration  3 RMS(Cart)=  0.00000000 RMS(Int)=  0.00002455
 Iteration  1 RMS(Cart)=  0.00000807 RMS(Int)=  0.00001081
 Iteration  2 RMS(Cart)=  0.00000482 RMS(Int)=  0.00001203
 Iteration  3 RMS(Cart)=  0.00000288 RMS(Int)=  0.00001372
 Iteration  4 RMS(Cart)=  0.00000173 RMS(Int)=  0.00001497
 Iteration  5 RMS(Cart)=  0.00000104 RMS(Int)=  0.00001578
 Iteration  6 RMS(Cart)=  0.00000063 RMS(Int)=  0.00001629
 Variable       Old X    -DE/DX   Delta X   Delta X   Delta X     New X
                                 (Linear)    (Quad)   (Total)
    R1        2.66852   0.00376   0.01048  -0.00546   0.00503   2.67355
    R2        1.81683   0.00092   0.00128  -0.00022   0.00106   1.81789
    R3        2.07354   0.00027  -0.00440   0.00620   0.00179   2.07533
    R4        2.07472   0.00082  -0.00502   0.00825   0.00323   2.07795
    R5        2.06574   0.00054  -0.00471   0.00720   0.00249   2.06823
    A1        1.86446   0.00541   0.01684   0.00516   0.02200   1.88645
    A2        1.96258   0.00042   0.00296  -0.00004   0.00293   1.96551
    A3        1.94282   0.00172   0.00305   0.00652   0.00955   1.95237
    A4        1.85848   0.00432   0.00235   0.01537   0.01766   1.87614
    A5        1.91216  -0.00281  -0.00347  -0.00372  -0.00716   1.90500
    A6        1.88853  -0.00157  -0.00261  -0.00792  -0.01054   1.87799
    A7        1.89673  -0.00209  -0.00260  -0.01064  -0.01335   1.88339
    D1        0.55295   0.00023   0.00000   0.00000   0.00000   0.55295
    D2       -1.60024   0.00230   0.00000   0.00000   0.00000  -1.60024
    D3        2.61844   0.00127   0.00000   0.00000   0.00000   2.61844
         Item               Value     Threshold  Converged?
 Maximum Force            0.005412     0.002500     NO 
 RMS     Force            0.002564     0.001667     NO 
 Maximum Displacement     0.036375     0.010000     NO 
 RMS     Displacement     0.013322     0.006667     NO 
 Predicted change in Energy=-1.548053D-04
 Optimization stopped.
    -- Number of steps exceeded,  NStep=   2
    -- Flag reset to prevent archiving.
                           ----------------------------
                           ! Non-Optimized Parameters !
                           ! (Angstroms and Degrees)  !
 --------------------------                            --------------------------
 ! Name  Definition              Value          Derivative Info.                !
 --------------------------------------------------------------------------------
 ! R1    R(1,2)                  1.4148         -DE/DX =    0.0038              !
 ! R2    R(1,6)                  0.962          -DE/DX =    0.0009              !
 ! R3    R(2,3)                  1.0982         -DE/DX =    0.0003              !
 ! R4    R(2,4)                  1.0996         -DE/DX =    0.0008              !
 ! R5    R(2,5)                  1.0945         -DE/DX =    0.0005              !
 ! A1    A(2,1,6)              108.0857         -DE/DX =    0.0054              !
 ! A2    A(1,2,3)              112.6154         -DE/DX =    0.0004              !
 ! A3    A(1,2,4)              111.8625         -DE/DX =    0.0017              !
 ! A4    A(1,2,5)              107.4948         -DE/DX =    0.0043              !
 ! A5    A(3,2,4)              109.1485         -DE/DX =   -0.0028              !
 ! A6    A(3,2,5)              107.601          -DE/DX =   -0.0016              !
 ! A7    A(4,2,5)              107.9101         -DE/DX =   -0.0021              !
 ! D1    D(6,1,2,3)             31.6817         -DE/DX =    0.0002              !
 ! D2    D(6,1,2,4)            -91.6868         -DE/DX =    0.0023              !
 ! D3    D(6,1,2,5)            150.0258         -DE/DX =    0.0013              !
 --------------------------------------------------------------------------------
 GradGradGradGradGradGradGradGradGradGradGradGradGradGradGradGradGradGrad

 Largest change from initial coordinates is atom    6       0.097 Angstoms.
 Leave Link  103 at Fri Jan  8 13:31:19 2021, MaxMem=13421772800 cpu:       0.0
 (Enter /opt/g09gh/gaussian/g09/l202.exe)
                          Input orientation:                          
 ---------------------------------------------------------------------
 Center     Atomic      Atomic             Coordinates (Angstroms)
 Number     Number       Type             X           Y           Z
 ---------------------------------------------------------------------
      1          8           0        0.740978   -0.142716   -0.000557
      2          6           0       -0.661534    0.021707    0.002023
      3          1           0       -0.977067    0.936657   -0.514990
      4          1           0       -1.061596    0.020688    1.024433
      5          1           0       -1.075233   -0.834876   -0.536568
      6          1           0        1.124542    0.738749    0.014679
 ---------------------------------------------------------------------
                    Distance matrix (angstroms):
                    1          2          3          4          5
     1  O    0.000000
     2  C    1.412120   0.000000
     3  H    2.093172   1.097268   0.000000
     4  H    2.080043   1.097894   1.793311   0.000000
     5  H    2.016188   1.093143   1.774382   1.780140   0.000000
     6  H    0.961423   1.924676   2.176345   2.512850   2.760286
                    6
     6  H    0.000000
 Stoichiometry    CH4O
 Framework group  C1[X(CH4O)]
 Deg. of freedom    12
 Full point group                 C1      NOp   1
 Largest Abelian subgroup         C1      NOp   1
 Largest concise Abelian subgroup C1      NOp   1
                         Standard orientation:                         
 ---------------------------------------------------------------------
 Center     Atomic      Atomic             Coordinates (Angstroms)
 Number     Number       Type             X           Y           Z
 ---------------------------------------------------------------------
      1          8           0        0.744651   -0.123008   -0.000403
      2          6           0       -0.660209    0.019969    0.002185
      3          1           0       -0.989564    0.931160   -0.512843
      4          1           0       -1.060438    0.010527    1.024485
      5          1           0       -1.060655   -0.841613   -0.538447
      6          1           0        1.114703    0.764177    0.016922
 ---------------------------------------------------------------------
 Rotational constants (GHZ):    126.9636010     25.1000281     24.1989430
 Leave Link  202 at Fri Jan  8 13:31:19 2021, MaxMem=13421772800 cpu:       0.0
 (Enter /opt/g09gh/gaussian/g09/l601.exe)
 Copying SCF densities to generalized density rwf, IOpCl= 0 IROHF=0.

 **********************************************************************

            Population analysis using the SCF density.

 **********************************************************************

 Orbital symmetries:
       Occupied  (A) (A) (A) (A) (A) (A) (A) (A) (A)
       Virtual   (A) (A) (A) (A) (A) (A) (A) (A) (A) (A) (A) (A)
                 (A) (A) (A) (A) (A) (A) (A) (A) (A) (A) (A) (A)
                 (A) (A) (A) (A) (A)
 The electronic state is 1-A.
 Alpha  occ. eigenvalues --  -19.26102 -10.33244  -1.11449  -0.77378  -0.59162
 Alpha  occ. eigenvalues --   -0.52278  -0.50481  -0.41451  -0.34725
 Alpha virt. eigenvalues --    0.16423   0.22163   0.24872   0.26347   0.30028
 Alpha virt. eigenvalues --    0.63025   0.65555   0.66531   0.89599   0.95077
 Alpha virt. eigenvalues --    0.96359   0.99879   1.04475   1.06671   1.11490
 Alpha virt. eigenvalues --    1.22458   1.55284   1.58021   1.64340   1.83620
 Alpha virt. eigenvalues --    2.15587   2.19923   2.25961   2.43428   2.46810
 Alpha virt. eigenvalues --    2.57783   2.89345   3.80718   4.31791
          Condensed to atoms (all electrons):
              1          2          3          4          5          6
     1  O    8.243963   0.250036  -0.028790  -0.042956  -0.041161   0.249342
     2  C    0.250036   4.888016   0.375281   0.376488   0.390440  -0.030085
     3  H   -0.028790   0.375281   0.590581  -0.041482  -0.029816  -0.010895
     4  H   -0.042956   0.376488  -0.041482   0.595741  -0.040625   0.000404
     5  H   -0.041161   0.390440  -0.029816  -0.040625   0.540045   0.005980
     6  H    0.249342  -0.030085  -0.010895   0.000404   0.005980   0.377328
 Mulliken atomic charges:
              1
     1  O   -0.630434
     2  C   -0.250177
     3  H    0.145121
     4  H    0.152429
     5  H    0.175137
     6  H    0.407925
 Sum of Mulliken atomic charges =   0.00000
 Mulliken charges with hydrogens summed into heavy atoms:
              1
     1  O   -0.222510
     2  C    0.222510
 Sum of Mulliken charges with hydrogens summed into heavy atoms =   0.00000
 Electronic spatial extent (au):  <R**2>=             83.2299
 Charge=              0.0000 electrons
 Dipole moment (field-independent basis, Debye):
    X=             -0.8086    Y=              1.6375    Z=             -0.0337  Tot=              1.8266
 Quadrupole moment (field-independent basis, Debye-Ang):
   XX=            -12.6155   YY=            -11.8905   ZZ=            -13.4317
   XY=              2.1744   XZ=              0.1185   YZ=              0.0549
 Traceless Quadrupole moment (field-independent basis, Debye-Ang):
   XX=              0.0304   YY=              0.7554   ZZ=             -0.7858
   XY=              2.1744   XZ=              0.1185   YZ=              0.0549
 Octapole moment (field-independent basis, Debye-Ang**2):
  XXX=              4.4557  YYY=              1.2416  ZZZ=              0.3483  XYY=              1.9318
  XXY=              2.3256  XXZ=             -0.0493  XZZ=              0.4356  YZZ=              0.1305
  YYZ=             -0.5303  XYZ=             -0.0213
 Hexadecapole moment (field-independent basis, Debye-Ang**3):
 XXXX=            -58.9302 YYYY=            -19.0225 ZZZZ=            -18.6453 XXXY=              3.4653
 XXXZ=              0.2123 YYYX=              2.1266 YYYZ=              0.0697 ZZZX=             -0.3683
 ZZZY=              0.0786 XXYY=            -11.9560 XXZZ=            -13.2987 YYZZ=             -6.3800
 XXYZ=              0.1389 YYXZ=              0.6495 ZZXY=              0.4652
 N-N= 4.042320617673D+01 E-N=-3.519692879780D+02  KE= 1.147158814225D+02
 No NMR shielding tensors so no spin-rotation constants.
 Leave Link  601 at Fri Jan  8 13:31:19 2021, MaxMem=13421772800 cpu:       0.9
 (Enter /opt/g09gh/gaussian/g09/l9999.exe)


 EXPERIENCE IS THE FRUIT OF THE TREE OF ERRORS.
 Error termination request processed by link 9999.
 Error termination via Lnk1e in /opt/g09gh/gaussian/g09/l9999.exe at Fri Jan  8 13:31:19 2021.
 Job cpu time:  0 days  0 hours  1 minutes  1.1 seconds.
 File lengths (MBytes):  RWF=      5 Int=      0 D2E=      0 Chk=      1 Scr=      1
