6
methanol-opt-1_2-1-092.log	Energy:  -71785.0063748
O         -0.75701       -0.12148       -0.00017
C          0.67782        0.02204        0.00245
H          1.08914        0.01642        1.00496
H          1.02151        0.91687       -0.50531
H          1.08459       -0.82630       -0.52739
H         -1.20606        0.73263        0.01438
