 Entering Gaussian System, Link 0=/opt/g09gh/gaussian/g09/g09
 Input=methanol-opt-2_2-1-122.com
 Output=methanol-opt-2_2-1-122.log
 Initial command:
 /opt/g09gh/gaussian/g09/l1.exe /scratch/bdw2292/Gau-methanol/Gau-1713.inp -scrdir=/scratch/bdw2292/Gau-methanol/
 Entering Link 1 = /opt/g09gh/gaussian/g09/l1.exe PID=      1714.
  
 Copyright (c) 1988,1990,1992,1993,1995,1998,2003,2009, Gaussian, Inc.
                  All Rights Reserved.
  
 This is part of the Gaussian(R) 09 program.  It is based on
 the Gaussian(R) 03 system (copyright 2003, Gaussian, Inc.),
 the Gaussian(R) 98 system (copyright 1998, Gaussian, Inc.),
 the Gaussian(R) 94 system (copyright 1995, Gaussian, Inc.),
 the Gaussian 92(TM) system (copyright 1992, Gaussian, Inc.),
 the Gaussian 90(TM) system (copyright 1990, Gaussian, Inc.),
 the Gaussian 88(TM) system (copyright 1988, Gaussian, Inc.),
 the Gaussian 86(TM) system (copyright 1986, Carnegie Mellon
 University), and the Gaussian 82(TM) system (copyright 1983,
 Carnegie Mellon University). Gaussian is a federally registered
 trademark of Gaussian, Inc.
  
 This software contains proprietary and confidential information,
 including trade secrets, belonging to Gaussian, Inc.
  
 This software is provided under written license and may be
 used, copied, transmitted, or stored only in accord with that
 written license.
  
 The following legend is applicable only to US Government
 contracts under FAR:
  
                    RESTRICTED RIGHTS LEGEND
  
 Use, reproduction and disclosure by the US Government is
 subject to restrictions as set forth in subparagraphs (a)
 and (c) of the Commercial Computer Software - Restricted
 Rights clause in FAR 52.227-19.
  
 Gaussian, Inc.
 340 Quinnipiac St., Bldg. 40, Wallingford CT 06492
  
  
 ---------------------------------------------------------------
 Warning -- This program may not be used in any manner that
 competes with the business of Gaussian, Inc. or will provide
 assistance to any competitor of Gaussian, Inc.  The licensee
 of this program is prohibited from giving any competitor of
 Gaussian, Inc. access to this program.  By using this program,
 the user acknowledges that Gaussian, Inc. is engaged in the
 business of creating and licensing software in the field of
 computational chemistry and represents and warrants to the
 licensee that it is not a competitor of Gaussian, Inc. and that
 it will not use this program in any manner prohibited above.
 ---------------------------------------------------------------
  

 Cite this work as:
 Gaussian 09, Revision A.02,
 M. J. Frisch, G. W. Trucks, H. B. Schlegel, G. E. Scuseria, 
 M. A. Robb, J. R. Cheeseman, G. Scalmani, V. Barone, B. Mennucci, 
 G. A. Petersson, H. Nakatsuji, M. Caricato, X. Li, H. P. Hratchian, 
 A. F. Izmaylov, J. Bloino, G. Zheng, J. L. Sonnenberg, M. Hada, 
 M. Ehara, K. Toyota, R. Fukuda, J. Hasegawa, M. Ishida, T. Nakajima, 
 Y. Honda, O. Kitao, H. Nakai, T. Vreven, J. A. Montgomery, Jr., 
 J. E. Peralta, F. Ogliaro, M. Bearpark, J. J. Heyd, E. Brothers, 
 K. N. Kudin, V. N. Staroverov, R. Kobayashi, J. Normand, 
 K. Raghavachari, A. Rendell, J. C. Burant, S. S. Iyengar, J. Tomasi, 
 M. Cossi, N. Rega, J. M. Millam, M. Klene, J. E. Knox, J. B. Cross, 
 V. Bakken, C. Adamo, J. Jaramillo, R. Gomperts, R. E. Stratmann, 
 O. Yazyev, A. J. Austin, R. Cammi, C. Pomelli, J. W. Ochterski, 
 R. L. Martin, K. Morokuma, V. G. Zakrzewski, G. A. Voth, 
 P. Salvador, J. J. Dannenberg, S. Dapprich, A. D. Daniels, 
 O. Farkas, J. B. Foresman, J. V. Ortiz, J. Cioslowski, 
 and D. J. Fox, Gaussian, Inc., Wallingford CT, 2009.
 
 ******************************************
 Gaussian 09:  EM64L-G09RevA.02 11-Jun-2009
                 8-Jan-2021 
 ******************************************
 %RWF=/scratch/bdw2292/Gau-methanol/,200GB
 %Nosave
 %Chk=methanol-opt-2_2-1-122.chk
 %Mem=100GB
 %Nproc=8
 Will use up to    8 processors via shared memory.
 ------------------------------------------------------------------
 #P opt=(ModRedundant,maxcycle=2,Loose) wB97XD/6-31G* MaxDisk=200GB
 ------------------------------------------------------------------
 1/6=2,7=-1,14=-1,18=120,19=15,26=3,38=1/1,3;
 2/9=110,12=2,17=6,18=5,40=1/2;
 3/5=1,6=6,7=1,11=2,16=1,25=1,30=1,71=1,74=-58/1,2,3;
 4//1;
 5/5=2,38=5/2;
 6/7=2,8=2,9=2,10=2,28=1/1;
 7//1,2,3,16;
 1/6=2,7=-1,14=-1,18=20,19=15/3(2);
 2/9=110/2;
 99//99;
 2/9=110/2;
 3/5=1,6=6,7=1,11=2,16=1,25=1,30=1,71=1,74=-58/1,2,3;
 4/5=5,16=3/1;
 5/5=2,38=5/2;
 7//1,2,3,16;
 1/6=2,7=-1,14=-1,18=20,19=15/3(-5);
 2/9=110/2;
 6/7=2,8=2,9=2,10=2,19=2,28=1/1;
 99/9=1/99;
 Leave Link    1 at Fri Jan  8 13:37:14 2021, MaxMem=13421772800 cpu:       0.3
 (Enter /opt/g09gh/gaussian/g09/l101.exe)
 -------------------------------------------------------------
 methanol Rotatable Bond Optimization on node37.bme.utexas.edu
 -------------------------------------------------------------
 Symbolic Z-matrix:
 Charge =  0 Multiplicity = 1
 O                     0.75791  -0.12246   0.00657 
 C                    -0.67944   0.02091  -0.00638 
 H                    -1.10357  -0.51798  -0.84136 
 H                    -1.01135   1.05259  -0.0358 
 H                    -1.09122  -0.40281   0.90138 
 H                     1.21955   0.72248  -0.03848 
 
 NAtoms=      6 NQM=      6 NQMF=      0 NMic=      0 NMicF=      0 NTot=      6.
 The following ModRedundant input section has been read:
 D    6    1    2    3 F                                                       
 D    6    1    2    4 F                                                       
 D    6    1    2    5 F                                                       
                    Isotopes and Nuclear Properties:
 (Nuclear quadrupole moments (NQMom) in fm**2, nuclear magnetic moments (NMagM)
  in nuclear magnetons)

  Atom         1           2           3           4           5           6
 IAtWgt=          16          12           1           1           1           1
 AtmWgt=  15.9949146  12.0000000   1.0078250   1.0078250   1.0078250   1.0078250
 NucSpn=           0           0           1           1           1           1
 AtZEff=   0.0000000   0.0000000   0.0000000   0.0000000   0.0000000   0.0000000
 NQMom=    0.0000000   0.0000000   0.0000000   0.0000000   0.0000000   0.0000000
 NMagM=    0.0000000   0.0000000   2.7928460   2.7928460   2.7928460   2.7928460
 Leave Link  101 at Fri Jan  8 13:37:14 2021, MaxMem=13421772800 cpu:       0.9
 (Enter /opt/g09gh/gaussian/g09/l103.exe)

 GradGradGradGradGradGradGradGradGradGradGradGradGradGradGradGradGradGrad
 Berny optimization.
 Initialization pass.
                           ----------------------------
                           !    Initial Parameters    !
                           ! (Angstroms and Degrees)  !
 --------------------------                            --------------------------
 ! Name  Definition              Value          Derivative Info.                !
 --------------------------------------------------------------------------------
 ! R1    R(1,2)                  1.4445         estimate D2E/DX2                !
 ! R2    R(1,6)                  0.9639         estimate D2E/DX2                !
 ! R3    R(2,3)                  1.0805         estimate D2E/DX2                !
 ! R4    R(2,4)                  1.0842         estimate D2E/DX2                !
 ! R5    R(2,5)                  1.0831         estimate D2E/DX2                !
 ! A1    A(2,1,6)              112.9006         estimate D2E/DX2                !
 ! A2    A(1,2,3)              110.3654         estimate D2E/DX2                !
 ! A3    A(1,2,4)              113.5351         estimate D2E/DX2                !
 ! A4    A(1,2,5)              109.3872         estimate D2E/DX2                !
 ! A5    A(3,2,4)              109.4789         estimate D2E/DX2                !
 ! A6    A(3,2,5)              107.6571         estimate D2E/DX2                !
 ! A7    A(4,2,5)              106.178          estimate D2E/DX2                !
 ! D1    D(6,1,2,3)            121.6891         Frozen                          !
 ! D2    D(6,1,2,4)             -1.6533         Frozen                          !
 ! D3    D(6,1,2,5)           -120.0413         Frozen                          !
 --------------------------------------------------------------------------------
 Trust Radius=3.00D-01 FncErr=1.00D-07 GrdErr=1.00D-06
 Number of steps in this run=   2 maximum allowed number of steps= 100.
 GradGradGradGradGradGradGradGradGradGradGradGradGradGradGradGradGradGrad

 Leave Link  103 at Fri Jan  8 13:37:14 2021, MaxMem=13421772800 cpu:       0.1
 (Enter /opt/g09gh/gaussian/g09/l202.exe)
                          Input orientation:                          
 ---------------------------------------------------------------------
 Center     Atomic      Atomic             Coordinates (Angstroms)
 Number     Number       Type             X           Y           Z
 ---------------------------------------------------------------------
      1          8           0        0.757910   -0.122460    0.006570
      2          6           0       -0.679440    0.020910   -0.006380
      3          1           0       -1.103570   -0.517980   -0.841360
      4          1           0       -1.011350    1.052590   -0.035800
      5          1           0       -1.091220   -0.402810    0.901380
      6          1           0        1.219550    0.722480   -0.038480
 ---------------------------------------------------------------------
                    Distance matrix (angstroms):
                    1          2          3          4          5
     1  O    0.000000
     2  C    1.444541   0.000000
     3  H    2.083394   1.080500   0.000000
     4  H    2.124340   1.084156   1.767518   0.000000
     5  H    2.073298   1.083111   1.746585   1.732880   0.000000
     6  H    0.963880   2.024696   2.753224   2.255193   2.736654
                    6
     6  H    0.000000
 Stoichiometry    CH4O
 Framework group  C1[X(CH4O)]
 Deg. of freedom    12
 Full point group                 C1      NOp   1
 Largest Abelian subgroup         C1      NOp   1
 Largest concise Abelian subgroup C1      NOp   1
                         Standard orientation:                         
 ---------------------------------------------------------------------
 Center     Atomic      Atomic             Coordinates (Angstroms)
 Number     Number       Type             X           Y           Z
 ---------------------------------------------------------------------
      1          8           0        0.757907   -0.122463    0.006569
      2          6           0       -0.679443    0.020906   -0.006381
      3          1           0       -1.103572   -0.517984   -0.841361
      4          1           0       -1.011353    1.052586   -0.035801
      5          1           0       -1.091223   -0.402814    0.901379
      6          1           0        1.219547    0.722477   -0.038481
 ---------------------------------------------------------------------
 Rotational constants (GHZ):    132.9540813     23.9126733     23.1151221
 Leave Link  202 at Fri Jan  8 13:37:14 2021, MaxMem=13421772800 cpu:       0.0
 (Enter /opt/g09gh/gaussian/g09/l301.exe)
 Standard basis: 6-31G(d) (6D, 7F)
 Ernie: Thresh=  0.10000D-02 Tol=  0.10000D-05 Strict=F.
 There are    38 symmetry adapted basis functions of A   symmetry.
 Integral buffers will be    131072 words long.
 Raffenetti 2 integral format.
 Two-electron integral symmetry is turned on.
    38 basis functions,    72 primitive gaussians,    38 cartesian basis functions
     9 alpha electrons        9 beta electrons
       nuclear repulsion energy        39.9372021669 Hartrees.
 IExCor= 4639 DFT=T Ex+Corr=wB97XD ExCW=0 ScaHFX=  1.000000
 ScaDFX=  1.000000  1.000000  1.000000  1.000000 ScalE2=  1.000000  1.000000
 IRadAn=      0 IRanWt=     -1 IRanGd=            0 ICorTp=0
  HFx wShort=  0.000000 wLong=  0.200000 cFull=  0.222036 cShort=  0.000000 cLong=  0.777964
  DFx wShort=  0.000000 wLong=  0.200000 cFull=  0.000000 cShort=  0.000000 cLong=  1.000000
 NAtoms=    6 NActive=    6 NUniq=    6 SFac= 7.50D-01 NAtFMM=   80 NAOKFM=F Big=F
 R6Disp: Dispersion energy =        -0.0007916693 Hartrees.
 Nuclear repulsion after empirical dispersion term =       39.9364104976 Hartrees.
 Leave Link  301 at Fri Jan  8 13:37:14 2021, MaxMem=13421772800 cpu:       0.5
 (Enter /opt/g09gh/gaussian/g09/l302.exe)
 NPDir=0 NMtPBC=     1 NCelOv=     1 NCel=       1 NClECP=     1 NCelD=      1
         NCelK=      1 NCelE2=     1 NClLst=     1 CellRange=     0.0.
 One-electron integrals computed using PRISM.
 NBasis=    38 RedAO= T  NBF=    38
 NBsUse=    38 1.00D-06 NBFU=    38
 Precomputing XC quadrature grid using
 IXCGrd= 2 IRadAn=           0 IRanWt=          -1 IRanGd=           0 AccXCQ= 1.00D-10.
 NRdTot=     369 NPtTot=       46428 NUsed=       49102 NTot=       49134
 NSgBfM=    38    38    38    38    38 NAtAll=     6     6.
 Leave Link  302 at Fri Jan  8 13:37:15 2021, MaxMem=13421772800 cpu:       1.2
 (Enter /opt/g09gh/gaussian/g09/l303.exe)
 DipDrv:  MaxL=1.
 Leave Link  303 at Fri Jan  8 13:37:15 2021, MaxMem=13421772800 cpu:       0.3
 (Enter /opt/g09gh/gaussian/g09/l401.exe)
 Harris functional with IExCor= 4639 diagonalized for initial guess.
 ExpMin= 1.61D-01 ExpMax= 5.48D+03 ExpMxC= 8.25D+02 IAcc=1 IRadAn=         1 AccDes= 0.00D+00
 HarFok:  IExCor= 4639 AccDes= 0.00D+00 IRadAn=         1 IDoV= 1
 ScaDFX=  1.000000  1.000000  1.000000  1.000000
 FoFCou: FMM=F IPFlag=           0 FMFlag=      100000 FMFlg1=           0
         NFxFlg=           0 DoJE=T BraDBF=F KetDBF=T FulRan=T
         Omega=  0.000000  0.000000  1.000000  0.000000  0.000000 ICntrl=     500 IOpCl=  0
         NMat0=    1 NMatS0=    1 NMatT0=    0 NMatD0=    1 NMtDS0=    0 NMtDT0=    0
         I1Cent=           4 NGrid=           0.
 Petite list used in FoFCou.
 Harris En= -110.931426120767    
 Initial guess orbital symmetries:
       Occupied  (A) (A) (A) (A) (A) (A) (A) (A) (A)
       Virtual   (A) (A) (A) (A) (A) (A) (A) (A) (A) (A) (A) (A)
                 (A) (A) (A) (A) (A) (A) (A) (A) (A) (A) (A) (A)
                 (A) (A) (A) (A) (A)
 The electronic state of the initial guess is 1-A.
 Leave Link  401 at Fri Jan  8 13:37:15 2021, MaxMem=13421772800 cpu:       1.4
 (Enter /opt/g09gh/gaussian/g09/l502.exe)
 Closed shell SCF:
 Requested convergence on RMS density matrix=1.00D-08 within 128 cycles.
 Requested convergence on MAX density matrix=1.00D-06.
 Requested convergence on             energy=1.00D-06.
 No special actions if energy rises.
 Using DIIS extrapolation, IDIIS=  1040.
 Integral symmetry usage will be decided dynamically.
        49035 words used for storage of precomputed grid.
 IEnd=       72111 IEndB=       72111 NGot= 13421772800 MDV= 13421718812
 LenX= 13421718812 LenY= 13421716927
 Fock matrices will be formed incrementally for  20 cycles.
 Integral accuracy reduced to 1.0D-05 until final iterations.

 Cycle   1  Pass 0  IDiag  1:
 FoFJK:  IHMeth= 1 ICntrl=     0 DoSepK=T KAlg= 1 I1Cent= 0 FoldK=F
 FoFCou: FMM=F IPFlag=           0 FMFlag=      100000 FMFlg1=           0
         NFxFlg=           0 DoJE=T BraDBF=F KetDBF=F FulRan=T
         Omega=  0.000000  0.000000  1.000000  0.000000  0.000000 ICntrl=     500 IOpCl=  0
         NMat0=    1 NMatS0=    1 NMatT0=    0 NMatD0=    1 NMtDS0=    0 NMtDT0=    0
         I1Cent=           0 NGrid=           0.
 Symmetry not used in FoFCou.
 E= -115.652163296167    
 DIIS: error= 5.00D-02 at cycle   1 NSaved=   1.
 NSaved= 1 IEnMin= 1 EnMin= -115.652163296167     IErMin= 1 ErrMin= 5.00D-02
 ErrMax= 5.00D-02 EMaxC= 1.00D-01 BMatC= 8.11D-02 BMatP= 8.11D-02
 IDIUse=3 WtCom= 5.00D-01 WtEn= 5.00D-01
 Coeff-Com:  0.100D+01
 Coeff-En:   0.100D+01
 Coeff:      0.100D+01
 Gap=     0.533 Goal=   None    Shift=    0.000
 GapD=    0.533 DampG=2.000 DampE=0.500 DampFc=1.0000 IDamp=-1.
 RMSDP=4.73D-03 MaxDP=4.31D-02              OVMax= 4.70D-02

 Cycle   2  Pass 0  IDiag  1:
 RMSU=  3.33D-03    CP:  1.01D+00
 FoFJK:  IHMeth= 1 ICntrl=     0 DoSepK=T KAlg= 1 I1Cent= 0 FoldK=F
 E= -115.665620002862     Delta-E=       -0.013456706695 Rises=F Damp=F
 DIIS: error= 1.27D-02 at cycle   2 NSaved=   2.
 NSaved= 2 IEnMin= 2 EnMin= -115.665620002862     IErMin= 2 ErrMin= 1.27D-02
 ErrMax= 1.27D-02 EMaxC= 1.00D-01 BMatC= 1.07D-02 BMatP= 8.11D-02
 IDIUse=3 WtCom= 8.73D-01 WtEn= 1.27D-01
 Coeff-Com:  0.194D+00 0.806D+00
 Coeff-En:   0.529D-01 0.947D+00
 Coeff:      0.176D+00 0.824D+00
 Gap=     0.503 Goal=   None    Shift=    0.000
 RMSDP=2.69D-03 MaxDP=3.53D-02 DE=-1.35D-02 OVMax= 3.35D-02

 Cycle   3  Pass 0  IDiag  1:
 RMSU=  1.52D-03    CP:  1.01D+00  6.58D-01
 FoFJK:  IHMeth= 1 ICntrl=     0 DoSepK=T KAlg= 1 I1Cent= 0 FoldK=F
 E= -115.669283740604     Delta-E=       -0.003663737742 Rises=F Damp=F
 DIIS: error= 1.05D-02 at cycle   3 NSaved=   3.
 NSaved= 3 IEnMin= 3 EnMin= -115.669283740604     IErMin= 3 ErrMin= 1.05D-02
 ErrMax= 1.05D-02 EMaxC= 1.00D-01 BMatC= 5.67D-03 BMatP= 1.07D-02
 IDIUse=3 WtCom= 8.95D-01 WtEn= 1.05D-01
 Coeff-Com:  0.750D-02 0.422D+00 0.571D+00
 Coeff-En:   0.000D+00 0.342D+00 0.658D+00
 Coeff:      0.671D-02 0.413D+00 0.580D+00
 Gap=     0.512 Goal=   None    Shift=    0.000
 RMSDP=1.22D-03 MaxDP=1.56D-02 DE=-3.66D-03 OVMax= 1.39D-02

 Cycle   4  Pass 0  IDiag  1:
 RMSU=  1.86D-04    CP:  1.01D+00  8.11D-01  5.59D-01
 FoFJK:  IHMeth= 1 ICntrl=     0 DoSepK=T KAlg= 1 I1Cent= 0 FoldK=F
 E= -115.673223067697     Delta-E=       -0.003939327093 Rises=F Damp=F
 DIIS: error= 5.62D-04 at cycle   4 NSaved=   4.
 NSaved= 4 IEnMin= 4 EnMin= -115.673223067697     IErMin= 4 ErrMin= 5.62D-04
 ErrMax= 5.62D-04 EMaxC= 1.00D-01 BMatC= 1.70D-05 BMatP= 5.67D-03
 IDIUse=3 WtCom= 9.94D-01 WtEn= 5.62D-03
 Coeff-Com:  0.158D-02 0.925D-01 0.151D+00 0.755D+00
 Coeff-En:   0.000D+00 0.000D+00 0.000D+00 0.100D+01
 Coeff:      0.157D-02 0.920D-01 0.150D+00 0.757D+00
 Gap=     0.509 Goal=   None    Shift=    0.000
 RMSDP=9.42D-05 MaxDP=1.08D-03 DE=-3.94D-03 OVMax= 1.23D-03

 Cycle   5  Pass 0  IDiag  1:
 RMSU=  5.45D-05    CP:  1.01D+00  8.11D-01  5.80D-01  8.91D-01
 FoFJK:  IHMeth= 1 ICntrl=     0 DoSepK=T KAlg= 1 I1Cent= 0 FoldK=F
 E= -115.673236243910     Delta-E=       -0.000013176213 Rises=F Damp=F
 DIIS: error= 1.67D-04 at cycle   5 NSaved=   5.
 NSaved= 5 IEnMin= 5 EnMin= -115.673236243910     IErMin= 5 ErrMin= 1.67D-04
 ErrMax= 1.67D-04 EMaxC= 1.00D-01 BMatC= 9.82D-07 BMatP= 1.70D-05
 IDIUse=3 WtCom= 9.98D-01 WtEn= 1.67D-03
 Coeff-Com: -0.357D-03 0.139D-02 0.980D-02 0.208D+00 0.781D+00
 Coeff-En:   0.000D+00 0.000D+00 0.000D+00 0.000D+00 0.100D+01
 Coeff:     -0.357D-03 0.139D-02 0.978D-02 0.208D+00 0.782D+00
 Gap=     0.509 Goal=   None    Shift=    0.000
 RMSDP=2.66D-05 MaxDP=2.87D-04 DE=-1.32D-05 OVMax= 2.65D-04

 Cycle   6  Pass 0  IDiag  1:
 RMSU=  1.11D-05    CP:  1.01D+00  8.13D-01  5.83D-01  9.64D-01  9.79D-01
 FoFJK:  IHMeth= 1 ICntrl=     0 DoSepK=T KAlg= 1 I1Cent= 0 FoldK=F
 E= -115.673237163469     Delta-E=       -0.000000919558 Rises=F Damp=F
 DIIS: error= 2.65D-05 at cycle   6 NSaved=   6.
 NSaved= 6 IEnMin= 6 EnMin= -115.673237163469     IErMin= 6 ErrMin= 2.65D-05
 ErrMax= 2.65D-05 EMaxC= 1.00D-01 BMatC= 3.49D-08 BMatP= 9.82D-07
 IDIUse=1 WtCom= 1.00D+00 WtEn= 0.00D+00
 Coeff-Com: -0.840D-04-0.906D-02-0.133D-01-0.349D-01 0.112D+00 0.946D+00
 Coeff:     -0.840D-04-0.906D-02-0.133D-01-0.349D-01 0.112D+00 0.946D+00
 Gap=     0.509 Goal=   None    Shift=    0.000
 RMSDP=1.02D-05 MaxDP=7.48D-05 DE=-9.20D-07 OVMax= 9.49D-05

 Cycle   7  Pass 0  IDiag  1:
 RMSU=  2.48D-06    CP:  1.01D+00  8.13D-01  5.84D-01  9.81D-01  1.08D+00
                    CP:  1.09D+00
 FoFJK:  IHMeth= 1 ICntrl=     0 DoSepK=T KAlg= 1 I1Cent= 0 FoldK=F
 E= -115.673237220815     Delta-E=       -0.000000057346 Rises=F Damp=F
 DIIS: error= 2.43D-06 at cycle   7 NSaved=   7.
 NSaved= 7 IEnMin= 7 EnMin= -115.673237220815     IErMin= 7 ErrMin= 2.43D-06
 ErrMax= 2.43D-06 EMaxC= 1.00D-01 BMatC= 4.52D-10 BMatP= 3.49D-08
 IDIUse=1 WtCom= 1.00D+00 WtEn= 0.00D+00
 Coeff-Com:  0.137D-04 0.751D-03 0.958D-03 0.174D-03-0.307D-01-0.763D-01
 Coeff-Com:  0.111D+01
 Coeff:      0.137D-04 0.751D-03 0.958D-03 0.174D-03-0.307D-01-0.763D-01
 Coeff:      0.111D+01
 Gap=     0.509 Goal=   None    Shift=    0.000
 RMSDP=1.77D-06 MaxDP=1.46D-05 DE=-5.73D-08 OVMax= 1.91D-05

 Initial convergence to 1.0D-05 achieved.  Increase integral accuracy.
 Cycle   8  Pass 1  IDiag  1:
 FoFJK:  IHMeth= 1 ICntrl=     0 DoSepK=T KAlg= 1 I1Cent= 0 FoldK=F
 E= -115.672981570502     Delta-E=        0.000255650313 Rises=F Damp=F
 DIIS: error= 1.08D-04 at cycle   1 NSaved=   1.
 NSaved= 1 IEnMin= 1 EnMin= -115.672981570502     IErMin= 1 ErrMin= 1.08D-04
 ErrMax= 1.08D-04 EMaxC= 1.00D-01 BMatC= 7.18D-07 BMatP= 7.18D-07
 IDIUse=3 WtCom= 9.99D-01 WtEn= 1.08D-03
 Coeff-Com:  0.100D+01
 Coeff-En:   0.100D+01
 Coeff:      0.100D+01
 Gap=     0.509 Goal=   None    Shift=    0.000
 RMSDP=1.77D-06 MaxDP=1.46D-05 DE= 2.56D-04 OVMax= 2.26D-04

 Cycle   9  Pass 1  IDiag  1:
 RMSU=  1.48D-05    CP:  1.00D+00
 FoFJK:  IHMeth= 1 ICntrl=     0 DoSepK=T KAlg= 1 I1Cent= 0 FoldK=F
 E= -115.672982208201     Delta-E=       -0.000000637699 Rises=F Damp=F
 DIIS: error= 3.00D-05 at cycle   2 NSaved=   2.
 NSaved= 2 IEnMin= 2 EnMin= -115.672982208201     IErMin= 2 ErrMin= 3.00D-05
 ErrMax= 3.00D-05 EMaxC= 1.00D-01 BMatC= 3.98D-08 BMatP= 7.18D-07
 IDIUse=1 WtCom= 1.00D+00 WtEn= 0.00D+00
 Coeff-Com:  0.165D-01 0.984D+00
 Coeff:      0.165D-01 0.984D+00
 Gap=     0.509 Goal=   None    Shift=    0.000
 RMSDP=7.32D-06 MaxDP=8.12D-05 DE=-6.38D-07 OVMax= 7.96D-05

 Cycle  10  Pass 1  IDiag  1:
 RMSU=  5.18D-06    CP:  1.00D+00  9.93D-01
 FoFJK:  IHMeth= 1 ICntrl=     0 DoSepK=T KAlg= 1 I1Cent= 0 FoldK=F
 E= -115.672982221986     Delta-E=       -0.000000013785 Rises=F Damp=F
 DIIS: error= 2.81D-05 at cycle   3 NSaved=   3.
 NSaved= 3 IEnMin= 3 EnMin= -115.672982221986     IErMin= 3 ErrMin= 2.81D-05
 ErrMax= 2.81D-05 EMaxC= 1.00D-01 BMatC= 3.50D-08 BMatP= 3.98D-08
 IDIUse=1 WtCom= 1.00D+00 WtEn= 0.00D+00
 Coeff-Com: -0.463D-01 0.501D+00 0.545D+00
 Coeff:     -0.463D-01 0.501D+00 0.545D+00
 Gap=     0.509 Goal=   None    Shift=    0.000
 RMSDP=2.93D-06 MaxDP=4.01D-05 DE=-1.38D-08 OVMax= 3.42D-05

 Cycle  11  Pass 1  IDiag  1:
 RMSU=  1.07D-06    CP:  1.00D+00  1.04D+00  6.92D-01
 FoFJK:  IHMeth= 1 ICntrl=     0 DoSepK=T KAlg= 1 I1Cent= 0 FoldK=F
 E= -115.672982246098     Delta-E=       -0.000000024112 Rises=F Damp=F
 DIIS: error= 3.03D-06 at cycle   4 NSaved=   4.
 NSaved= 4 IEnMin= 4 EnMin= -115.672982246098     IErMin= 4 ErrMin= 3.03D-06
 ErrMax= 3.03D-06 EMaxC= 1.00D-01 BMatC= 2.16D-10 BMatP= 3.50D-08
 IDIUse=1 WtCom= 1.00D+00 WtEn= 0.00D+00
 Coeff-Com: -0.642D-02 0.261D-01 0.604D-01 0.920D+00
 Coeff:     -0.642D-02 0.261D-01 0.604D-01 0.920D+00
 Gap=     0.509 Goal=   None    Shift=    0.000
 RMSDP=5.01D-07 MaxDP=6.04D-06 DE=-2.41D-08 OVMax= 6.91D-06

 Cycle  12  Pass 1  IDiag  1:
 RMSU=  2.94D-07    CP:  1.00D+00  1.05D+00  7.24D-01  1.10D+00
 FoFJK:  IHMeth= 1 ICntrl=     0 DoSepK=T KAlg= 1 I1Cent= 0 FoldK=F
 E= -115.672982246344     Delta-E=       -0.000000000246 Rises=F Damp=F
 DIIS: error= 8.70D-07 at cycle   5 NSaved=   5.
 NSaved= 5 IEnMin= 5 EnMin= -115.672982246344     IErMin= 5 ErrMin= 8.70D-07
 ErrMax= 8.70D-07 EMaxC= 1.00D-01 BMatC= 4.66D-11 BMatP= 2.16D-10
 IDIUse=1 WtCom= 1.00D+00 WtEn= 0.00D+00
 Coeff-Com:  0.919D-03-0.298D-01-0.239D-01 0.294D+00 0.759D+00
 Coeff:      0.919D-03-0.298D-01-0.239D-01 0.294D+00 0.759D+00
 Gap=     0.509 Goal=   None    Shift=    0.000
 RMSDP=1.86D-07 MaxDP=2.12D-06 DE=-2.46D-10 OVMax= 3.08D-06

 Cycle  13  Pass 1  IDiag  1:
 RMSU=  7.84D-08    CP:  1.00D+00  1.05D+00  7.34D-01  1.17D+00  8.71D-01
 FoFJK:  IHMeth= 1 ICntrl=     0 DoSepK=T KAlg= 1 I1Cent= 0 FoldK=F
 E= -115.672982246392     Delta-E=       -0.000000000048 Rises=F Damp=F
 DIIS: error= 2.73D-07 at cycle   6 NSaved=   6.
 NSaved= 6 IEnMin= 6 EnMin= -115.672982246392     IErMin= 6 ErrMin= 2.73D-07
 ErrMax= 2.73D-07 EMaxC= 1.00D-01 BMatC= 1.36D-12 BMatP= 4.66D-11
 IDIUse=1 WtCom= 1.00D+00 WtEn= 0.00D+00
 Coeff-Com:  0.656D-03-0.720D-02-0.772D-02-0.752D-02 0.135D+00 0.887D+00
 Coeff:      0.656D-03-0.720D-02-0.772D-02-0.752D-02 0.135D+00 0.887D+00
 Gap=     0.509 Goal=   None    Shift=    0.000
 RMSDP=4.86D-08 MaxDP=4.58D-07 DE=-4.81D-11 OVMax= 6.00D-07

 Cycle  14  Pass 1  IDiag  1:
 RMSU=  1.72D-08    CP:  1.00D+00  1.05D+00  7.37D-01  1.19D+00  9.42D-01
                    CP:  1.07D+00
 FoFJK:  IHMeth= 1 ICntrl=     0 DoSepK=T KAlg= 1 I1Cent= 0 FoldK=F
 E= -115.672982246394     Delta-E=       -0.000000000002 Rises=F Damp=F
 DIIS: error= 2.06D-08 at cycle   7 NSaved=   7.
 NSaved= 7 IEnMin= 7 EnMin= -115.672982246394     IErMin= 7 ErrMin= 2.06D-08
 ErrMax= 2.06D-08 EMaxC= 1.00D-01 BMatC= 3.01D-14 BMatP= 1.36D-12
 IDIUse=1 WtCom= 1.00D+00 WtEn= 0.00D+00
 Coeff-Com: -0.231D-04 0.925D-03 0.762D-03-0.113D-01-0.278D-01 0.236D-01
 Coeff-Com:  0.101D+01
 Coeff:     -0.231D-04 0.925D-03 0.762D-03-0.113D-01-0.278D-01 0.236D-01
 Coeff:      0.101D+01
 Gap=     0.509 Goal=   None    Shift=    0.000
 RMSDP=1.37D-08 MaxDP=1.00D-07 DE=-1.99D-12 OVMax= 1.57D-07

 Cycle  15  Pass 1  IDiag  1:
 RMSU=  3.29D-09    CP:  1.00D+00  1.05D+00  7.37D-01  1.19D+00  9.54D-01
                    CP:  1.15D+00  1.22D+00
 FoFJK:  IHMeth= 1 ICntrl=     0 DoSepK=T KAlg= 1 I1Cent= 0 FoldK=F
 E= -115.672982246394     Delta-E=        0.000000000000 Rises=F Damp=F
 DIIS: error= 4.47D-09 at cycle   8 NSaved=   8.
 NSaved= 8 IEnMin= 8 EnMin= -115.672982246394     IErMin= 8 ErrMin= 4.47D-09
 ErrMax= 4.47D-09 EMaxC= 1.00D-01 BMatC= 1.19D-15 BMatP= 3.01D-14
 IDIUse=1 WtCom= 1.00D+00 WtEn= 0.00D+00
 Coeff-Com: -0.176D-04 0.173D-03 0.125D-03 0.995D-03-0.280D-02-0.318D-01
 Coeff-Com: -0.478D-01 0.108D+01
 Coeff:     -0.176D-04 0.173D-03 0.125D-03 0.995D-03-0.280D-02-0.318D-01
 Coeff:     -0.478D-01 0.108D+01
 Gap=     0.509 Goal=   None    Shift=    0.000
 RMSDP=3.47D-09 MaxDP=2.58D-08 DE=-5.68D-14 OVMax= 4.44D-08

 SCF Done:  E(RwB97XD) =  -115.672982246     A.U. after   15 cycles
             Convg  =    0.3472D-08             -V/T =  2.0086
 KE= 1.146824733402D+02 PE=-3.510176957516D+02 EE= 8.072582966735D+01
 Leave Link  502 at Fri Jan  8 13:37:18 2021, MaxMem=13421772800 cpu:      21.8
 (Enter /opt/g09gh/gaussian/g09/l601.exe)
 Copying SCF densities to generalized density rwf, IOpCl= 0 IROHF=0.

 **********************************************************************

            Population analysis using the SCF density.

 **********************************************************************

 Orbital symmetries:
       Occupied  (A) (A) (A) (A) (A) (A) (A) (A) (A)
       Virtual   (A) (A) (A) (A) (A) (A) (A) (A) (A) (A) (A) (A)
                 (A) (A) (A) (A) (A) (A) (A) (A) (A) (A) (A) (A)
                 (A) (A) (A) (A) (A)
 The electronic state is 1-A.
 Alpha  occ. eigenvalues --  -19.25790 -10.33107  -1.09847  -0.78101  -0.58720
 Alpha  occ. eigenvalues --   -0.51769  -0.50577  -0.40826  -0.34578
 Alpha virt. eigenvalues --    0.16350   0.21840   0.24980   0.26690   0.29930
 Alpha virt. eigenvalues --    0.62338   0.64711   0.65497   0.91338   0.96064
 Alpha virt. eigenvalues --    0.96557   1.01366   1.05335   1.06636   1.11514
 Alpha virt. eigenvalues --    1.25357   1.54299   1.57054   1.64023   1.85471
 Alpha virt. eigenvalues --    2.11548   2.20733   2.26529   2.32314   2.46308
 Alpha virt. eigenvalues --    2.63998   2.87286   3.80031   4.33093
          Condensed to atoms (all electrons):
              1          2          3          4          5          6
     1  O    8.257648   0.249883  -0.038807  -0.022612  -0.040478   0.246724
     2  C    0.249883   4.874957   0.385638   0.374600   0.385137  -0.023726
     3  H   -0.038807   0.385638   0.560106  -0.033551  -0.046367   0.003232
     4  H   -0.022612   0.374600  -0.033551   0.578344  -0.037373  -0.010341
     5  H   -0.040478   0.385137  -0.046367  -0.037373   0.568250   0.003389
     6  H    0.246724  -0.023726   0.003232  -0.010341   0.003389   0.370001
 Mulliken atomic charges:
              1
     1  O   -0.652357
     2  C   -0.246489
     3  H    0.169750
     4  H    0.150933
     5  H    0.167443
     6  H    0.410721
 Sum of Mulliken atomic charges =   0.00000
 Mulliken charges with hydrogens summed into heavy atoms:
              1
     1  O   -0.241637
     2  C    0.241637
 Sum of Mulliken charges with hydrogens summed into heavy atoms =   0.00000
 Electronic spatial extent (au):  <R**2>=             84.9334
 Charge=              0.0000 electrons
 Dipole moment (field-independent basis, Debye):
    X=             -0.8063    Y=              1.6685    Z=             -0.0846  Tot=              1.8550
 Quadrupole moment (field-independent basis, Debye-Ang):
   XX=            -11.9517   YY=            -12.0591   ZZ=            -13.4205
   XY=              2.2232   XZ=             -0.1188   YZ=             -0.0133
 Traceless Quadrupole moment (field-independent basis, Debye-Ang):
   XX=              0.5254   YY=              0.4180   ZZ=             -0.9434
   XY=              2.2232   XZ=             -0.1188   YZ=             -0.0133
 Octapole moment (field-independent basis, Debye-Ang**2):
  XXX=              4.9541  YYY=              1.6781  ZZZ=              0.0507  XYY=              1.8543
  XXY=              2.7061  XXZ=             -0.1406  XZZ=              0.3288  YZZ=             -0.2519
  YYZ=             -0.1136  XYZ=             -0.1494
 Hexadecapole moment (field-independent basis, Debye-Ang**3):
 XXXX=            -59.6065 YYYY=            -18.8087 ZZZZ=            -18.0293 XXXY=              4.0350
 XXXZ=             -0.1883 YYYX=              1.4621 YYYZ=             -0.0010 ZZZX=             -0.1507
 ZZZY=              0.0200 XXYY=            -12.2102 XXZZ=            -13.4892 YYZZ=             -6.3157
 XXYZ=             -0.0050 YYXZ=              0.0266 ZZXY=              0.9506
 N-N= 3.993641049760D+01 E-N=-3.510176958374D+02  KE= 1.146824733402D+02
 No NMR shielding tensors so no spin-rotation constants.
 Leave Link  601 at Fri Jan  8 13:37:18 2021, MaxMem=13421772800 cpu:       0.9
 (Enter /opt/g09gh/gaussian/g09/l701.exe)
 Compute integral first derivatives.
 ... and contract with generalized density number  0.
 R6Disp: Adding dispersion energy 1st derivatives to the gradient.
 Leave Link  701 at Fri Jan  8 13:37:18 2021, MaxMem=13421772800 cpu:       0.9
 (Enter /opt/g09gh/gaussian/g09/l702.exe)
 L702 exits ... SP integral derivatives will be done elsewhere.
 Leave Link  702 at Fri Jan  8 13:37:18 2021, MaxMem=13421772800 cpu:       0.3
 (Enter /opt/g09gh/gaussian/g09/l703.exe)
 Compute integral first derivatives, UseDBF=F ICtDFT=           0.
 Integral derivatives from FoFDir, PRISM(SPDF).
 Calling FoFJK, ICntrl=      2127 FMM=F ISym2X=0 I1Cent= 0 IOpClX= 0 NMat=1 NMatS=1 NMatT=0.
 FoFJK:  IHMeth= 1 ICntrl=  2127 DoSepK=T KAlg= 1 I1Cent= 0 FoldK=F
 FoFCou: FMM=F IPFlag=           0 FMFlag=      100000 FMFlg1=         800
         NFxFlg=           0 DoJE=F BraDBF=F KetDBF=F FulRan=T
         Omega=  0.000000  0.000000  1.000000  0.000000  0.000000 ICntrl=    2527 IOpCl=  0
         NMat0=    1 NMatS0=    1 NMatT0=    0 NMatD0=    1 NMtDS0=    0 NMtDT0=    0
         I1Cent=           0 NGrid=           0.
 Symmetry not used in FoFCou.
 Leave Link  703 at Fri Jan  8 13:37:18 2021, MaxMem=13421772800 cpu:       2.4
 (Enter /opt/g09gh/gaussian/g09/l716.exe)
 Dipole        =-3.17227443D-01 6.56420146D-01-3.32691063D-02
 ***** Axes restored to original set *****
 -------------------------------------------------------------------
 Center     Atomic                   Forces (Hartrees/Bohr)
 Number     Number              X              Y              Z
 -------------------------------------------------------------------
      1        8          -0.014072100   -0.004544088   -0.000846664
      2        6           0.025677087    0.003633711    0.006707440
      3        1          -0.001034955   -0.003462556   -0.009819958
      4        1           0.000179948    0.008653550   -0.003798722
      5        1          -0.000912569   -0.005293920    0.008105970
      6        1          -0.009837411    0.001013303   -0.000348065
 -------------------------------------------------------------------
 Cartesian Forces:  Max     0.025677087 RMS     0.008590118
 Leave Link  716 at Fri Jan  8 13:37:18 2021, MaxMem=13421772800 cpu:       0.3
 (Enter /opt/g09gh/gaussian/g09/l103.exe)

 GradGradGradGradGradGradGradGradGradGradGradGradGradGradGradGradGradGrad
 Berny optimization.
 Internal  Forces:  Max     0.023457443 RMS     0.008830058
 Search for a local minimum.
 Step number   1 out of a maximum of    2
 All quantities printed in internal units (Hartrees-Bohrs-Radians)
 RMS Force = .97380D-02 SwitMx=.10000D-02 MixMth= 1
 Mixed Optimization -- RFO/linear search
 Second derivative matrix not updated -- first step.
 The second derivative matrix:
                          R1        R2        R3        R4        R5
           R1           0.38969
           R2           0.00000   0.54647
           R3           0.00000   0.00000   0.35934
           R4           0.00000   0.00000   0.00000   0.35497
           R5           0.00000   0.00000   0.00000   0.00000   0.35621
           A1           0.00000   0.00000   0.00000   0.00000   0.00000
           A2           0.00000   0.00000   0.00000   0.00000   0.00000
           A3           0.00000   0.00000   0.00000   0.00000   0.00000
           A4           0.00000   0.00000   0.00000   0.00000   0.00000
           A5           0.00000   0.00000   0.00000   0.00000   0.00000
           A6           0.00000   0.00000   0.00000   0.00000   0.00000
           A7           0.00000   0.00000   0.00000   0.00000   0.00000
           D1           0.00000   0.00000   0.00000   0.00000   0.00000
           D2           0.00000   0.00000   0.00000   0.00000   0.00000
           D3           0.00000   0.00000   0.00000   0.00000   0.00000
                          A1        A2        A3        A4        A5
           A1           0.16000
           A2           0.00000   0.16000
           A3           0.00000   0.00000   0.16000
           A4           0.00000   0.00000   0.00000   0.16000
           A5           0.00000   0.00000   0.00000   0.00000   0.16000
           A6           0.00000   0.00000   0.00000   0.00000   0.00000
           A7           0.00000   0.00000   0.00000   0.00000   0.00000
           D1           0.00000   0.00000   0.00000   0.00000   0.00000
           D2           0.00000   0.00000   0.00000   0.00000   0.00000
           D3           0.00000   0.00000   0.00000   0.00000   0.00000
                          A6        A7        D1        D2        D3
           A6           0.16000
           A7           0.00000   0.16000
           D1           0.00000   0.00000   0.01103
           D2           0.00000   0.00000   0.00000   0.01103
           D3           0.00000   0.00000   0.00000   0.00000   0.01103
     Eigenvalues ---    0.16000   0.16000   0.16000   0.16000   0.35497
     Eigenvalues ---    0.35621   0.35934   0.38969   0.546471000.00000
     Eigenvalues --- 1000.000001000.000001000.000001000.000001000.00000
 RFO step:  Lambda=-4.09266483D-03 EMin= 1.60000000D-01
 Linear search not attempted -- first point.
 Iteration  1 RMS(Cart)=  0.05649229 RMS(Int)=  0.00164894
 Iteration  2 RMS(Cart)=  0.00136141 RMS(Int)=  0.00008738
 Iteration  3 RMS(Cart)=  0.00000030 RMS(Int)=  0.00008738
 Iteration  1 RMS(Cart)=  0.00000422 RMS(Int)=  0.00000582
 Iteration  2 RMS(Cart)=  0.00000253 RMS(Int)=  0.00000648
 Iteration  3 RMS(Cart)=  0.00000152 RMS(Int)=  0.00000739
 Iteration  4 RMS(Cart)=  0.00000091 RMS(Int)=  0.00000807
 Variable       Old X    -DE/DX   Delta X   Delta X   Delta X     New X
                                 (Linear)    (Quad)   (Total)
    R1        2.72979  -0.02346   0.00000  -0.05957  -0.05957   2.67022
    R2        1.82147  -0.00380   0.00000  -0.00689  -0.00689   1.81458
    R3        2.04185   0.00972   0.00000   0.02675   0.02675   2.06860
    R4        2.04876   0.00828   0.00000   0.02306   0.02306   2.07181
    R5        2.04678   0.00922   0.00000   0.02558   0.02558   2.07236
    A1        1.97049  -0.01666   0.00000  -0.10150  -0.10150   1.86899
    A2        1.92624  -0.00384   0.00000  -0.01585  -0.01599   1.91025
    A3        1.98156  -0.00307   0.00000  -0.01601  -0.01614   1.96542
    A4        1.90917  -0.00136   0.00000  -0.01827  -0.01843   1.89074
    A5        1.91077   0.00015   0.00000   0.01816   0.01805   1.92882
    A6        1.87897   0.00362   0.00000   0.01688   0.01672   1.89569
    A7        1.85316   0.00520   0.00000   0.01798   0.01783   1.87099
    D1        2.12388  -0.00225   0.00000   0.00000   0.00000   2.12387
    D2       -0.02886   0.00273   0.00000   0.00000   0.00000  -0.02885
    D3       -2.09512  -0.00095   0.00000   0.00000   0.00000  -2.09511
         Item               Value     Threshold  Converged?
 Maximum Force            0.023457     0.002500     NO 
 RMS     Force            0.009738     0.001667     NO 
 Maximum Displacement     0.169164     0.010000     NO 
 RMS     Displacement     0.057110     0.006667     NO 
 Predicted change in Energy=-2.082110D-03
 GradGradGradGradGradGradGradGradGradGradGradGradGradGradGradGradGradGrad

 Leave Link  103 at Fri Jan  8 13:37:18 2021, MaxMem=13421772800 cpu:       0.0
 (Enter /opt/g09gh/gaussian/g09/l202.exe)
                          Input orientation:                          
 ---------------------------------------------------------------------
 Center     Atomic      Atomic             Coordinates (Angstroms)
 Number     Number       Type             X           Y           Z
 ---------------------------------------------------------------------
      1          8           0        0.740564   -0.146797    0.008669
      2          6           0       -0.662373    0.020989   -0.006725
      3          1           0       -1.085075   -0.521961   -0.858074
      4          1           0       -0.960447    1.075603   -0.037327
      5          1           0       -1.070821   -0.404751    0.917693
      6          1           0        1.130032    0.729647   -0.038306
 ---------------------------------------------------------------------
                    Distance matrix (angstroms):
                    1          2          3          4          5
     1  O    0.000000
     2  C    1.413018   0.000000
     3  H    2.055468   1.094654   0.000000
     4  H    2.095189   1.096356   1.800381   0.000000
     5  H    2.043032   1.096646   1.779688   1.765133   0.000000
     6  H    0.960232   1.927669   2.673058   2.118913   2.654156
                    6
     6  H    0.000000
 Stoichiometry    CH4O
 Framework group  C1[X(CH4O)]
 Deg. of freedom    12
 Full point group                 C1      NOp   1
 Largest Abelian subgroup         C1      NOp   1
 Largest concise Abelian subgroup C1      NOp   1
                         Standard orientation:                         
 ---------------------------------------------------------------------
 Center     Atomic      Atomic             Coordinates (Angstroms)
 Number     Number       Type             X           Y           Z
 ---------------------------------------------------------------------
      1          8           0        0.744875   -0.124332    0.006132
      2          6           0       -0.660816    0.018860   -0.006121
      3          1           0       -1.075562   -0.528768   -0.858386
      4          1           0       -0.977400    1.068173   -0.032847
      5          1           0       -1.059961   -0.416857    0.917712
      6          1           0        1.118820    0.758951   -0.038809
 ---------------------------------------------------------------------
 Rotational constants (GHZ):    127.1546215     25.0860402     24.1452922
 Leave Link  202 at Fri Jan  8 13:37:18 2021, MaxMem=13421772800 cpu:       0.0
 (Enter /opt/g09gh/gaussian/g09/l301.exe)
 Standard basis: 6-31G(d) (6D, 7F)
 Ernie: Thresh=  0.10000D-02 Tol=  0.10000D-05 Strict=F.
 There are    38 symmetry adapted basis functions of A   symmetry.
 Integral buffers will be    131072 words long.
 Raffenetti 2 integral format.
 Two-electron integral symmetry is turned on.
    38 basis functions,    72 primitive gaussians,    38 cartesian basis functions
     9 alpha electrons        9 beta electrons
       nuclear repulsion energy        40.4140954646 Hartrees.
 IExCor= 4639 DFT=T Ex+Corr=wB97XD ExCW=0 ScaHFX=  1.000000
 ScaDFX=  1.000000  1.000000  1.000000  1.000000 ScalE2=  1.000000  1.000000
 IRadAn=      0 IRanWt=     -1 IRanGd=            0 ICorTp=0
  HFx wShort=  0.000000 wLong=  0.200000 cFull=  0.222036 cShort=  0.000000 cLong=  0.777964
  DFx wShort=  0.000000 wLong=  0.200000 cFull=  0.000000 cShort=  0.000000 cLong=  1.000000
 NAtoms=    6 NActive=    6 NUniq=    6 SFac= 7.50D-01 NAtFMM=   80 NAOKFM=F Big=F
 R6Disp: Dispersion energy =        -0.0007966834 Hartrees.
 Nuclear repulsion after empirical dispersion term =       40.4132987812 Hartrees.
 Leave Link  301 at Fri Jan  8 13:37:18 2021, MaxMem=13421772800 cpu:       0.4
 (Enter /opt/g09gh/gaussian/g09/l302.exe)
 NPDir=0 NMtPBC=     1 NCelOv=     1 NCel=       1 NClECP=     1 NCelD=      1
         NCelK=      1 NCelE2=     1 NClLst=     1 CellRange=     0.0.
 One-electron integrals computed using PRISM.
 NBasis=    38 RedAO= T  NBF=    38
 NBsUse=    38 1.00D-06 NBFU=    38
 Precomputing XC quadrature grid using
 IXCGrd= 2 IRadAn=           0 IRanWt=          -1 IRanGd=           0 AccXCQ= 1.00D-10.
 NRdTot=     369 NPtTot=       46428 NUsed=       49102 NTot=       49134
 NSgBfM=    38    38    38    38    38 NAtAll=     6     6.
 Leave Link  302 at Fri Jan  8 13:37:18 2021, MaxMem=13421772800 cpu:       1.1
 (Enter /opt/g09gh/gaussian/g09/l303.exe)
 DipDrv:  MaxL=1.
 Leave Link  303 at Fri Jan  8 13:37:19 2021, MaxMem=13421772800 cpu:       0.3
 (Enter /opt/g09gh/gaussian/g09/l401.exe)
 Initial guess read from the read-write file.
 B after Tr=     0.000000    0.000000    0.000000
         Rot=    1.000000    0.000000    0.000000    0.000000 Ang=   0.00 deg.
 Guess basis will be translated and rotated to current coordinates.
 Initial guess orbital symmetries:
       Occupied  (A) (A) (A) (A) (A) (A) (A) (A) (A)
       Virtual   (A) (A) (A) (A) (A) (A) (A) (A) (A) (A) (A) (A)
                 (A) (A) (A) (A) (A) (A) (A) (A) (A) (A) (A) (A)
                 (A) (A) (A) (A) (A)
 The electronic state of the initial guess is 1-A.
 Generating alternative initial guess.
 Harris functional with IExCor= 4639 diagonalized for initial guess.
 ExpMin= 1.61D-01 ExpMax= 5.48D+03 ExpMxC= 8.25D+02 IAcc=1 IRadAn=         1 AccDes= 0.00D+00
 HarFok:  IExCor= 4639 AccDes= 0.00D+00 IRadAn=         1 IDoV= 1
 ScaDFX=  1.000000  1.000000  1.000000  1.000000
 FoFCou: FMM=F IPFlag=           0 FMFlag=      100000 FMFlg1=           0
         NFxFlg=           0 DoJE=T BraDBF=F KetDBF=T FulRan=T
         Omega=  0.000000  0.000000  1.000000  0.000000  0.000000 ICntrl=     500 IOpCl=  0
         NMat0=    1 NMatS0=    1 NMatT0=    0 NMatD0=    1 NMtDS0=    0 NMtDT0=    0
         I1Cent=           4 NGrid=           0.
 Petite list used in FoFCou.
 Harris En= -110.929402428133    
 Leave Link  401 at Fri Jan  8 13:37:19 2021, MaxMem=13421772800 cpu:       1.6
 (Enter /opt/g09gh/gaussian/g09/l502.exe)
 Closed shell SCF:
 Requested convergence on RMS density matrix=1.00D-08 within 128 cycles.
 Requested convergence on MAX density matrix=1.00D-06.
 Requested convergence on             energy=1.00D-06.
 No special actions if energy rises.
 Using DIIS extrapolation, IDIIS=  1040.
 Integral symmetry usage will be decided dynamically.
        49035 words used for storage of precomputed grid.
 IEnd=       72111 IEndB=       72111 NGot= 13421772800 MDV= 13421718812
 LenX= 13421718812 LenY= 13421716927
 Fock matrices will be formed incrementally for  20 cycles.
 Integral accuracy reduced to 1.0D-05 until final iterations.

 Cycle   1  Pass 0  IDiag  1:
 FoFJK:  IHMeth= 1 ICntrl=     0 DoSepK=T KAlg= 1 I1Cent= 0 FoldK=F
 FoFCou: FMM=F IPFlag=           0 FMFlag=      100000 FMFlg1=           0
         NFxFlg=           0 DoJE=T BraDBF=F KetDBF=F FulRan=T
         Omega=  0.000000  0.000000  1.000000  0.000000  0.000000 ICntrl=     500 IOpCl=  0
         NMat0=    1 NMatS0=    1 NMatT0=    0 NMatD0=    1 NMtDS0=    0 NMtDT0=    0
         I1Cent=           0 NGrid=           0.
 Symmetry not used in FoFCou.
 E= -115.673548267450    
 DIIS: error= 4.04D-03 at cycle   1 NSaved=   1.
 NSaved= 1 IEnMin= 1 EnMin= -115.673548267450     IErMin= 1 ErrMin= 4.04D-03
 ErrMax= 4.04D-03 EMaxC= 1.00D-01 BMatC= 9.51D-04 BMatP= 9.51D-04
 IDIUse=3 WtCom= 9.60D-01 WtEn= 4.04D-02
 Coeff-Com:  0.100D+01
 Coeff-En:   0.100D+01
 Coeff:      0.100D+01
 Gap=     0.509 Goal=   None    Shift=    0.000
 GapD=    0.509 DampG=2.000 DampE=1.000 DampFc=2.0000 IDamp=-1.
 RMSDP=8.81D-04 MaxDP=9.21D-03              OVMax= 1.04D-02

 Cycle   2  Pass 0  IDiag  1:
 RMSU=  6.23D-04    CP:  1.00D+00
 FoFJK:  IHMeth= 1 ICntrl=     0 DoSepK=T KAlg= 1 I1Cent= 0 FoldK=F
 E= -115.674697122025     Delta-E=       -0.001148854575 Rises=F Damp=F
 DIIS: error= 8.70D-04 at cycle   2 NSaved=   2.
 NSaved= 2 IEnMin= 2 EnMin= -115.674697122025     IErMin= 2 ErrMin= 8.70D-04
 ErrMax= 8.70D-04 EMaxC= 1.00D-01 BMatC= 4.13D-05 BMatP= 9.51D-04
 IDIUse=3 WtCom= 9.91D-01 WtEn= 8.70D-03
 Coeff-Com: -0.967D-02 0.101D+01
 Coeff-En:   0.000D+00 0.100D+01
 Coeff:     -0.959D-02 0.101D+01
 Gap=     0.506 Goal=   None    Shift=    0.000
 RMSDP=2.25D-04 MaxDP=1.86D-03 DE=-1.15D-03 OVMax= 2.70D-03

 Cycle   3  Pass 0  IDiag  1:
 RMSU=  1.29D-04    CP:  1.00D+00  1.15D+00
 FoFJK:  IHMeth= 1 ICntrl=     0 DoSepK=T KAlg= 1 I1Cent= 0 FoldK=F
 E= -115.674744321160     Delta-E=       -0.000047199135 Rises=F Damp=F
 DIIS: error= 4.87D-04 at cycle   3 NSaved=   3.
 NSaved= 3 IEnMin= 3 EnMin= -115.674744321160     IErMin= 3 ErrMin= 4.87D-04
 ErrMax= 4.87D-04 EMaxC= 1.00D-01 BMatC= 1.34D-05 BMatP= 4.13D-05
 IDIUse=3 WtCom= 9.95D-01 WtEn= 4.87D-03
 Coeff-Com: -0.467D-01 0.329D+00 0.718D+00
 Coeff-En:   0.000D+00 0.000D+00 0.100D+01
 Coeff:     -0.464D-01 0.327D+00 0.719D+00
 Gap=     0.507 Goal=   None    Shift=    0.000
 RMSDP=8.70D-05 MaxDP=1.05D-03 DE=-4.72D-05 OVMax= 1.12D-03

 Cycle   4  Pass 0  IDiag  1:
 RMSU=  5.69D-05    CP:  1.00D+00  1.18D+00  8.96D-01
 FoFJK:  IHMeth= 1 ICntrl=     0 DoSepK=T KAlg= 1 I1Cent= 0 FoldK=F
 E= -115.674753550786     Delta-E=       -0.000009229625 Rises=F Damp=F
 DIIS: error= 2.29D-04 at cycle   4 NSaved=   4.
 NSaved= 4 IEnMin= 4 EnMin= -115.674753550786     IErMin= 4 ErrMin= 2.29D-04
 ErrMax= 2.29D-04 EMaxC= 1.00D-01 BMatC= 2.37D-06 BMatP= 1.34D-05
 IDIUse=3 WtCom= 9.98D-01 WtEn= 2.29D-03
 Coeff-Com: -0.200D-01 0.330D-01 0.322D+00 0.665D+00
 Coeff-En:   0.000D+00 0.000D+00 0.000D+00 0.100D+01
 Coeff:     -0.200D-01 0.330D-01 0.322D+00 0.665D+00
 Gap=     0.507 Goal=   None    Shift=    0.000
 RMSDP=3.14D-05 MaxDP=3.27D-04 DE=-9.23D-06 OVMax= 3.25D-04

 Cycle   5  Pass 0  IDiag  1:
 RMSU=  1.27D-05    CP:  1.00D+00  1.19D+00  1.02D+00  8.96D-01
 FoFJK:  IHMeth= 1 ICntrl=     0 DoSepK=T KAlg= 1 I1Cent= 0 FoldK=F
 E= -115.674755370091     Delta-E=       -0.000001819305 Rises=F Damp=F
 DIIS: error= 2.26D-05 at cycle   5 NSaved=   5.
 NSaved= 5 IEnMin= 5 EnMin= -115.674755370091     IErMin= 5 ErrMin= 2.26D-05
 ErrMax= 2.26D-05 EMaxC= 1.00D-01 BMatC= 1.55D-08 BMatP= 2.37D-06
 IDIUse=1 WtCom= 1.00D+00 WtEn= 0.00D+00
 Coeff-Com:  0.479D-02-0.194D-01-0.807D-01-0.104D+00 0.120D+01
 Coeff:      0.479D-02-0.194D-01-0.807D-01-0.104D+00 0.120D+01
 Gap=     0.507 Goal=   None    Shift=    0.000
 RMSDP=1.19D-05 MaxDP=9.07D-05 DE=-1.82D-06 OVMax= 1.46D-04

 Cycle   6  Pass 0  IDiag  1:
 RMSU=  1.80D-06    CP:  1.00D+00  1.19D+00  1.06D+00  9.80D-01  1.29D+00
 FoFJK:  IHMeth= 1 ICntrl=     0 DoSepK=T KAlg= 1 I1Cent= 0 FoldK=F
 E= -115.674755416764     Delta-E=       -0.000000046673 Rises=F Damp=F
 DIIS: error= 2.71D-06 at cycle   6 NSaved=   6.
 NSaved= 6 IEnMin= 6 EnMin= -115.674755416764     IErMin= 6 ErrMin= 2.71D-06
 ErrMax= 2.71D-06 EMaxC= 1.00D-01 BMatC= 2.06D-10 BMatP= 1.55D-08
 IDIUse=1 WtCom= 1.00D+00 WtEn= 0.00D+00
 Coeff-Com: -0.417D-04 0.937D-03 0.663D-03-0.162D-02-0.844D-01 0.108D+01
 Coeff:     -0.417D-04 0.937D-03 0.663D-03-0.162D-02-0.844D-01 0.108D+01
 Gap=     0.507 Goal=   None    Shift=    0.000
 RMSDP=1.39D-06 MaxDP=8.74D-06 DE=-4.67D-08 OVMax= 1.69D-05

 Initial convergence to 1.0D-05 achieved.  Increase integral accuracy.
 Cycle   7  Pass 1  IDiag  1:
 FoFJK:  IHMeth= 1 ICntrl=     0 DoSepK=T KAlg= 1 I1Cent= 0 FoldK=F
 E= -115.674518374281     Delta-E=        0.000237042483 Rises=F Damp=F
 DIIS: error= 1.35D-04 at cycle   1 NSaved=   1.
 NSaved= 1 IEnMin= 1 EnMin= -115.674518374281     IErMin= 1 ErrMin= 1.35D-04
 ErrMax= 1.35D-04 EMaxC= 1.00D-01 BMatC= 8.11D-07 BMatP= 8.11D-07
 IDIUse=3 WtCom= 9.99D-01 WtEn= 1.35D-03
 Coeff-Com:  0.100D+01
 Coeff-En:   0.100D+01
 Coeff:      0.100D+01
 Gap=     0.507 Goal=   None    Shift=    0.000
 RMSDP=1.39D-06 MaxDP=8.74D-06 DE= 2.37D-04 OVMax= 2.48D-04

 Cycle   8  Pass 1  IDiag  1:
 RMSU=  1.54D-05    CP:  1.00D+00
 FoFJK:  IHMeth= 1 ICntrl=     0 DoSepK=T KAlg= 1 I1Cent= 0 FoldK=F
 E= -115.674519072019     Delta-E=       -0.000000697738 Rises=F Damp=F
 DIIS: error= 3.28D-05 at cycle   2 NSaved=   2.
 NSaved= 2 IEnMin= 2 EnMin= -115.674519072019     IErMin= 2 ErrMin= 3.28D-05
 ErrMax= 3.28D-05 EMaxC= 1.00D-01 BMatC= 4.76D-08 BMatP= 8.11D-07
 IDIUse=1 WtCom= 1.00D+00 WtEn= 0.00D+00
 Coeff-Com:  0.249D-01 0.975D+00
 Coeff:      0.249D-01 0.975D+00
 Gap=     0.507 Goal=   None    Shift=    0.000
 RMSDP=7.66D-06 MaxDP=8.90D-05 DE=-6.98D-07 OVMax= 8.17D-05

 Cycle   9  Pass 1  IDiag  1:
 RMSU=  5.42D-06    CP:  1.00D+00  9.96D-01
 FoFJK:  IHMeth= 1 ICntrl=     0 DoSepK=T KAlg= 1 I1Cent= 0 FoldK=F
 E= -115.674519087748     Delta-E=       -0.000000015729 Rises=F Damp=F
 DIIS: error= 2.87D-05 at cycle   3 NSaved=   3.
 NSaved= 3 IEnMin= 3 EnMin= -115.674519087748     IErMin= 3 ErrMin= 2.87D-05
 ErrMax= 2.87D-05 EMaxC= 1.00D-01 BMatC= 4.15D-08 BMatP= 4.76D-08
 IDIUse=1 WtCom= 1.00D+00 WtEn= 0.00D+00
 Coeff-Com: -0.462D-01 0.498D+00 0.548D+00
 Coeff:     -0.462D-01 0.498D+00 0.548D+00
 Gap=     0.507 Goal=   None    Shift=    0.000
 RMSDP=3.17D-06 MaxDP=4.28D-05 DE=-1.57D-08 OVMax= 3.69D-05

 Cycle  10  Pass 1  IDiag  1:
 RMSU=  1.07D-06    CP:  1.00D+00  1.05D+00  6.75D-01
 FoFJK:  IHMeth= 1 ICntrl=     0 DoSepK=T KAlg= 1 I1Cent= 0 FoldK=F
 E= -115.674519116163     Delta-E=       -0.000000028415 Rises=F Damp=F
 DIIS: error= 2.70D-06 at cycle   4 NSaved=   4.
 NSaved= 4 IEnMin= 4 EnMin= -115.674519116163     IErMin= 4 ErrMin= 2.70D-06
 ErrMax= 2.70D-06 EMaxC= 1.00D-01 BMatC= 1.75D-10 BMatP= 4.15D-08
 IDIUse=1 WtCom= 1.00D+00 WtEn= 0.00D+00
 Coeff-Com: -0.347D-02-0.821D-02 0.276D-01 0.984D+00
 Coeff:     -0.347D-02-0.821D-02 0.276D-01 0.984D+00
 Gap=     0.507 Goal=   None    Shift=    0.000
 RMSDP=4.97D-07 MaxDP=5.28D-06 DE=-2.84D-08 OVMax= 6.47D-06

 Cycle  11  Pass 1  IDiag  1:
 RMSU=  2.52D-07    CP:  1.00D+00  1.06D+00  7.11D-01  1.13D+00
 FoFJK:  IHMeth= 1 ICntrl=     0 DoSepK=T KAlg= 1 I1Cent= 0 FoldK=F
 E= -115.674519116416     Delta-E=       -0.000000000252 Rises=F Damp=F
 DIIS: error= 6.14D-07 at cycle   5 NSaved=   5.
 NSaved= 5 IEnMin= 5 EnMin= -115.674519116416     IErMin= 5 ErrMin= 6.14D-07
 ErrMax= 6.14D-07 EMaxC= 1.00D-01 BMatC= 2.28D-11 BMatP= 1.75D-10
 IDIUse=1 WtCom= 1.00D+00 WtEn= 0.00D+00
 Coeff-Com:  0.912D-03-0.264D-01-0.208D-01 0.231D+00 0.816D+00
 Coeff:      0.912D-03-0.264D-01-0.208D-01 0.231D+00 0.816D+00
 Gap=     0.507 Goal=   None    Shift=    0.000
 RMSDP=1.52D-07 MaxDP=1.60D-06 DE=-2.52D-10 OVMax= 2.57D-06

 Cycle  12  Pass 1  IDiag  1:
 RMSU=  6.67D-08    CP:  1.00D+00  1.06D+00  7.19D-01  1.20D+00  9.29D-01
 FoFJK:  IHMeth= 1 ICntrl=     0 DoSepK=T KAlg= 1 I1Cent= 0 FoldK=F
 E= -115.674519116441     Delta-E=       -0.000000000025 Rises=F Damp=F
 DIIS: error= 3.27D-07 at cycle   6 NSaved=   6.
 NSaved= 6 IEnMin= 6 EnMin= -115.674519116441     IErMin= 6 ErrMin= 3.27D-07
 ErrMax= 3.27D-07 EMaxC= 1.00D-01 BMatC= 1.84D-12 BMatP= 2.28D-11
 IDIUse=1 WtCom= 1.00D+00 WtEn= 0.00D+00
 Coeff-Com:  0.651D-03-0.766D-02-0.805D-02 0.223D-02 0.231D+00 0.782D+00
 Coeff:      0.651D-03-0.766D-02-0.805D-02 0.223D-02 0.231D+00 0.782D+00
 Gap=     0.507 Goal=   None    Shift=    0.000
 RMSDP=4.05D-08 MaxDP=5.09D-07 DE=-2.49D-11 OVMax= 6.19D-07

 Cycle  13  Pass 1  IDiag  1:
 RMSU=  1.75D-08    CP:  1.00D+00  1.06D+00  7.21D-01  1.21D+00  1.00D+00
                    CP:  9.53D-01
 FoFJK:  IHMeth= 1 ICntrl=     0 DoSepK=T KAlg= 1 I1Cent= 0 FoldK=F
 E= -115.674519116443     Delta-E=       -0.000000000002 Rises=F Damp=F
 DIIS: error= 2.40D-08 at cycle   7 NSaved=   7.
 NSaved= 7 IEnMin= 7 EnMin= -115.674519116443     IErMin= 7 ErrMin= 2.40D-08
 ErrMax= 2.40D-08 EMaxC= 1.00D-01 BMatC= 4.22D-14 BMatP= 1.84D-12
 IDIUse=1 WtCom= 1.00D+00 WtEn= 0.00D+00
 Coeff-Com: -0.275D-04 0.107D-02 0.838D-03-0.131D-01-0.344D-01 0.596D-01
 Coeff-Com:  0.986D+00
 Coeff:     -0.275D-04 0.107D-02 0.838D-03-0.131D-01-0.344D-01 0.596D-01
 Coeff:      0.986D+00
 Gap=     0.507 Goal=   None    Shift=    0.000
 RMSDP=1.30D-08 MaxDP=8.81D-08 DE=-2.02D-12 OVMax= 1.31D-07

 Cycle  14  Pass 1  IDiag  1:
 RMSU=  3.50D-09    CP:  1.00D+00  1.06D+00  7.21D-01  1.21D+00  1.01D+00
                    CP:  1.04D+00  1.18D+00
 FoFJK:  IHMeth= 1 ICntrl=     0 DoSepK=T KAlg= 1 I1Cent= 0 FoldK=F
 E= -115.674519116443     Delta-E=        0.000000000000 Rises=F Damp=F
 DIIS: error= 4.19D-09 at cycle   8 NSaved=   8.
 NSaved= 8 IEnMin= 8 EnMin= -115.674519116443     IErMin= 8 ErrMin= 4.19D-09
 ErrMax= 4.19D-09 EMaxC= 1.00D-01 BMatC= 1.05D-15 BMatP= 4.22D-14
 IDIUse=1 WtCom= 1.00D+00 WtEn= 0.00D+00
 Coeff-Com: -0.112D-04 0.854D-04 0.623D-04 0.118D-02-0.236D-02-0.270D-01
 Coeff-Com: -0.852D-01 0.111D+01
 Coeff:     -0.112D-04 0.854D-04 0.623D-04 0.118D-02-0.236D-02-0.270D-01
 Coeff:     -0.852D-01 0.111D+01
 Gap=     0.507 Goal=   None    Shift=    0.000
 RMSDP=3.40D-09 MaxDP=2.52D-08 DE=-5.68D-14 OVMax= 3.76D-08

 SCF Done:  E(RwB97XD) =  -115.674519116     A.U. after   14 cycles
             Convg  =    0.3397D-08             -V/T =  2.0083
 KE= 1.147182703002D+02 PE=-3.519563911771D+02 EE= 8.115030297919D+01
 Leave Link  502 at Fri Jan  8 13:37:21 2021, MaxMem=13421772800 cpu:      20.9
 (Enter /opt/g09gh/gaussian/g09/l701.exe)
 Compute integral first derivatives.
 ... and contract with generalized density number  0.
 R6Disp: Adding dispersion energy 1st derivatives to the gradient.
 Leave Link  701 at Fri Jan  8 13:37:22 2021, MaxMem=13421772800 cpu:       0.9
 (Enter /opt/g09gh/gaussian/g09/l702.exe)
 L702 exits ... SP integral derivatives will be done elsewhere.
 Leave Link  702 at Fri Jan  8 13:37:22 2021, MaxMem=13421772800 cpu:       0.3
 (Enter /opt/g09gh/gaussian/g09/l703.exe)
 Compute integral first derivatives, UseDBF=F ICtDFT=           0.
 Integral derivatives from FoFDir, PRISM(SPDF).
 Calling FoFJK, ICntrl=      2127 FMM=F ISym2X=0 I1Cent= 0 IOpClX= 0 NMat=1 NMatS=1 NMatT=0.
 FoFJK:  IHMeth= 1 ICntrl=  2127 DoSepK=T KAlg= 1 I1Cent= 0 FoldK=F
 FoFCou: FMM=F IPFlag=           0 FMFlag=      100000 FMFlg1=         800
         NFxFlg=           0 DoJE=F BraDBF=F KetDBF=F FulRan=T
         Omega=  0.000000  0.000000  1.000000  0.000000  0.000000 ICntrl=    2527 IOpCl=  0
         NMat0=    1 NMatS0=    1 NMatT0=    0 NMatD0=    1 NMtDS0=    0 NMtDT0=    0
         I1Cent=           0 NGrid=           0.
 Symmetry not used in FoFCou.
 Leave Link  703 at Fri Jan  8 13:37:22 2021, MaxMem=13421772800 cpu:       2.4
 (Enter /opt/g09gh/gaussian/g09/l716.exe)
 Dipole        =-3.16503433D-01 6.70127011D-01-3.28253402D-02
 ***** Axes restored to original set *****
 -------------------------------------------------------------------
 Center     Atomic                   Forces (Hartrees/Bohr)
 Number     Number              X              Y              Z
 -------------------------------------------------------------------
      1        8           0.002200027    0.003793625   -0.001595372
      2        6           0.001489949   -0.004250864    0.007193838
      3        1          -0.002550278    0.002370600   -0.001188484
      4        1          -0.001231902   -0.000427081   -0.003403253
      5        1          -0.003237946   -0.000694691   -0.000782146
      6        1           0.003330150   -0.000791589   -0.000224583
 -------------------------------------------------------------------
 Cartesian Forces:  Max     0.007193838 RMS     0.002828249
 Leave Link  716 at Fri Jan  8 13:37:22 2021, MaxMem=13421772800 cpu:       0.3
 (Enter /opt/g09gh/gaussian/g09/l103.exe)

 GradGradGradGradGradGradGradGradGradGradGradGradGradGradGradGradGradGrad
 Berny optimization.
 Using GEDIIS/GDIIS optimizer.
 Internal  Forces:  Max     0.006050660 RMS     0.003030914
 Search for a local minimum.
 Step number   2 out of a maximum of    2
 All quantities printed in internal units (Hartrees-Bohrs-Radians)
 RMS Force = .29629D-02 SwitMx=.10000D-02 MixMth= 1
 Mixed Optimization -- RFO/linear search
 Update second derivatives using D2CorX and points    1    2
 DE= -1.54D-03 DEPred=-2.08D-03 R= 7.38D-01
 SS=  1.41D+00  RLast= 1.33D-01 DXNew= 5.0454D-01 3.9776D-01
 Trust test= 7.38D-01 RLast= 1.33D-01 DXMaxT set to 3.98D-01
 The second derivative matrix:
                          R1        R2        R3        R4        R5
           R1           0.41174
           R2           0.00261   0.54674
           R3           0.00638   0.00134   0.35182
           R4           0.00207   0.00062  -0.00535   0.35139
           R5           0.00673   0.00138  -0.00734  -0.00527   0.34905
           A1           0.03032   0.00415  -0.00023  -0.00286   0.00033
           A2           0.01620   0.00244  -0.00363  -0.00376  -0.00331
           A3           0.00216   0.00024   0.00080   0.00032   0.00083
           A4           0.01911   0.00288  -0.00432  -0.00446  -0.00394
           A5          -0.01137  -0.00167   0.00192   0.00224   0.00170
           A6          -0.01571  -0.00236   0.00341   0.00357   0.00310
           A7          -0.01191  -0.00176   0.00211   0.00241   0.00188
           D1          -0.00071  -0.00011   0.00022   0.00021   0.00021
           D2          -0.00039  -0.00006   0.00012   0.00011   0.00012
           D3           0.00079   0.00012  -0.00025  -0.00023  -0.00023
                          A1        A2        A3        A4        A5
           A1           0.19306
           A2           0.01429   0.16452
           A3           0.00314   0.00174   0.16021
           A4           0.01682   0.00529   0.00206   0.16620
           A5          -0.01063  -0.00373  -0.00121  -0.00437   0.16296
           A6          -0.01397  -0.00448  -0.00169  -0.00525   0.00368
           A7          -0.01104  -0.00382  -0.00127  -0.00448   0.00305
           D1          -0.00056  -0.00014  -0.00008  -0.00016   0.00013
           D2          -0.00031  -0.00008  -0.00004  -0.00009   0.00007
           D3           0.00063   0.00016   0.00009   0.00018  -0.00014
                          A6        A7        D1        D2        D3
           A6           0.16444
           A7           0.00377   0.16314
           D1           0.00014   0.00013   0.01103
           D2           0.00008   0.00007   0.00000   0.01103
           D3          -0.00016  -0.00014   0.00000   0.00000   0.01103
 Use linear search instead of GDIIS.
     Eigenvalues ---    0.15541   0.16000   0.16000   0.20761   0.33926
     Eigenvalues ---    0.35546   0.35808   0.42243   0.546991000.00000
     Eigenvalues --- 1000.000001000.000001000.000001000.000001000.00000
 RFO step:  Lambda=-1.42251622D-04 EMin= 1.55408953D-01
 Quartic linear search produced a step of -0.20604.
 Iteration  1 RMS(Cart)=  0.01483658 RMS(Int)=  0.00009607
 Iteration  2 RMS(Cart)=  0.00007934 RMS(Int)=  0.00002835
 Iteration  3 RMS(Cart)=  0.00000000 RMS(Int)=  0.00002835
 Iteration  1 RMS(Cart)=  0.00001044 RMS(Int)=  0.00001442
 Iteration  2 RMS(Cart)=  0.00000637 RMS(Int)=  0.00001605
 Iteration  3 RMS(Cart)=  0.00000389 RMS(Int)=  0.00001834
 Iteration  4 RMS(Cart)=  0.00000237 RMS(Int)=  0.00002006
 Iteration  5 RMS(Cart)=  0.00000145 RMS(Int)=  0.00002121
 Iteration  6 RMS(Cart)=  0.00000089 RMS(Int)=  0.00002193
 Variable       Old X    -DE/DX   Delta X   Delta X   Delta X     New X
                                 (Linear)    (Quad)   (Total)
    R1        2.67022   0.00510   0.01227  -0.00463   0.00765   2.67786
    R2        1.81458   0.00066   0.00142  -0.00076   0.00066   1.81524
    R3        2.06860   0.00073  -0.00551   0.00839   0.00287   2.07147
    R4        2.07181   0.00001  -0.00475   0.00586   0.00111   2.07292
    R5        2.07236   0.00082  -0.00527   0.00830   0.00303   2.07539
    A1        1.86899   0.00605   0.02091   0.00290   0.02381   1.89280
    A2        1.91025   0.00183   0.00329   0.01057   0.01382   1.92407
    A3        1.96542   0.00005   0.00333  -0.00142   0.00193   1.96735
    A4        1.89074   0.00526   0.00380   0.01290   0.01665   1.90739
    A5        1.92882  -0.00498  -0.00372  -0.00523  -0.00893   1.91989
    A6        1.89569  -0.00208  -0.00345  -0.01120  -0.01477   1.88092
    A7        1.87099   0.00000  -0.00367  -0.00611  -0.00976   1.86123
    D1        2.12387  -0.00238   0.00000   0.00000   0.00000   2.12387
    D2       -0.02885   0.00266   0.00000   0.00000   0.00000  -0.02886
    D3       -2.09511  -0.00080   0.00000   0.00000   0.00000  -2.09511
         Item               Value     Threshold  Converged?
 Maximum Force            0.006051     0.002500     NO 
 RMS     Force            0.002963     0.001667     NO 
 Maximum Displacement     0.040437     0.010000     NO 
 RMS     Displacement     0.014826     0.006667     NO 
 Predicted change in Energy=-1.942496D-04
 Optimization stopped.
    -- Number of steps exceeded,  NStep=   2
    -- Flag reset to prevent archiving.
                           ----------------------------
                           ! Non-Optimized Parameters !
                           ! (Angstroms and Degrees)  !
 --------------------------                            --------------------------
 ! Name  Definition              Value          Derivative Info.                !
 --------------------------------------------------------------------------------
 ! R1    R(1,2)                  1.4171         -DE/DX =    0.0051              !
 ! R2    R(1,6)                  0.9606         -DE/DX =    0.0007              !
 ! R3    R(2,3)                  1.0962         -DE/DX =    0.0007              !
 ! R4    R(2,4)                  1.0969         -DE/DX =    0.0                 !
 ! R5    R(2,5)                  1.0983         -DE/DX =    0.0008              !
 ! A1    A(2,1,6)              108.4494         -DE/DX =    0.0061              !
 ! A2    A(1,2,3)              110.241          -DE/DX =    0.0018              !
 ! A3    A(1,2,4)              112.721          -DE/DX =    0.0001              !
 ! A4    A(1,2,5)              109.2852         -DE/DX =    0.0053              !
 ! A5    A(3,2,4)              110.0017         -DE/DX =   -0.005               !
 ! A6    A(3,2,5)              107.7689         -DE/DX =   -0.0021              !
 ! A7    A(4,2,5)              106.6406         -DE/DX =    0.0                 !
 ! D1    D(6,1,2,3)            121.689          -DE/DX =   -0.0024              !
 ! D2    D(6,1,2,4)             -1.6533         -DE/DX =    0.0027              !
 ! D3    D(6,1,2,5)           -120.0411         -DE/DX =   -0.0008              !
 --------------------------------------------------------------------------------
 GradGradGradGradGradGradGradGradGradGradGradGradGradGradGradGradGradGrad

 Largest change from initial coordinates is atom    6       0.107 Angstoms.
 Leave Link  103 at Fri Jan  8 13:37:22 2021, MaxMem=13421772800 cpu:       0.0
 (Enter /opt/g09gh/gaussian/g09/l202.exe)
                          Input orientation:                          
 ---------------------------------------------------------------------
 Center     Atomic      Atomic             Coordinates (Angstroms)
 Number     Number       Type             X           Y           Z
 ---------------------------------------------------------------------
      1          8           0        0.740564   -0.146797    0.008669
      2          6           0       -0.662373    0.020989   -0.006725
      3          1           0       -1.085075   -0.521961   -0.858074
      4          1           0       -0.960447    1.075603   -0.037327
      5          1           0       -1.070821   -0.404751    0.917693
      6          1           0        1.130032    0.729647   -0.038306
 ---------------------------------------------------------------------
                    Distance matrix (angstroms):
                    1          2          3          4          5
     1  O    0.000000
     2  C    1.413018   0.000000
     3  H    2.055468   1.094654   0.000000
     4  H    2.095189   1.096356   1.800381   0.000000
     5  H    2.043032   1.096646   1.779688   1.765133   0.000000
     6  H    0.960232   1.927669   2.673058   2.118913   2.654156
                    6
     6  H    0.000000
 Stoichiometry    CH4O
 Framework group  C1[X(CH4O)]
 Deg. of freedom    12
 Full point group                 C1      NOp   1
 Largest Abelian subgroup         C1      NOp   1
 Largest concise Abelian subgroup C1      NOp   1
                         Standard orientation:                         
 ---------------------------------------------------------------------
 Center     Atomic      Atomic             Coordinates (Angstroms)
 Number     Number       Type             X           Y           Z
 ---------------------------------------------------------------------
      1          8           0        0.744875   -0.124332    0.006132
      2          6           0       -0.660816    0.018860   -0.006121
      3          1           0       -1.075562   -0.528768   -0.858386
      4          1           0       -0.977400    1.068173   -0.032847
      5          1           0       -1.059961   -0.416857    0.917712
      6          1           0        1.118820    0.758951   -0.038809
 ---------------------------------------------------------------------
 Rotational constants (GHZ):    127.1546215     25.0860402     24.1452922
 Leave Link  202 at Fri Jan  8 13:37:22 2021, MaxMem=13421772800 cpu:       0.0
 (Enter /opt/g09gh/gaussian/g09/l601.exe)
 Copying SCF densities to generalized density rwf, IOpCl= 0 IROHF=0.

 **********************************************************************

            Population analysis using the SCF density.

 **********************************************************************

 Orbital symmetries:
       Occupied  (A) (A) (A) (A) (A) (A) (A) (A) (A)
       Virtual   (A) (A) (A) (A) (A) (A) (A) (A) (A) (A) (A) (A)
                 (A) (A) (A) (A) (A) (A) (A) (A) (A) (A) (A) (A)
                 (A) (A) (A) (A) (A)
 The electronic state is 1-A.
 Alpha  occ. eigenvalues --  -19.25976 -10.33240  -1.11375  -0.77378  -0.59228
 Alpha  occ. eigenvalues --   -0.52103  -0.50585  -0.41472  -0.34530
 Alpha virt. eigenvalues --    0.16141   0.22142   0.24841   0.26276   0.30693
 Alpha virt. eigenvalues --    0.63152   0.65281   0.66202   0.90888   0.95185
 Alpha virt. eigenvalues --    0.95670   0.99739   1.04393   1.06370   1.11549
 Alpha virt. eigenvalues --    1.24779   1.55338   1.56976   1.62197   1.84165
 Alpha virt. eigenvalues --    2.16338   2.20288   2.27890   2.39673   2.47032
 Alpha virt. eigenvalues --    2.60288   2.89389   3.80946   4.31919
          Condensed to atoms (all electrons):
              1          2          3          4          5          6
     1  O    8.248720   0.247570  -0.043376  -0.024543  -0.045494   0.250786
     2  C    0.247570   4.886384   0.383994   0.376090   0.383954  -0.029312
     3  H   -0.043376   0.383994   0.567446  -0.032006  -0.044782   0.003981
     4  H   -0.024543   0.376090  -0.032006   0.584577  -0.035752  -0.013686
     5  H   -0.045494   0.383954  -0.044782  -0.035752   0.575327   0.004190
     6  H    0.250786  -0.029312   0.003981  -0.013686   0.004190   0.374315
 Mulliken atomic charges:
              1
     1  O   -0.633665
     2  C   -0.248682
     3  H    0.164743
     4  H    0.145320
     5  H    0.162557
     6  H    0.409726
 Sum of Mulliken atomic charges =   0.00000
 Mulliken charges with hydrogens summed into heavy atoms:
              1
     1  O   -0.223939
     2  C    0.223939
 Sum of Mulliken charges with hydrogens summed into heavy atoms =   0.00000
 Electronic spatial extent (au):  <R**2>=             83.2734
 Charge=              0.0000 electrons
 Dipole moment (field-independent basis, Debye):
    X=             -0.8045    Y=              1.7033    Z=             -0.0834  Tot=              1.8856
 Quadrupole moment (field-independent basis, Debye-Ang):
   XX=            -12.6045   YY=            -11.8997   ZZ=            -13.4144
   XY=              2.1125   XZ=             -0.1024   YZ=             -0.0185
 Traceless Quadrupole moment (field-independent basis, Debye-Ang):
   XX=              0.0350   YY=              0.7398   ZZ=             -0.7748
   XY=              2.1125   XZ=             -0.1024   YZ=             -0.0185
 Octapole moment (field-independent basis, Debye-Ang**2):
  XXX=              4.5016  YYY=              1.8375  ZZZ=              0.0502  XYY=              1.9595
  XXY=              2.4349  XXZ=             -0.1288  XZZ=              0.4074  YZZ=             -0.2721
  YYZ=             -0.1191  XYZ=             -0.1468
 Hexadecapole moment (field-independent basis, Debye-Ang**3):
 XXXX=            -58.9650 YYYY=            -19.0543 ZZZZ=            -18.3876 XXXY=              3.3632
 XXXZ=             -0.1324 YYYX=              1.4465 YYYZ=             -0.0093 ZZZX=             -0.1359
 ZZZY=              0.0133 XXYY=            -12.0562 XXZZ=            -13.2240 YYZZ=             -6.4393
 XXYZ=              0.0006 YYXZ=              0.0256 ZZXY=              0.9359
 N-N= 4.041329878125D+01 E-N=-3.519563912718D+02  KE= 1.147182703002D+02
 No NMR shielding tensors so no spin-rotation constants.
 Leave Link  601 at Fri Jan  8 13:37:22 2021, MaxMem=13421772800 cpu:       0.9
 (Enter /opt/g09gh/gaussian/g09/l9999.exe)


 ALL SCIENCE IS EITHER PHYSICS, OR STAMP COLLECTING.
   --ERNEST RUTHERFORD, 1871-1937.
 Error termination request processed by link 9999.
 Error termination via Lnk1e in /opt/g09gh/gaussian/g09/l9999.exe at Fri Jan  8 13:37:22 2021.
 Job cpu time:  0 days  0 hours  1 minutes  0.7 seconds.
 File lengths (MBytes):  RWF=      5 Int=      0 D2E=      0 Chk=      1 Scr=      1
