 Entering Gaussian System, Link 0=/opt/g09gh/gaussian/g09/g09
 Input=methanol-sp-2-1-242.com
 Output=methanol-sp-2-1-242.log
 Initial command:
 /opt/g09gh/gaussian/g09/l1.exe /scratch/bdw2292/Gau-methanol/Gau-17464.inp -scrdir=/scratch/bdw2292/Gau-methanol/
 Entering Link 1 = /opt/g09gh/gaussian/g09/l1.exe PID=     17465.
  
 Copyright (c) 1988,1990,1992,1993,1995,1998,2003,2009, Gaussian, Inc.
                  All Rights Reserved.
  
 This is part of the Gaussian(R) 09 program.  It is based on
 the Gaussian(R) 03 system (copyright 2003, Gaussian, Inc.),
 the Gaussian(R) 98 system (copyright 1998, Gaussian, Inc.),
 the Gaussian(R) 94 system (copyright 1995, Gaussian, Inc.),
 the Gaussian 92(TM) system (copyright 1992, Gaussian, Inc.),
 the Gaussian 90(TM) system (copyright 1990, Gaussian, Inc.),
 the Gaussian 88(TM) system (copyright 1988, Gaussian, Inc.),
 the Gaussian 86(TM) system (copyright 1986, Carnegie Mellon
 University), and the Gaussian 82(TM) system (copyright 1983,
 Carnegie Mellon University). Gaussian is a federally registered
 trademark of Gaussian, Inc.
  
 This software contains proprietary and confidential information,
 including trade secrets, belonging to Gaussian, Inc.
  
 This software is provided under written license and may be
 used, copied, transmitted, or stored only in accord with that
 written license.
  
 The following legend is applicable only to US Government
 contracts under FAR:
  
                    RESTRICTED RIGHTS LEGEND
  
 Use, reproduction and disclosure by the US Government is
 subject to restrictions as set forth in subparagraphs (a)
 and (c) of the Commercial Computer Software - Restricted
 Rights clause in FAR 52.227-19.
  
 Gaussian, Inc.
 340 Quinnipiac St., Bldg. 40, Wallingford CT 06492
  
  
 ---------------------------------------------------------------
 Warning -- This program may not be used in any manner that
 competes with the business of Gaussian, Inc. or will provide
 assistance to any competitor of Gaussian, Inc.  The licensee
 of this program is prohibited from giving any competitor of
 Gaussian, Inc. access to this program.  By using this program,
 the user acknowledges that Gaussian, Inc. is engaged in the
 business of creating and licensing software in the field of
 computational chemistry and represents and warrants to the
 licensee that it is not a competitor of Gaussian, Inc. and that
 it will not use this program in any manner prohibited above.
 ---------------------------------------------------------------
  

 Cite this work as:
 Gaussian 09, Revision A.02,
 M. J. Frisch, G. W. Trucks, H. B. Schlegel, G. E. Scuseria, 
 M. A. Robb, J. R. Cheeseman, G. Scalmani, V. Barone, B. Mennucci, 
 G. A. Petersson, H. Nakatsuji, M. Caricato, X. Li, H. P. Hratchian, 
 A. F. Izmaylov, J. Bloino, G. Zheng, J. L. Sonnenberg, M. Hada, 
 M. Ehara, K. Toyota, R. Fukuda, J. Hasegawa, M. Ishida, T. Nakajima, 
 Y. Honda, O. Kitao, H. Nakai, T. Vreven, J. A. Montgomery, Jr., 
 J. E. Peralta, F. Ogliaro, M. Bearpark, J. J. Heyd, E. Brothers, 
 K. N. Kudin, V. N. Staroverov, R. Kobayashi, J. Normand, 
 K. Raghavachari, A. Rendell, J. C. Burant, S. S. Iyengar, J. Tomasi, 
 M. Cossi, N. Rega, J. M. Millam, M. Klene, J. E. Knox, J. B. Cross, 
 V. Bakken, C. Adamo, J. Jaramillo, R. Gomperts, R. E. Stratmann, 
 O. Yazyev, A. J. Austin, R. Cammi, C. Pomelli, J. W. Ochterski, 
 R. L. Martin, K. Morokuma, V. G. Zakrzewski, G. A. Voth, 
 P. Salvador, J. J. Dannenberg, S. Dapprich, A. D. Daniels, 
 O. Farkas, J. B. Foresman, J. V. Ortiz, J. Cioslowski, 
 and D. J. Fox, Gaussian, Inc., Wallingford CT, 2009.
 
 ******************************************
 Gaussian 09:  EM64L-G09RevA.02 11-Jun-2009
                 8-Jan-2021 
 ******************************************
 %RWF=/scratch/bdw2292/Gau-methanol/,200GB
 %Nosave
 %Chk=methanol-sp-2-1-242.chk
 %Mem=100GB
 %Nproc=8
 Will use up to    8 processors via shared memory.
 ---------------------------------------------------------------------
 #P wB97XD/6-311+G* SP SCF=(qc,maxcycle=800) Pop=NBORead MaxDisk=200GB
 ---------------------------------------------------------------------
 1/38=1/1;
 2/12=2,17=6,18=5,40=1/2;
 3/5=4,6=6,7=11,11=2,16=1,25=1,30=1,74=-58/1,2,3;
 4//1;
 5/5=2,7=800,8=3,38=5/8;
 6/7=2,8=2,9=2,10=2,28=1,40=1/1,7;
 99/5=1,9=1/99;
 Leave Link    1 at Fri Jan  8 13:56:36 2021, MaxMem=13421772800 cpu:       0.5
 (Enter /opt/g09gh/gaussian/g09/l101.exe)
 ---------------------------------------------------------------
 methanol Rotatable Bond SP Calculation on node37.bme.utexas.edu
 ---------------------------------------------------------------
 Symbolic Z-matrix:
 Charge =  0 Multiplicity = 1
 O                    -0.75456  -0.11481   0.00004 
 C                     0.66175   0.00289  -0.00001 
 H                     1.0921   -0.45208  -0.90449 
 H                     1.09213  -0.45185   0.90458 
 H                     0.95887   1.06321  -0.00015 
 H                    -1.13834   0.77651  -0.00009 
 
 NAtoms=      6 NQM=      6 NQMF=      0 NMic=      0 NMicF=      0 NTot=      6.
                    Isotopes and Nuclear Properties:
 (Nuclear quadrupole moments (NQMom) in fm**2, nuclear magnetic moments (NMagM)
  in nuclear magnetons)

  Atom         1           2           3           4           5           6
 IAtWgt=          16          12           1           1           1           1
 AtmWgt=  15.9949146  12.0000000   1.0078250   1.0078250   1.0078250   1.0078250
 NucSpn=           0           0           1           1           1           1
 AtZEff=   0.0000000   0.0000000   0.0000000   0.0000000   0.0000000   0.0000000
 NQMom=    0.0000000   0.0000000   0.0000000   0.0000000   0.0000000   0.0000000
 NMagM=    0.0000000   0.0000000   2.7928460   2.7928460   2.7928460   2.7928460
 Leave Link  101 at Fri Jan  8 13:56:36 2021, MaxMem=13421772800 cpu:       0.9
 (Enter /opt/g09gh/gaussian/g09/l202.exe)
                          Input orientation:                          
 ---------------------------------------------------------------------
 Center     Atomic      Atomic             Coordinates (Angstroms)
 Number     Number       Type             X           Y           Z
 ---------------------------------------------------------------------
      1          8           0       -0.754564   -0.114807    0.000044
      2          6           0        0.661750    0.002891   -0.000013
      3          1           0        1.092104   -0.452082   -0.904486
      4          1           0        1.092134   -0.451847    0.904578
      5          1           0        0.958870    1.063207   -0.000148
      6          1           0       -1.138344    0.776514   -0.000090
 ---------------------------------------------------------------------
                    Distance matrix (angstroms):
                    1          2          3          4          5
     1  O    0.000000
     2  C    1.421196   0.000000
     3  H    2.083773   1.100126   0.000000
     4  H    2.083764   1.100137   1.809064   0.000000
     5  H    2.079320   1.101159   1.769655   1.769655   0.000000
     6  H    0.970433   1.959293   2.702273   2.702282   2.116719
                    6
     6  H    0.000000
 Stoichiometry    CH4O
 Framework group  C1[X(CH4O)]
 Deg. of freedom    12
 Full point group                 C1      NOp   1
 Largest Abelian subgroup         C1      NOp   1
 Largest concise Abelian subgroup C1      NOp   1
                         Standard orientation:                         
 ---------------------------------------------------------------------
 Center     Atomic      Atomic             Coordinates (Angstroms)
 Number     Number       Type             X           Y           Z
 ---------------------------------------------------------------------
      1          8           0       -0.749273   -0.128298    0.000037
      2          6           0        0.665059    0.011217   -0.000020
      3          1           0        1.102374   -0.437069   -0.904493
      4          1           0        1.102401   -0.436834    0.904571
      5          1           0        0.945800    1.075986   -0.000155
      6          1           0       -1.146746    0.757002   -0.000097
 ---------------------------------------------------------------------
 Rotational constants (GHZ):    126.9475169     24.6240067     23.8313043
 Leave Link  202 at Fri Jan  8 13:56:36 2021, MaxMem=13421772800 cpu:       0.0
 (Enter /opt/g09gh/gaussian/g09/l301.exe)
 Standard basis: 6-311+G(d) (5D, 7F)
 Ernie: Thresh=  0.10000D-02 Tol=  0.10000D-05 Strict=F.
 There are    56 symmetry adapted basis functions of A   symmetry.
 Integral buffers will be    131072 words long.
 Raffenetti 2 integral format.
 Two-electron integral symmetry is turned on.
    56 basis functions,    92 primitive gaussians,    58 cartesian basis functions
     9 alpha electrons        9 beta electrons
       nuclear repulsion energy        40.1424955888 Hartrees.
 IExCor= 4639 DFT=T Ex+Corr=wB97XD ExCW=0 ScaHFX=  1.000000
 ScaDFX=  1.000000  1.000000  1.000000  1.000000 ScalE2=  1.000000  1.000000
 IRadAn=      0 IRanWt=     -1 IRanGd=            0 ICorTp=0
  HFx wShort=  0.000000 wLong=  0.200000 cFull=  0.222036 cShort=  0.000000 cLong=  0.777964
  DFx wShort=  0.000000 wLong=  0.200000 cFull=  0.000000 cShort=  0.000000 cLong=  1.000000
 NAtoms=    6 NActive=    6 NUniq=    6 SFac= 7.50D-01 NAtFMM=   80 NAOKFM=F Big=F
 R6Disp: Dispersion energy =        -0.0007936613 Hartrees.
 Nuclear repulsion after empirical dispersion term =       40.1417019275 Hartrees.
 Leave Link  301 at Fri Jan  8 13:56:36 2021, MaxMem=13421772800 cpu:       0.5
 (Enter /opt/g09gh/gaussian/g09/l302.exe)
 NPDir=0 NMtPBC=     1 NCelOv=     1 NCel=       1 NClECP=     1 NCelD=      1
         NCelK=      1 NCelE2=     1 NClLst=     1 CellRange=     0.0.
 One-electron integrals computed using PRISM.
 NBasis=    56 RedAO= T  NBF=    56
 NBsUse=    56 1.00D-06 NBFU=    56
 Precomputing XC quadrature grid using
 IXCGrd= 2 IRadAn=           0 IRanWt=          -1 IRanGd=           0 AccXCQ= 1.00D-10.
 NRdTot=     384 NPtTot=       48764 NUsed=       51543 NTot=       51575
 NSgBfM=    58    58    58    58    58 NAtAll=     6     6.
 Leave Link  302 at Fri Jan  8 13:56:36 2021, MaxMem=13421772800 cpu:       1.2
 (Enter /opt/g09gh/gaussian/g09/l303.exe)
 DipDrv:  MaxL=1.
 Leave Link  303 at Fri Jan  8 13:56:36 2021, MaxMem=13421772800 cpu:       0.3
 (Enter /opt/g09gh/gaussian/g09/l401.exe)
 Harris functional with IExCor= 4639 diagonalized for initial guess.
 ExpMin= 4.38D-02 ExpMax= 8.59D+03 ExpMxC= 1.30D+03 IAcc=2 IRadAn=         0 AccDes= 0.00D+00
 HarFok:  IExCor= 4639 AccDes= 0.00D+00 IRadAn=         0 IDoV= 1
 ScaDFX=  1.000000  1.000000  1.000000  1.000000
 FoFCou: FMM=F IPFlag=           0 FMFlag=      100000 FMFlg1=           0
         NFxFlg=           0 DoJE=T BraDBF=F KetDBF=T FulRan=T
         Omega=  0.000000  0.000000  1.000000  0.000000  0.000000 ICntrl=     500 IOpCl=  0
         NMat0=    1 NMatS0=    1 NMatT0=    0 NMatD0=    1 NMtDS0=    0 NMtDT0=    0
         I1Cent=           4 NGrid=           0.
 Petite list used in FoFCou.
 Harris En= -110.969782848336    
 Initial guess orbital symmetries:
       Occupied  (A) (A) (A) (A) (A) (A) (A) (A) (A)
       Virtual   (A) (A) (A) (A) (A) (A) (A) (A) (A) (A) (A) (A)
                 (A) (A) (A) (A) (A) (A) (A) (A) (A) (A) (A) (A)
                 (A) (A) (A) (A) (A) (A) (A) (A) (A) (A) (A) (A)
                 (A) (A) (A) (A) (A) (A) (A) (A) (A) (A) (A)
 The electronic state of the initial guess is 1-A.
 Leave Link  401 at Fri Jan  8 13:56:37 2021, MaxMem=13421772800 cpu:       1.7
 (Enter /opt/g09gh/gaussian/g09/l508.exe)
 Direct SCF.
 Tight linear equation convergence will be used.
 RwB97XD wavefunction.
 Quadratic Convergence SCF Method.
 Line search only if initial step raises energy.
 Integral symmetry usage will be decided dynamically.
 ReadGW:  IGet=1 IStart=           2 Next=       51478 LGW=       51476.
 Pruned (  75, 302) grid will be used in CalDFT.
 FoFJK:  IHMeth= 1 ICntrl=     0 DoSepK=T KAlg= 1 I1Cent= 0 FoldK=F
 FoFCou: FMM=F IPFlag=           0 FMFlag=      100000 FMFlg1=           0
         NFxFlg=           0 DoJE=T BraDBF=F KetDBF=F FulRan=T
         Omega=  0.000000  0.000000  1.000000  0.000000  0.000000 ICntrl=     500 IOpCl=  0
         NMat0=    1 NMatS0=    1 NMatT0=    0 NMatD0=    1 NMtDS0=    0 NMtDT0=    0
         I1Cent=           0 NGrid=           0.
 Petite list used in FoFCou.
 Iteration   1 EE= -115.680877000049                                    Grad=6.848D-01
 Gradient too large for Newton-Raphson -- use scaled steepest descent instead.
     ILin= 1 X=0.000D+00 Y=-1.156808770000D+02 DE= 0.00D+00
 FoFJK:  IHMeth= 1 ICntrl=     0 DoSepK=T KAlg= 1 I1Cent= 0 FoldK=F
     ILin= 2 X=3.000D-01 Y=-1.156993811261D+02 DE=-1.85D-02
 FoFJK:  IHMeth= 1 ICntrl=     0 DoSepK=T KAlg= 1 I1Cent= 0 FoldK=F
     ILin= 3 X=4.243D-01 Y=-1.157034892198D+02 DE=-2.26D-02
 FoFJK:  IHMeth= 1 ICntrl=     0 DoSepK=T KAlg= 1 I1Cent= 0 FoldK=F
     ILin= 4 X=6.000D-01 Y=-1.157057672911D+02 DE=-2.49D-02
 FoFJK:  IHMeth= 1 ICntrl=     0 DoSepK=T KAlg= 1 I1Cent= 0 FoldK=F
     ILin= 5 X=8.485D-01 Y=-1.157019796159D+02 DE=-2.11D-02
     An  expanding polynomial of degree  5 produced  0.6093
 FoFJK:  IHMeth= 1 ICntrl=     0 DoSepK=T KAlg= 1 I1Cent= 0 FoldK=F
 Iteration   2 EE= -115.705773047390     Delta-E=       -0.024896047342 Grad=2.404D-01
 Gradient too large for Newton-Raphson -- use scaled steepest descent instead.
     ILin= 1 X=0.000D+00 Y=-1.157057730474D+02 DE= 0.00D+00
 FoFJK:  IHMeth= 1 ICntrl=     0 DoSepK=T KAlg= 1 I1Cent= 0 FoldK=F
     ILin= 2 X=6.093D-01 Y=-1.157090594092D+02 DE=-3.29D-03
 FoFJK:  IHMeth= 1 ICntrl=     0 DoSepK=T KAlg= 1 I1Cent= 0 FoldK=F
     ILin= 3 X=8.617D-01 Y=-1.157086372866D+02 DE=-2.86D-03
     An  expanding polynomial of degree  3 produced  0.6335
 FoFJK:  IHMeth= 1 ICntrl=     0 DoSepK=T KAlg= 1 I1Cent= 0 FoldK=F
 Iteration   3 EE= -115.709064261862     Delta-E=       -0.003291214471 Grad=8.622D-02
 Gradient too large for Newton-Raphson -- use scaled steepest descent instead.
     ILin= 1 X=0.000D+00 Y=-1.157090642619D+02 DE= 0.00D+00
 FoFJK:  IHMeth= 1 ICntrl=     0 DoSepK=T KAlg= 1 I1Cent= 0 FoldK=F
     ILin= 2 X=6.335D-01 Y=-1.157095667246D+02 DE=-5.02D-04
 FoFJK:  IHMeth= 1 ICntrl=     0 DoSepK=T KAlg= 1 I1Cent= 0 FoldK=F
     ILin= 3 X=8.959D-01 Y=-1.157094846533D+02 DE=-4.20D-04
     An  expanding polynomial of degree  3 produced  0.6380
 FoFJK:  IHMeth= 1 ICntrl=     0 DoSepK=T KAlg= 1 I1Cent= 0 FoldK=F
 Iteration   4 EE= -115.709566746442     Delta-E=       -0.000502484580 Grad=2.876D-02
 Gradient too large for Newton-Raphson -- use scaled steepest descent instead.
     ILin= 1 X=0.000D+00 Y=-1.157095667464D+02 DE= 0.00D+00
 FoFJK:  IHMeth= 1 ICntrl=     0 DoSepK=T KAlg= 1 I1Cent= 0 FoldK=F
     ILin= 2 X=6.380D-01 Y=-1.157096547285D+02 DE=-8.80D-05
 FoFJK:  IHMeth= 1 ICntrl=     0 DoSepK=T KAlg= 1 I1Cent= 0 FoldK=F
     ILin= 3 X=9.023D-01 Y=-1.157096427564D+02 DE=-7.60D-05
     An  expanding polynomial of degree  3 produced  0.6586
 FoFJK:  IHMeth= 1 ICntrl=     0 DoSepK=T KAlg= 1 I1Cent= 0 FoldK=F
 Iteration   5 EE= -115.709654814629     Delta-E=       -0.000088068187 Grad=1.025D-02
 Gradient too large for Newton-Raphson -- use scaled steepest descent instead.
     ILin= 1 X=0.000D+00 Y=-1.157096548146D+02 DE= 0.00D+00
 FoFJK:  IHMeth= 1 ICntrl=     0 DoSepK=T KAlg= 1 I1Cent= 0 FoldK=F
     ILin= 2 X=6.586D-01 Y=-1.157096722635D+02 DE=-1.74D-05
 FoFJK:  IHMeth= 1 ICntrl=     0 DoSepK=T KAlg= 1 I1Cent= 0 FoldK=F
     ILin= 3 X=9.314D-01 Y=-1.157096694291D+02 DE=-1.46D-05
     An  expanding polynomial of degree  3 produced  0.6638
 FoFJK:  IHMeth= 1 ICntrl=     0 DoSepK=T KAlg= 1 I1Cent= 0 FoldK=F
 Iteration   6 EE= -115.709672264579     Delta-E=       -0.000017449949 Grad=3.647D-03
 QCNR:  CnvC1=2.91D-09 CnvC2=2.91D-08
 LinEq1:  Iter=  0 NonCon=     1 RMS=7.92D-05 Max=4.46D-04
 AX will form     1 AO Fock derivatives at one time.
 FoFJK:  IHMeth= 1 ICntrl=     0 DoSepK=T KAlg= 1 I1Cent= 0 FoldK=F
 LinEq1:  Iter=  1 NonCon=     1 RMS=6.27D-05 Max=6.34D-04
 FoFJK:  IHMeth= 1 ICntrl=     0 DoSepK=T KAlg= 1 I1Cent= 0 FoldK=F
 LinEq1:  Iter=  2 NonCon=     1 RMS=6.46D-06 Max=4.57D-05
 FoFJK:  IHMeth= 1 ICntrl=     0 DoSepK=T KAlg= 1 I1Cent= 0 FoldK=F
 LinEq1:  Iter=  3 NonCon=     1 RMS=8.23D-07 Max=5.76D-06
 FoFJK:  IHMeth= 1 ICntrl=     0 DoSepK=T KAlg= 1 I1Cent= 0 FoldK=F
 LinEq1:  Iter=  4 NonCon=     1 RMS=1.06D-07 Max=8.45D-07
 FoFJK:  IHMeth= 1 ICntrl=     0 DoSepK=T KAlg= 1 I1Cent= 0 FoldK=F
 LinEq1:  Iter=  5 NonCon=     1 RMS=1.49D-08 Max=8.23D-08
 FoFJK:  IHMeth= 1 ICntrl=     0 DoSepK=T KAlg= 1 I1Cent= 0 FoldK=F
 LinEq1:  Iter=  6 NonCon=     1 RMS=3.04D-09 Max=1.81D-08
 FoFJK:  IHMeth= 1 ICntrl=     0 DoSepK=T KAlg= 1 I1Cent= 0 FoldK=F
 LinEq1:  Iter=  7 NonCon=     0 RMS=6.65D-10 Max=3.54D-09
 Linear equations converged to 2.909D-09 2.909D-08 after     7 iterations.
 Angle between quadratic step and gradient=  56.47 degrees.
     ILin= 1 X=0.000D+00 Y=-1.157096722646D+02 DE= 0.00D+00
 FoFJK:  IHMeth= 1 ICntrl=     0 DoSepK=T KAlg= 1 I1Cent= 0 FoldK=F
     ILin= 2 X=1.000D+00 Y=-1.157096773269D+02 DE=-5.06D-06
 FoFJK:  IHMeth= 1 ICntrl=     0 DoSepK=T KAlg= 1 I1Cent= 0 FoldK=F
     ILin= 3 X=1.414D+00 Y=-1.157096764553D+02 DE=-4.19D-06
     An  expanding polynomial of degree  3 produced  0.9995
 FoFJK:  IHMeth= 1 ICntrl=     0 DoSepK=T KAlg= 1 I1Cent= 0 FoldK=F
 Iteration   7 EE= -115.709677326919     Delta-E=       -0.000005062340 Grad=1.880D-06
 QCNR:  CnvC1=1.88D-11 CnvC2=1.88D-10
 LinEq1:  Iter=  0 NonCon=     1 RMS=4.32D-08 Max=3.70D-07
 FoFJK:  IHMeth= 1 ICntrl=     0 DoSepK=T KAlg= 1 I1Cent= 0 FoldK=F
 LinEq1:  Iter=  1 NonCon=     1 RMS=1.69D-08 Max=9.99D-08
 FoFJK:  IHMeth= 1 ICntrl=     0 DoSepK=T KAlg= 1 I1Cent= 0 FoldK=F
 LinEq1:  Iter=  2 NonCon=     1 RMS=4.14D-09 Max=2.42D-08
 FoFJK:  IHMeth= 1 ICntrl=     0 DoSepK=T KAlg= 1 I1Cent= 0 FoldK=F
 LinEq1:  Iter=  3 NonCon=     1 RMS=1.74D-09 Max=1.14D-08
 FoFJK:  IHMeth= 1 ICntrl=     0 DoSepK=T KAlg= 1 I1Cent= 0 FoldK=F
 LinEq1:  Iter=  4 NonCon=     1 RMS=7.38D-10 Max=4.37D-09
 FoFJK:  IHMeth= 1 ICntrl=     0 DoSepK=T KAlg= 1 I1Cent= 0 FoldK=F
 LinEq1:  Iter=  5 NonCon=     1 RMS=1.95D-10 Max=1.36D-09
 FoFJK:  IHMeth= 1 ICntrl=     0 DoSepK=T KAlg= 1 I1Cent= 0 FoldK=F
 LinEq1:  Iter=  6 NonCon=     1 RMS=2.78D-11 Max=1.99D-10
 FoFJK:  IHMeth= 1 ICntrl=     0 DoSepK=T KAlg= 1 I1Cent= 0 FoldK=F
 LinEq1:  Iter=  7 NonCon=     0 RMS=4.17D-12 Max=2.36D-11
 Linear equations converged to 1.880D-11 1.880D-10 after     7 iterations.
 Angle between quadratic step and gradient=  57.35 degrees.
     ILin= 1 X=0.000D+00 Y=-1.157096773269D+02 DE= 0.00D+00
 FoFJK:  IHMeth= 1 ICntrl=     0 DoSepK=T KAlg= 1 I1Cent= 0 FoldK=F
     ILin= 2 X=1.000D+00 Y=-1.157096773269D+02 DE=-1.62D-12
 Iteration   8 EE= -115.709677326920     Delta-E=       -0.000000000002 Grad=1.586D-10
 Rotation gradient small -- convergence achieved.
 SCF Done:  E(RwB97XD) =  -115.709677327     a.u. after    8 cycles
            Convg  =    0.1586D-09                    36 Fock formations.
              S**2 =  0.0000                  -V/T =  2.0036
 Leave Link  508 at Fri Jan  8 13:56:46 2021, MaxMem=13421772800 cpu:      77.0
 (Enter /opt/g09gh/gaussian/g09/l601.exe)
 Copying SCF densities to generalized density rwf, IOpCl= 0 IROHF=0.

 **********************************************************************

            Population analysis using the SCF density.

 **********************************************************************

 Orbital symmetries:
       Occupied  (A) (A) (A) (A) (A) (A) (A) (A) (A)
       Virtual   (A) (A) (A) (A) (A) (A) (A) (A) (A) (A) (A) (A)
                 (A) (A) (A) (A) (A) (A) (A) (A) (A) (A) (A) (A)
                 (A) (A) (A) (A) (A) (A) (A) (A) (A) (A) (A) (A)
                 (A) (A) (A) (A) (A) (A) (A) (A) (A) (A) (A)
 The electronic state is 1-A.
 Alpha  occ. eigenvalues --  -19.24916 -10.32658  -1.12577  -0.78242  -0.60302
 Alpha  occ. eigenvalues --   -0.53108  -0.51644  -0.42198  -0.36387
 Alpha virt. eigenvalues --    0.06360   0.08346   0.10423   0.10743   0.19200
 Alpha virt. eigenvalues --    0.22304   0.23497   0.24324   0.27701   0.28535
 Alpha virt. eigenvalues --    0.29140   0.33133   0.36957   0.49420   0.49751
 Alpha virt. eigenvalues --    0.56564   0.61196   0.67236   0.70064   0.74043
 Alpha virt. eigenvalues --    0.97196   1.10377   1.13869   1.14153   1.38035
 Alpha virt. eigenvalues --    1.42309   1.59185   1.64829   1.68309   1.82090
 Alpha virt. eigenvalues --    2.26294   2.47454   2.50253   2.52369   2.86872
 Alpha virt. eigenvalues --    2.93239   3.02054   3.11123   3.25155   3.25811
 Alpha virt. eigenvalues --    3.42963   3.95727   5.08760   5.17772   5.47686
 Alpha virt. eigenvalues --   23.59425  49.97606
          Condensed to atoms (all electrons):
              1          2          3          4          5          6
     1  O    8.256112   0.121358  -0.056868  -0.056871  -0.043125   0.204757
     2  C    0.121358   5.351099   0.392333   0.392337   0.388734  -0.012633
     3  H   -0.056868   0.392333   0.498859  -0.045191  -0.033395   0.002910
     4  H   -0.056871   0.392337  -0.045191   0.498863  -0.033395   0.002910
     5  H   -0.043125   0.388734  -0.033395  -0.033395   0.514467  -0.009232
     6  H    0.204757  -0.012633   0.002910   0.002910  -0.009232   0.451342
 Mulliken atomic charges:
              1
     1  O   -0.425363
     2  C   -0.633228
     3  H    0.241351
     4  H    0.241348
     5  H    0.215945
     6  H    0.359946
 Sum of Mulliken atomic charges =   0.00000
 Mulliken charges with hydrogens summed into heavy atoms:
              1
     1  O   -0.065417
     2  C    0.065417
 Sum of Mulliken charges with hydrogens summed into heavy atoms =   0.00000
 Electronic spatial extent (au):  <R**2>=             85.1427
 Charge=              0.0000 electrons
 Dipole moment (field-independent basis, Debye):
    X=              0.9697    Y=              1.8777    Z=             -0.0003  Tot=              2.1133
 Quadrupole moment (field-independent basis, Debye-Ang):
   XX=            -13.0960   YY=            -12.3648   ZZ=            -13.8091
   XY=             -2.4691   XZ=              0.0004   YZ=             -0.0002
 Traceless Quadrupole moment (field-independent basis, Debye-Ang):
   XX=             -0.0060   YY=              0.7252   ZZ=             -0.7192
   XY=             -2.4691   XZ=              0.0004   YZ=             -0.0002
 Octapole moment (field-independent basis, Debye-Ang**2):
  XXX=             -3.9453  YYY=              2.1562  ZZZ=              0.0001  XYY=             -1.7916
  XXY=              2.8742  XXZ=             -0.0004  XZZ=              0.1972  YZZ=             -0.2916
  YYZ=             -0.0003  XYZ=              0.0003
 Hexadecapole moment (field-independent basis, Debye-Ang**3):
 XXXX=            -63.3660 YYYY=            -20.4708 ZZZZ=            -20.4161 XXXY=             -4.4244
 XXXZ=              0.0010 YYYX=             -1.7539 YYYZ=              0.0000 ZZZX=              0.0010
 ZZZY=              0.0002 XXYY=            -13.3160 XXZZ=            -14.4146 YYZZ=             -7.0886
 XXYZ=             -0.0001 YYXZ=              0.0001 ZZXY=             -1.2745
 N-N= 4.014170192748D+01 E-N=-3.519362286456D+02  KE= 1.152910136818D+02
 No NMR shielding tensors so no spin-rotation constants.
 Leave Link  601 at Fri Jan  8 13:56:46 2021, MaxMem=13421772800 cpu:       0.9
 (Enter /opt/g09gh/gaussian/g09/l607.exe)
 Leave Link  607 at Fri Jan  8 13:56:59 2021, MaxMem=13421772800 cpu:      97.9
 (Enter /opt/g09gh/gaussian/g09/l9999.exe)
 1\1\GINC-NODE37\SP\RwB97XD\6-311+G(d)\C1H4O1\BDW2292\08-Jan-2021\0\\#P
  wB97XD/6-311+G* SP SCF=(qc,maxcycle=800) Pop=NBORead MaxDisk=200GB\\m
 ethanol Rotatable Bond SP Calculation on node37.bme.utexas.edu\\0,1\O,
 0,-0.754564,-0.114807,0.000044\C,0,0.66175,0.002891,-0.000013\H,0,1.09
 2104,-0.452082,-0.904486\H,0,1.092134,-0.451847,0.904578\H,0,0.95887,1
 .063207,-0.000148\H,0,-1.138344,0.776514,-0.00009\\Version=EM64L-G09Re
 vA.02\State=1-A\HF=-115.7096773\RMSD=0.000e+00\Dipole=0.3928326,0.7327
 761,-0.0001285\Quadrupole=-0.0609383,0.5956204,-0.5346821,-1.8264478,0
 .0002668,-0.000131\PG=C01 [X(C1H4O1)]\\@


 MICRO CREDO - NEVER TRUST A COMPUTER BIGGER
               BIGGER THAN YOU CAN LIFT.
 Job cpu time:  0 days  0 hours  3 minutes  8.1 seconds.
 File lengths (MBytes):  RWF=      5 Int=      0 D2E=      0 Chk=      1 Scr=      1
 Normal termination of Gaussian 09 at Fri Jan  8 13:57:06 2021.
