 Entering Gaussian System, Link 0=/opt/g09gh/gaussian/g09/g09
 Input=methanol-opt-2_2-1-152.com
 Output=methanol-opt-2_2-1-152.log
 Initial command:
 /opt/g09gh/gaussian/g09/l1.exe /scratch/bdw2292/Gau-methanol/Gau-3320.inp -scrdir=/scratch/bdw2292/Gau-methanol/
 Entering Link 1 = /opt/g09gh/gaussian/g09/l1.exe PID=      3321.
  
 Copyright (c) 1988,1990,1992,1993,1995,1998,2003,2009, Gaussian, Inc.
                  All Rights Reserved.
  
 This is part of the Gaussian(R) 09 program.  It is based on
 the Gaussian(R) 03 system (copyright 2003, Gaussian, Inc.),
 the Gaussian(R) 98 system (copyright 1998, Gaussian, Inc.),
 the Gaussian(R) 94 system (copyright 1995, Gaussian, Inc.),
 the Gaussian 92(TM) system (copyright 1992, Gaussian, Inc.),
 the Gaussian 90(TM) system (copyright 1990, Gaussian, Inc.),
 the Gaussian 88(TM) system (copyright 1988, Gaussian, Inc.),
 the Gaussian 86(TM) system (copyright 1986, Carnegie Mellon
 University), and the Gaussian 82(TM) system (copyright 1983,
 Carnegie Mellon University). Gaussian is a federally registered
 trademark of Gaussian, Inc.
  
 This software contains proprietary and confidential information,
 including trade secrets, belonging to Gaussian, Inc.
  
 This software is provided under written license and may be
 used, copied, transmitted, or stored only in accord with that
 written license.
  
 The following legend is applicable only to US Government
 contracts under FAR:
  
                    RESTRICTED RIGHTS LEGEND
  
 Use, reproduction and disclosure by the US Government is
 subject to restrictions as set forth in subparagraphs (a)
 and (c) of the Commercial Computer Software - Restricted
 Rights clause in FAR 52.227-19.
  
 Gaussian, Inc.
 340 Quinnipiac St., Bldg. 40, Wallingford CT 06492
  
  
 ---------------------------------------------------------------
 Warning -- This program may not be used in any manner that
 competes with the business of Gaussian, Inc. or will provide
 assistance to any competitor of Gaussian, Inc.  The licensee
 of this program is prohibited from giving any competitor of
 Gaussian, Inc. access to this program.  By using this program,
 the user acknowledges that Gaussian, Inc. is engaged in the
 business of creating and licensing software in the field of
 computational chemistry and represents and warrants to the
 licensee that it is not a competitor of Gaussian, Inc. and that
 it will not use this program in any manner prohibited above.
 ---------------------------------------------------------------
  

 Cite this work as:
 Gaussian 09, Revision A.02,
 M. J. Frisch, G. W. Trucks, H. B. Schlegel, G. E. Scuseria, 
 M. A. Robb, J. R. Cheeseman, G. Scalmani, V. Barone, B. Mennucci, 
 G. A. Petersson, H. Nakatsuji, M. Caricato, X. Li, H. P. Hratchian, 
 A. F. Izmaylov, J. Bloino, G. Zheng, J. L. Sonnenberg, M. Hada, 
 M. Ehara, K. Toyota, R. Fukuda, J. Hasegawa, M. Ishida, T. Nakajima, 
 Y. Honda, O. Kitao, H. Nakai, T. Vreven, J. A. Montgomery, Jr., 
 J. E. Peralta, F. Ogliaro, M. Bearpark, J. J. Heyd, E. Brothers, 
 K. N. Kudin, V. N. Staroverov, R. Kobayashi, J. Normand, 
 K. Raghavachari, A. Rendell, J. C. Burant, S. S. Iyengar, J. Tomasi, 
 M. Cossi, N. Rega, J. M. Millam, M. Klene, J. E. Knox, J. B. Cross, 
 V. Bakken, C. Adamo, J. Jaramillo, R. Gomperts, R. E. Stratmann, 
 O. Yazyev, A. J. Austin, R. Cammi, C. Pomelli, J. W. Ochterski, 
 R. L. Martin, K. Morokuma, V. G. Zakrzewski, G. A. Voth, 
 P. Salvador, J. J. Dannenberg, S. Dapprich, A. D. Daniels, 
 O. Farkas, J. B. Foresman, J. V. Ortiz, J. Cioslowski, 
 and D. J. Fox, Gaussian, Inc., Wallingford CT, 2009.
 
 ******************************************
 Gaussian 09:  EM64L-G09RevA.02 11-Jun-2009
                 8-Jan-2021 
 ******************************************
 %RWF=/scratch/bdw2292/Gau-methanol/,200GB
 %Nosave
 %Chk=methanol-opt-2_2-1-152.chk
 %Mem=100GB
 %Nproc=8
 Will use up to    8 processors via shared memory.
 ------------------------------------------------------------------
 #P opt=(ModRedundant,maxcycle=2,Loose) wB97XD/6-31G* MaxDisk=200GB
 ------------------------------------------------------------------
 1/6=2,7=-1,14=-1,18=120,19=15,26=3,38=1/1,3;
 2/9=110,12=2,17=6,18=5,40=1/2;
 3/5=1,6=6,7=1,11=2,16=1,25=1,30=1,71=1,74=-58/1,2,3;
 4//1;
 5/5=2,38=5/2;
 6/7=2,8=2,9=2,10=2,28=1/1;
 7//1,2,3,16;
 1/6=2,7=-1,14=-1,18=20,19=15/3(2);
 2/9=110/2;
 99//99;
 2/9=110/2;
 3/5=1,6=6,7=1,11=2,16=1,25=1,30=1,71=1,74=-58/1,2,3;
 4/5=5,16=3/1;
 5/5=2,38=5/2;
 7//1,2,3,16;
 1/6=2,7=-1,14=-1,18=20,19=15/3(-5);
 2/9=110/2;
 6/7=2,8=2,9=2,10=2,19=2,28=1/1;
 99/9=1/99;
 Leave Link    1 at Fri Jan  8 13:39:19 2021, MaxMem=13421772800 cpu:       0.3
 (Enter /opt/g09gh/gaussian/g09/l101.exe)
 -------------------------------------------------------------
 methanol Rotatable Bond Optimization on node37.bme.utexas.edu
 -------------------------------------------------------------
 Symbolic Z-matrix:
 Charge =  0 Multiplicity = 1
 O                     0.75767  -0.1214    0.00583 
 C                    -0.67788   0.01654  -0.00771 
 H                    -1.09694  -0.86389  -0.4656 
 H                    -1.02152   0.91241  -0.5139 
 H                    -1.07692   0.08851   1.00018 
 H                     1.20131   0.73492  -0.02101 
 
 NAtoms=      6 NQM=      6 NQMF=      0 NMic=      0 NMicF=      0 NTot=      6.
 The following ModRedundant input section has been read:
 D    6    1    2    3 F                                                       
 D    6    1    2    4 F                                                       
 D    6    1    2    5 F                                                       
                    Isotopes and Nuclear Properties:
 (Nuclear quadrupole moments (NQMom) in fm**2, nuclear magnetic moments (NMagM)
  in nuclear magnetons)

  Atom         1           2           3           4           5           6
 IAtWgt=          16          12           1           1           1           1
 AtmWgt=  15.9949146  12.0000000   1.0078250   1.0078250   1.0078250   1.0078250
 NucSpn=           0           0           1           1           1           1
 AtZEff=   0.0000000   0.0000000   0.0000000   0.0000000   0.0000000   0.0000000
 NQMom=    0.0000000   0.0000000   0.0000000   0.0000000   0.0000000   0.0000000
 NMagM=    0.0000000   0.0000000   2.7928460   2.7928460   2.7928460   2.7928460
 Leave Link  101 at Fri Jan  8 13:39:19 2021, MaxMem=13421772800 cpu:       1.0
 (Enter /opt/g09gh/gaussian/g09/l103.exe)

 GradGradGradGradGradGradGradGradGradGradGradGradGradGradGradGradGradGrad
 Berny optimization.
 Initialization pass.
                           ----------------------------
                           !    Initial Parameters    !
                           ! (Angstroms and Degrees)  !
 --------------------------                            --------------------------
 ! Name  Definition              Value          Derivative Info.                !
 --------------------------------------------------------------------------------
 ! R1    R(1,2)                  1.4422         estimate D2E/DX2                !
 ! R2    R(1,6)                  0.9648         estimate D2E/DX2                !
 ! R3    R(2,3)                  1.0772         estimate D2E/DX2                !
 ! R4    R(2,4)                  1.0849         estimate D2E/DX2                !
 ! R5    R(2,5)                  1.0864         estimate D2E/DX2                !
 ! A1    A(2,1,6)              111.873          estimate D2E/DX2                !
 ! A2    A(1,2,3)              108.2422         estimate D2E/DX2                !
 ! A3    A(1,2,4)              113.4944         estimate D2E/DX2                !
 ! A4    A(1,2,5)              111.2988         estimate D2E/DX2                !
 ! A5    A(3,2,4)              110.6938         estimate D2E/DX2                !
 ! A6    A(3,2,5)              107.7943         estimate D2E/DX2                !
 ! A7    A(4,2,5)              105.1784         estimate D2E/DX2                !
 ! D1    D(6,1,2,3)            151.676          Frozen                          !
 ! D2    D(6,1,2,4)             28.3787         Frozen                          !
 ! D3    D(6,1,2,5)            -90.0389         Frozen                          !
 --------------------------------------------------------------------------------
 Trust Radius=3.00D-01 FncErr=1.00D-07 GrdErr=1.00D-06
 Number of steps in this run=   2 maximum allowed number of steps= 100.
 GradGradGradGradGradGradGradGradGradGradGradGradGradGradGradGradGradGrad

 Leave Link  103 at Fri Jan  8 13:39:19 2021, MaxMem=13421772800 cpu:       0.1
 (Enter /opt/g09gh/gaussian/g09/l202.exe)
                          Input orientation:                          
 ---------------------------------------------------------------------
 Center     Atomic      Atomic             Coordinates (Angstroms)
 Number     Number       Type             X           Y           Z
 ---------------------------------------------------------------------
      1          8           0        0.757670   -0.121400    0.005830
      2          6           0       -0.677880    0.016540   -0.007710
      3          1           0       -1.096940   -0.863890   -0.465600
      4          1           0       -1.021520    0.912410   -0.513900
      5          1           0       -1.076920    0.088510    1.000180
      6          1           0        1.201310    0.734920   -0.021010
 ---------------------------------------------------------------------
                    Distance matrix (angstroms):
                    1          2          3          4          5
     1  O    0.000000
     2  C    1.442226   0.000000
     3  H    2.052588   1.077233   0.000000
     4  H    2.122357   1.084850   1.778556   0.000000
     5  H    2.097264   1.086395   1.748135   1.724621   0.000000
     6  H    0.964791   2.011865   2.834750   2.283729   2.578955
                    6
     6  H    0.000000
 Stoichiometry    CH4O
 Framework group  C1[X(CH4O)]
 Deg. of freedom    12
 Full point group                 C1      NOp   1
 Largest Abelian subgroup         C1      NOp   1
 Largest concise Abelian subgroup C1      NOp   1
                         Standard orientation:                         
 ---------------------------------------------------------------------
 Center     Atomic      Atomic             Coordinates (Angstroms)
 Number     Number       Type             X           Y           Z
 ---------------------------------------------------------------------
      1          8           0        0.757669   -0.121401    0.005827
      2          6           0       -0.677881    0.016542   -0.007713
      3          1           0       -1.096942   -0.863888   -0.465603
      4          1           0       -1.021519    0.912412   -0.513903
      5          1           0       -1.076920    0.088512    1.000177
      6          1           0        1.201311    0.734918   -0.021013
 ---------------------------------------------------------------------
 Rotational constants (GHZ):    132.2593118     24.0783076     23.1596205
 Leave Link  202 at Fri Jan  8 13:39:19 2021, MaxMem=13421772800 cpu:       0.0
 (Enter /opt/g09gh/gaussian/g09/l301.exe)
 Standard basis: 6-31G(d) (6D, 7F)
 Ernie: Thresh=  0.10000D-02 Tol=  0.10000D-05 Strict=F.
 There are    38 symmetry adapted basis functions of A   symmetry.
 Integral buffers will be    131072 words long.
 Raffenetti 2 integral format.
 Two-electron integral symmetry is turned on.
    38 basis functions,    72 primitive gaussians,    38 cartesian basis functions
     9 alpha electrons        9 beta electrons
       nuclear repulsion energy        39.9811834194 Hartrees.
 IExCor= 4639 DFT=T Ex+Corr=wB97XD ExCW=0 ScaHFX=  1.000000
 ScaDFX=  1.000000  1.000000  1.000000  1.000000 ScalE2=  1.000000  1.000000
 IRadAn=      0 IRanWt=     -1 IRanGd=            0 ICorTp=0
  HFx wShort=  0.000000 wLong=  0.200000 cFull=  0.222036 cShort=  0.000000 cLong=  0.777964
  DFx wShort=  0.000000 wLong=  0.200000 cFull=  0.000000 cShort=  0.000000 cLong=  1.000000
 NAtoms=    6 NActive=    6 NUniq=    6 SFac= 7.50D-01 NAtFMM=   80 NAOKFM=F Big=F
 R6Disp: Dispersion energy =        -0.0008069726 Hartrees.
 Nuclear repulsion after empirical dispersion term =       39.9803764468 Hartrees.
 Leave Link  301 at Fri Jan  8 13:39:19 2021, MaxMem=13421772800 cpu:       0.5
 (Enter /opt/g09gh/gaussian/g09/l302.exe)
 NPDir=0 NMtPBC=     1 NCelOv=     1 NCel=       1 NClECP=     1 NCelD=      1
         NCelK=      1 NCelE2=     1 NClLst=     1 CellRange=     0.0.
 One-electron integrals computed using PRISM.
 NBasis=    38 RedAO= T  NBF=    38
 NBsUse=    38 1.00D-06 NBFU=    38
 Precomputing XC quadrature grid using
 IXCGrd= 2 IRadAn=           0 IRanWt=          -1 IRanGd=           0 AccXCQ= 1.00D-10.
 NRdTot=     369 NPtTot=       46428 NUsed=       49102 NTot=       49134
 NSgBfM=    38    38    38    38    38 NAtAll=     6     6.
 Leave Link  302 at Fri Jan  8 13:39:19 2021, MaxMem=13421772800 cpu:       1.2
 (Enter /opt/g09gh/gaussian/g09/l303.exe)
 DipDrv:  MaxL=1.
 Leave Link  303 at Fri Jan  8 13:39:20 2021, MaxMem=13421772800 cpu:       0.3
 (Enter /opt/g09gh/gaussian/g09/l401.exe)
 Harris functional with IExCor= 4639 diagonalized for initial guess.
 ExpMin= 1.61D-01 ExpMax= 5.48D+03 ExpMxC= 8.25D+02 IAcc=1 IRadAn=         1 AccDes= 0.00D+00
 HarFok:  IExCor= 4639 AccDes= 0.00D+00 IRadAn=         1 IDoV= 1
 ScaDFX=  1.000000  1.000000  1.000000  1.000000
 FoFCou: FMM=F IPFlag=           0 FMFlag=      100000 FMFlg1=           0
         NFxFlg=           0 DoJE=T BraDBF=F KetDBF=T FulRan=T
         Omega=  0.000000  0.000000  1.000000  0.000000  0.000000 ICntrl=     500 IOpCl=  0
         NMat0=    1 NMatS0=    1 NMatT0=    0 NMatD0=    1 NMtDS0=    0 NMtDT0=    0
         I1Cent=           4 NGrid=           0.
 Petite list used in FoFCou.
 Harris En= -110.932224966747    
 Initial guess orbital symmetries:
       Occupied  (A) (A) (A) (A) (A) (A) (A) (A) (A)
       Virtual   (A) (A) (A) (A) (A) (A) (A) (A) (A) (A) (A) (A)
                 (A) (A) (A) (A) (A) (A) (A) (A) (A) (A) (A) (A)
                 (A) (A) (A) (A) (A)
 The electronic state of the initial guess is 1-A.
 Leave Link  401 at Fri Jan  8 13:39:20 2021, MaxMem=13421772800 cpu:       1.3
 (Enter /opt/g09gh/gaussian/g09/l502.exe)
 Closed shell SCF:
 Requested convergence on RMS density matrix=1.00D-08 within 128 cycles.
 Requested convergence on MAX density matrix=1.00D-06.
 Requested convergence on             energy=1.00D-06.
 No special actions if energy rises.
 Using DIIS extrapolation, IDIIS=  1040.
 Integral symmetry usage will be decided dynamically.
        49035 words used for storage of precomputed grid.
 IEnd=       72111 IEndB=       72111 NGot= 13421772800 MDV= 13421718812
 LenX= 13421718812 LenY= 13421716927
 Fock matrices will be formed incrementally for  20 cycles.
 Integral accuracy reduced to 1.0D-05 until final iterations.

 Cycle   1  Pass 0  IDiag  1:
 FoFJK:  IHMeth= 1 ICntrl=     0 DoSepK=T KAlg= 1 I1Cent= 0 FoldK=F
 FoFCou: FMM=F IPFlag=           0 FMFlag=      100000 FMFlg1=           0
         NFxFlg=           0 DoJE=T BraDBF=F KetDBF=F FulRan=T
         Omega=  0.000000  0.000000  1.000000  0.000000  0.000000 ICntrl=     500 IOpCl=  0
         NMat0=    1 NMatS0=    1 NMatT0=    0 NMatD0=    1 NMtDS0=    0 NMtDT0=    0
         I1Cent=           0 NGrid=           0.
 Symmetry not used in FoFCou.
 E= -115.653039728811    
 DIIS: error= 5.06D-02 at cycle   1 NSaved=   1.
 NSaved= 1 IEnMin= 1 EnMin= -115.653039728811     IErMin= 1 ErrMin= 5.06D-02
 ErrMax= 5.06D-02 EMaxC= 1.00D-01 BMatC= 8.13D-02 BMatP= 8.13D-02
 IDIUse=3 WtCom= 4.94D-01 WtEn= 5.06D-01
 Coeff-Com:  0.100D+01
 Coeff-En:   0.100D+01
 Coeff:      0.100D+01
 Gap=     0.536 Goal=   None    Shift=    0.000
 GapD=    0.536 DampG=2.000 DampE=0.500 DampFc=1.0000 IDamp=-1.
 RMSDP=4.77D-03 MaxDP=4.30D-02              OVMax= 4.59D-02

 Cycle   2  Pass 0  IDiag  1:
 RMSU=  3.35D-03    CP:  1.01D+00
 FoFJK:  IHMeth= 1 ICntrl=     0 DoSepK=T KAlg= 1 I1Cent= 0 FoldK=F
 E= -115.666429409070     Delta-E=       -0.013389680258 Rises=F Damp=F
 DIIS: error= 1.27D-02 at cycle   2 NSaved=   2.
 NSaved= 2 IEnMin= 2 EnMin= -115.666429409070     IErMin= 2 ErrMin= 1.27D-02
 ErrMax= 1.27D-02 EMaxC= 1.00D-01 BMatC= 1.11D-02 BMatP= 8.13D-02
 IDIUse=3 WtCom= 8.73D-01 WtEn= 1.27D-01
 Coeff-Com:  0.198D+00 0.802D+00
 Coeff-En:   0.695D-01 0.931D+00
 Coeff:      0.182D+00 0.818D+00
 Gap=     0.505 Goal=   None    Shift=    0.000
 RMSDP=2.72D-03 MaxDP=3.58D-02 DE=-1.34D-02 OVMax= 3.40D-02

 Cycle   3  Pass 0  IDiag  1:
 RMSU=  1.53D-03    CP:  1.01D+00  6.53D-01
 FoFJK:  IHMeth= 1 ICntrl=     0 DoSepK=T KAlg= 1 I1Cent= 0 FoldK=F
 E= -115.670331304020     Delta-E=       -0.003901894950 Rises=F Damp=F
 DIIS: error= 1.03D-02 at cycle   3 NSaved=   3.
 NSaved= 3 IEnMin= 3 EnMin= -115.670331304020     IErMin= 3 ErrMin= 1.03D-02
 ErrMax= 1.03D-02 EMaxC= 1.00D-01 BMatC= 5.71D-03 BMatP= 1.11D-02
 IDIUse=3 WtCom= 8.97D-01 WtEn= 1.03D-01
 Coeff-Com:  0.751D-02 0.418D+00 0.574D+00
 Coeff-En:   0.000D+00 0.335D+00 0.665D+00
 Coeff:      0.674D-02 0.410D+00 0.583D+00
 Gap=     0.514 Goal=   None    Shift=    0.000
 RMSDP=1.23D-03 MaxDP=1.57D-02 DE=-3.90D-03 OVMax= 1.37D-02

 Cycle   4  Pass 0  IDiag  1:
 RMSU=  1.85D-04    CP:  1.01D+00  8.07D-01  5.60D-01
 FoFJK:  IHMeth= 1 ICntrl=     0 DoSepK=T KAlg= 1 I1Cent= 0 FoldK=F
 E= -115.674299132995     Delta-E=       -0.003967828975 Rises=F Damp=F
 DIIS: error= 5.62D-04 at cycle   4 NSaved=   4.
 NSaved= 4 IEnMin= 4 EnMin= -115.674299132995     IErMin= 4 ErrMin= 5.62D-04
 ErrMax= 5.62D-04 EMaxC= 1.00D-01 BMatC= 1.75D-05 BMatP= 5.71D-03
 IDIUse=3 WtCom= 9.94D-01 WtEn= 5.62D-03
 Coeff-Com:  0.157D-02 0.918D-01 0.152D+00 0.755D+00
 Coeff-En:   0.000D+00 0.000D+00 0.000D+00 0.100D+01
 Coeff:      0.157D-02 0.913D-01 0.151D+00 0.756D+00
 Gap=     0.511 Goal=   None    Shift=    0.000
 RMSDP=9.52D-05 MaxDP=1.10D-03 DE=-3.97D-03 OVMax= 1.20D-03

 Cycle   5  Pass 0  IDiag  1:
 RMSU=  5.47D-05    CP:  1.01D+00  8.07D-01  5.82D-01  8.87D-01
 FoFJK:  IHMeth= 1 ICntrl=     0 DoSepK=T KAlg= 1 I1Cent= 0 FoldK=F
 E= -115.674312686057     Delta-E=       -0.000013553062 Rises=F Damp=F
 DIIS: error= 1.62D-04 at cycle   5 NSaved=   5.
 NSaved= 5 IEnMin= 5 EnMin= -115.674312686057     IErMin= 5 ErrMin= 1.62D-04
 ErrMax= 1.62D-04 EMaxC= 1.00D-01 BMatC= 9.95D-07 BMatP= 1.75D-05
 IDIUse=3 WtCom= 9.98D-01 WtEn= 1.62D-03
 Coeff-Com: -0.361D-03 0.139D-02 0.999D-02 0.208D+00 0.781D+00
 Coeff-En:   0.000D+00 0.000D+00 0.000D+00 0.000D+00 0.100D+01
 Coeff:     -0.360D-03 0.139D-02 0.997D-02 0.208D+00 0.781D+00
 Gap=     0.511 Goal=   None    Shift=    0.000
 RMSDP=2.66D-05 MaxDP=2.88D-04 DE=-1.36D-05 OVMax= 2.65D-04

 Cycle   6  Pass 0  IDiag  1:
 RMSU=  1.11D-05    CP:  1.01D+00  8.09D-01  5.85D-01  9.59D-01  9.77D-01
 FoFJK:  IHMeth= 1 ICntrl=     0 DoSepK=T KAlg= 1 I1Cent= 0 FoldK=F
 E= -115.674313618386     Delta-E=       -0.000000932330 Rises=F Damp=F
 DIIS: error= 2.45D-05 at cycle   6 NSaved=   6.
 NSaved= 6 IEnMin= 6 EnMin= -115.674313618386     IErMin= 6 ErrMin= 2.45D-05
 ErrMax= 2.45D-05 EMaxC= 1.00D-01 BMatC= 3.52D-08 BMatP= 9.95D-07
 IDIUse=1 WtCom= 1.00D+00 WtEn= 0.00D+00
 Coeff-Com: -0.835D-04-0.897D-02-0.134D-01-0.346D-01 0.111D+00 0.946D+00
 Coeff:     -0.835D-04-0.897D-02-0.134D-01-0.346D-01 0.111D+00 0.946D+00
 Gap=     0.511 Goal=   None    Shift=    0.000
 RMSDP=1.02D-05 MaxDP=6.76D-05 DE=-9.32D-07 OVMax= 9.21D-05

 Cycle   7  Pass 0  IDiag  1:
 RMSU=  2.54D-06    CP:  1.01D+00  8.09D-01  5.86D-01  9.76D-01  1.08D+00
                    CP:  1.09D+00
 FoFJK:  IHMeth= 1 ICntrl=     0 DoSepK=T KAlg= 1 I1Cent= 0 FoldK=F
 E= -115.674313676597     Delta-E=       -0.000000058210 Rises=F Damp=F
 DIIS: error= 2.56D-06 at cycle   7 NSaved=   7.
 NSaved= 7 IEnMin= 7 EnMin= -115.674313676597     IErMin= 7 ErrMin= 2.56D-06
 ErrMax= 2.56D-06 EMaxC= 1.00D-01 BMatC= 4.73D-10 BMatP= 3.52D-08
 IDIUse=1 WtCom= 1.00D+00 WtEn= 0.00D+00
 Coeff-Com:  0.140D-04 0.761D-03 0.979D-03 0.885D-04-0.310D-01-0.777D-01
 Coeff-Com:  0.111D+01
 Coeff:      0.140D-04 0.761D-03 0.979D-03 0.885D-04-0.310D-01-0.777D-01
 Coeff:      0.111D+01
 Gap=     0.511 Goal=   None    Shift=    0.000
 RMSDP=1.80D-06 MaxDP=1.49D-05 DE=-5.82D-08 OVMax= 2.01D-05

 Initial convergence to 1.0D-05 achieved.  Increase integral accuracy.
 Cycle   8  Pass 1  IDiag  1:
 FoFJK:  IHMeth= 1 ICntrl=     0 DoSepK=T KAlg= 1 I1Cent= 0 FoldK=F
 E= -115.674047184277     Delta-E=        0.000266492320 Rises=F Damp=F
 DIIS: error= 1.12D-04 at cycle   1 NSaved=   1.
 NSaved= 1 IEnMin= 1 EnMin= -115.674047184277     IErMin= 1 ErrMin= 1.12D-04
 ErrMax= 1.12D-04 EMaxC= 1.00D-01 BMatC= 7.91D-07 BMatP= 7.91D-07
 IDIUse=3 WtCom= 9.99D-01 WtEn= 1.12D-03
 Coeff-Com:  0.100D+01
 Coeff-En:   0.100D+01
 Coeff:      0.100D+01
 Gap=     0.511 Goal=   None    Shift=    0.000
 RMSDP=1.80D-06 MaxDP=1.49D-05 DE= 2.66D-04 OVMax= 2.04D-04

 Cycle   9  Pass 1  IDiag  1:
 RMSU=  1.48D-05    CP:  1.00D+00
 FoFJK:  IHMeth= 1 ICntrl=     0 DoSepK=T KAlg= 1 I1Cent= 0 FoldK=F
 E= -115.674047847146     Delta-E=       -0.000000662869 Rises=F Damp=F
 DIIS: error= 3.17D-05 at cycle   2 NSaved=   2.
 NSaved= 2 IEnMin= 2 EnMin= -115.674047847146     IErMin= 2 ErrMin= 3.17D-05
 ErrMax= 3.17D-05 EMaxC= 1.00D-01 BMatC= 4.03D-08 BMatP= 7.91D-07
 IDIUse=1 WtCom= 1.00D+00 WtEn= 0.00D+00
 Coeff-Com:  0.946D-02 0.991D+00
 Coeff:      0.946D-02 0.991D+00
 Gap=     0.511 Goal=   None    Shift=    0.000
 RMSDP=7.57D-06 MaxDP=8.32D-05 DE=-6.63D-07 OVMax= 8.06D-05

 Cycle  10  Pass 1  IDiag  1:
 RMSU=  5.36D-06    CP:  1.00D+00  1.01D+00
 FoFJK:  IHMeth= 1 ICntrl=     0 DoSepK=T KAlg= 1 I1Cent= 0 FoldK=F
 E= -115.674047859365     Delta-E=       -0.000000012218 Rises=F Damp=F
 DIIS: error= 2.82D-05 at cycle   3 NSaved=   3.
 NSaved= 3 IEnMin= 3 EnMin= -115.674047859365     IErMin= 3 ErrMin= 2.82D-05
 ErrMax= 2.82D-05 EMaxC= 1.00D-01 BMatC= 3.69D-08 BMatP= 4.03D-08
 IDIUse=1 WtCom= 1.00D+00 WtEn= 0.00D+00
 Coeff-Com: -0.472D-01 0.508D+00 0.539D+00
 Coeff:     -0.472D-01 0.508D+00 0.539D+00
 Gap=     0.511 Goal=   None    Shift=    0.000
 RMSDP=2.96D-06 MaxDP=4.08D-05 DE=-1.22D-08 OVMax= 3.52D-05

 Cycle  11  Pass 1  IDiag  1:
 RMSU=  1.03D-06    CP:  1.00D+00  1.06D+00  6.86D-01
 FoFJK:  IHMeth= 1 ICntrl=     0 DoSepK=T KAlg= 1 I1Cent= 0 FoldK=F
 E= -115.674047884651     Delta-E=       -0.000000025287 Rises=F Damp=F
 DIIS: error= 2.36D-06 at cycle   4 NSaved=   4.
 NSaved= 4 IEnMin= 4 EnMin= -115.674047884651     IErMin= 4 ErrMin= 2.36D-06
 ErrMax= 2.36D-06 EMaxC= 1.00D-01 BMatC= 1.97D-10 BMatP= 3.69D-08
 IDIUse=1 WtCom= 1.00D+00 WtEn= 0.00D+00
 Coeff-Com: -0.698D-02 0.391D-01 0.655D-01 0.902D+00
 Coeff:     -0.698D-02 0.391D-01 0.655D-01 0.902D+00
 Gap=     0.511 Goal=   None    Shift=    0.000
 RMSDP=5.06D-07 MaxDP=5.84D-06 DE=-2.53D-08 OVMax= 5.87D-06

 Cycle  12  Pass 1  IDiag  1:
 RMSU=  2.97D-07    CP:  1.00D+00  1.06D+00  7.18D-01  1.10D+00
 FoFJK:  IHMeth= 1 ICntrl=     0 DoSepK=T KAlg= 1 I1Cent= 0 FoldK=F
 E= -115.674047884868     Delta-E=       -0.000000000217 Rises=F Damp=F
 DIIS: error= 9.57D-07 at cycle   5 NSaved=   5.
 NSaved= 5 IEnMin= 5 EnMin= -115.674047884868     IErMin= 5 ErrMin= 9.57D-07
 ErrMax= 9.57D-07 EMaxC= 1.00D-01 BMatC= 4.45D-11 BMatP= 1.97D-10
 IDIUse=1 WtCom= 1.00D+00 WtEn= 0.00D+00
 Coeff-Com:  0.847D-03-0.259D-01-0.228D-01 0.288D+00 0.760D+00
 Coeff:      0.847D-03-0.259D-01-0.228D-01 0.288D+00 0.760D+00
 Gap=     0.511 Goal=   None    Shift=    0.000
 RMSDP=1.91D-07 MaxDP=2.03D-06 DE=-2.17D-10 OVMax= 2.56D-06

 Cycle  13  Pass 1  IDiag  1:
 RMSU=  8.14D-08    CP:  1.00D+00  1.06D+00  7.28D-01  1.18D+00  8.99D-01
 FoFJK:  IHMeth= 1 ICntrl=     0 DoSepK=T KAlg= 1 I1Cent= 0 FoldK=F
 E= -115.674047884914     Delta-E=       -0.000000000046 Rises=F Damp=F
 DIIS: error= 2.06D-07 at cycle   6 NSaved=   6.
 NSaved= 6 IEnMin= 6 EnMin= -115.674047884914     IErMin= 6 ErrMin= 2.06D-07
 ErrMax= 2.06D-07 EMaxC= 1.00D-01 BMatC= 1.28D-12 BMatP= 4.45D-11
 IDIUse=1 WtCom= 1.00D+00 WtEn= 0.00D+00
 Coeff-Com:  0.689D-03-0.718D-02-0.813D-02-0.117D-01 0.127D+00 0.899D+00
 Coeff:      0.689D-03-0.718D-02-0.813D-02-0.117D-01 0.127D+00 0.899D+00
 Gap=     0.511 Goal=   None    Shift=    0.000
 RMSDP=5.46D-08 MaxDP=4.71D-07 DE=-4.57D-11 OVMax= 6.13D-07

 Cycle  14  Pass 1  IDiag  1:
 RMSU=  1.68D-08    CP:  1.00D+00  1.06D+00  7.31D-01  1.20D+00  9.78D-01
                    CP:  1.11D+00
 FoFJK:  IHMeth= 1 ICntrl=     0 DoSepK=T KAlg= 1 I1Cent= 0 FoldK=F
 E= -115.674047884916     Delta-E=       -0.000000000002 Rises=F Damp=F
 DIIS: error= 1.97D-08 at cycle   7 NSaved=   7.
 NSaved= 7 IEnMin= 7 EnMin= -115.674047884916     IErMin= 7 ErrMin= 1.97D-08
 ErrMax= 1.97D-08 EMaxC= 1.00D-01 BMatC= 3.09D-14 BMatP= 1.28D-12
 IDIUse=1 WtCom= 1.00D+00 WtEn= 0.00D+00
 Coeff-Com: -0.319D-04 0.961D-03 0.843D-03-0.117D-01-0.317D-01 0.106D-01
 Coeff-Com:  0.103D+01
 Coeff:     -0.319D-04 0.961D-03 0.843D-03-0.117D-01-0.317D-01 0.106D-01
 Coeff:      0.103D+01
 Gap=     0.511 Goal=   None    Shift=    0.000
 RMSDP=1.60D-08 MaxDP=1.32D-07 DE=-2.05D-12 OVMax= 1.66D-07

 Cycle  15  Pass 1  IDiag  1:
 RMSU=  2.99D-09    CP:  1.00D+00  1.06D+00  7.32D-01  1.20D+00  9.93D-01
                    CP:  1.20D+00  1.21D+00
 FoFJK:  IHMeth= 1 ICntrl=     0 DoSepK=T KAlg= 1 I1Cent= 0 FoldK=F
 E= -115.674047884916     Delta-E=        0.000000000000 Rises=F Damp=F
 DIIS: error= 4.57D-09 at cycle   8 NSaved=   8.
 NSaved= 8 IEnMin= 8 EnMin= -115.674047884916     IErMin= 8 ErrMin= 4.57D-09
 ErrMax= 4.57D-09 EMaxC= 1.00D-01 BMatC= 1.14D-15 BMatP= 3.09D-14
 IDIUse=1 WtCom= 1.00D+00 WtEn= 0.00D+00
 Coeff-Com: -0.180D-04 0.175D-03 0.134D-03 0.106D-02-0.246D-02-0.330D-01
 Coeff-Com: -0.345D-01 0.107D+01
 Coeff:     -0.180D-04 0.175D-03 0.134D-03 0.106D-02-0.246D-02-0.330D-01
 Coeff:     -0.345D-01 0.107D+01
 Gap=     0.511 Goal=   None    Shift=    0.000
 RMSDP=3.37D-09 MaxDP=2.18D-08 DE=-2.84D-14 OVMax= 4.06D-08

 SCF Done:  E(RwB97XD) =  -115.674047885     A.U. after   15 cycles
             Convg  =    0.3373D-08             -V/T =  2.0086
 KE= 1.146862997589D+02 PE=-3.510990037494D+02 EE= 8.075827965877D+01
 Leave Link  502 at Fri Jan  8 13:39:22 2021, MaxMem=13421772800 cpu:      21.8
 (Enter /opt/g09gh/gaussian/g09/l601.exe)
 Copying SCF densities to generalized density rwf, IOpCl= 0 IROHF=0.

 **********************************************************************

            Population analysis using the SCF density.

 **********************************************************************

 Orbital symmetries:
       Occupied  (A) (A) (A) (A) (A) (A) (A) (A) (A)
       Virtual   (A) (A) (A) (A) (A) (A) (A) (A) (A) (A) (A) (A)
                 (A) (A) (A) (A) (A) (A) (A) (A) (A) (A) (A) (A)
                 (A) (A) (A) (A) (A)
 The electronic state is 1-A.
 Alpha  occ. eigenvalues --  -19.25921 -10.33110  -1.10022  -0.78060  -0.58855
 Alpha  occ. eigenvalues --   -0.51454  -0.50768  -0.41157  -0.34591
 Alpha virt. eigenvalues --    0.16489   0.21906   0.25256   0.26490   0.29510
 Alpha virt. eigenvalues --    0.62403   0.65121   0.65410   0.90232   0.95512
 Alpha virt. eigenvalues --    0.97253   1.01586   1.05621   1.06608   1.11303
 Alpha virt. eigenvalues --    1.23266   1.54828   1.58084   1.65700   1.84863
 Alpha virt. eigenvalues --    2.11246   2.20399   2.21903   2.39893   2.46120
 Alpha virt. eigenvalues --    2.60626   2.87427   3.79848   4.32907
          Condensed to atoms (all electrons):
              1          2          3          4          5          6
     1  O    8.253146   0.250814  -0.035854  -0.026041  -0.039984   0.245799
     2  C    0.250814   4.876601   0.392576   0.374498   0.377379  -0.024126
     3  H   -0.035854   0.392576   0.527855  -0.028240  -0.042305   0.004779
     4  H   -0.026041   0.374498  -0.028240   0.584881  -0.046968  -0.008540
     5  H   -0.039984   0.377379  -0.042305  -0.046968   0.596399   0.000414
     6  H    0.245799  -0.024126   0.004779  -0.008540   0.000414   0.372718
 Mulliken atomic charges:
              1
     1  O   -0.647880
     2  C   -0.247742
     3  H    0.181189
     4  H    0.150411
     5  H    0.155065
     6  H    0.408957
 Sum of Mulliken atomic charges =   0.00000
 Mulliken charges with hydrogens summed into heavy atoms:
              1
     1  O   -0.238923
     2  C    0.238923
 Sum of Mulliken charges with hydrogens summed into heavy atoms =   0.00000
 Electronic spatial extent (au):  <R**2>=             84.7664
 Charge=              0.0000 electrons
 Dipole moment (field-independent basis, Debye):
    X=             -0.8244    Y=              1.6200    Z=             -0.1011  Tot=              1.8205
 Quadrupole moment (field-independent basis, Debye-Ang):
   XX=            -12.0530   YY=            -11.9078   ZZ=            -13.5479
   XY=              2.2756   XZ=             -0.0063   YZ=              0.0330
 Traceless Quadrupole moment (field-independent basis, Debye-Ang):
   XX=              0.4499   YY=              0.5951   ZZ=             -1.0450
   XY=              2.2756   XZ=             -0.0063   YZ=              0.0330
 Octapole moment (field-independent basis, Debye-Ang**2):
  XXX=              4.7872  YYY=              1.0758  ZZZ=              0.3222  XYY=              1.7199
  XXY=              2.5763  XXZ=             -0.1515  XZZ=              0.4901  YZZ=              0.2059
  YYZ=             -0.5252  XYZ=             -0.1551
 Hexadecapole moment (field-independent basis, Debye-Ang**3):
 XXXX=            -59.6597 YYYY=            -18.7771 ZZZZ=            -18.2345 XXXY=              4.0747
 XXXZ=              0.0294 YYYX=              2.2429 YYYZ=              0.0285 ZZZX=             -0.4360
 ZZZY=              0.1058 XXYY=            -11.9657 XXZZ=            -13.6731 YYZZ=             -6.2904
 XXYZ=              0.1192 YYXZ=              0.5655 ZZXY=              0.3926
 N-N= 3.998037644678D+01 E-N=-3.510990038415D+02  KE= 1.146862997589D+02
 No NMR shielding tensors so no spin-rotation constants.
 Leave Link  601 at Fri Jan  8 13:39:23 2021, MaxMem=13421772800 cpu:       0.9
 (Enter /opt/g09gh/gaussian/g09/l701.exe)
 Compute integral first derivatives.
 ... and contract with generalized density number  0.
 R6Disp: Adding dispersion energy 1st derivatives to the gradient.
 Leave Link  701 at Fri Jan  8 13:39:23 2021, MaxMem=13421772800 cpu:       0.9
 (Enter /opt/g09gh/gaussian/g09/l702.exe)
 L702 exits ... SP integral derivatives will be done elsewhere.
 Leave Link  702 at Fri Jan  8 13:39:23 2021, MaxMem=13421772800 cpu:       0.3
 (Enter /opt/g09gh/gaussian/g09/l703.exe)
 Compute integral first derivatives, UseDBF=F ICtDFT=           0.
 Integral derivatives from FoFDir, PRISM(SPDF).
 Calling FoFJK, ICntrl=      2127 FMM=F ISym2X=0 I1Cent= 0 IOpClX= 0 NMat=1 NMatS=1 NMatT=0.
 FoFJK:  IHMeth= 1 ICntrl=  2127 DoSepK=T KAlg= 1 I1Cent= 0 FoldK=F
 FoFCou: FMM=F IPFlag=           0 FMFlag=      100000 FMFlg1=         800
         NFxFlg=           0 DoJE=F BraDBF=F KetDBF=F FulRan=T
         Omega=  0.000000  0.000000  1.000000  0.000000  0.000000 ICntrl=    2527 IOpCl=  0
         NMat0=    1 NMatS0=    1 NMatT0=    0 NMatD0=    1 NMtDS0=    0 NMtDT0=    0
         I1Cent=           0 NGrid=           0.
 Symmetry not used in FoFCou.
 Leave Link  703 at Fri Jan  8 13:39:23 2021, MaxMem=13421772800 cpu:       2.4
 (Enter /opt/g09gh/gaussian/g09/l716.exe)
 Dipole        =-3.24328525D-01 6.37348131D-01-3.97603198D-02
 ***** Axes restored to original set *****
 -------------------------------------------------------------------
 Center     Atomic                   Forces (Hartrees/Bohr)
 Number     Number              X              Y              Z
 -------------------------------------------------------------------
      1        8          -0.014239462   -0.004464067   -0.003613085
      2        6           0.025622908    0.008898362    0.010075712
      3        1          -0.001624050   -0.007463975   -0.007203178
      4        1          -0.000151019    0.004360441   -0.010333783
      5        1          -0.000837449   -0.001811702    0.009744208
      6        1          -0.008770928    0.000480940    0.001330127
 -------------------------------------------------------------------
 Cartesian Forces:  Max     0.025622908 RMS     0.009088757
 Leave Link  716 at Fri Jan  8 13:39:23 2021, MaxMem=13421772800 cpu:       0.3
 (Enter /opt/g09gh/gaussian/g09/l103.exe)

 GradGradGradGradGradGradGradGradGradGradGradGradGradGradGradGradGradGrad
 Berny optimization.
 Internal  Forces:  Max     0.022548990 RMS     0.008619308
 Search for a local minimum.
 Step number   1 out of a maximum of    2
 All quantities printed in internal units (Hartrees-Bohrs-Radians)
 RMS Force = .92741D-02 SwitMx=.10000D-02 MixMth= 1
 Mixed Optimization -- RFO/linear search
 Second derivative matrix not updated -- first step.
 The second derivative matrix:
                          R1        R2        R3        R4        R5
           R1           0.39282
           R2           0.00000   0.54456
           R3           0.00000   0.00000   0.36331
           R4           0.00000   0.00000   0.00000   0.35415
           R5           0.00000   0.00000   0.00000   0.00000   0.35233
           A1           0.00000   0.00000   0.00000   0.00000   0.00000
           A2           0.00000   0.00000   0.00000   0.00000   0.00000
           A3           0.00000   0.00000   0.00000   0.00000   0.00000
           A4           0.00000   0.00000   0.00000   0.00000   0.00000
           A5           0.00000   0.00000   0.00000   0.00000   0.00000
           A6           0.00000   0.00000   0.00000   0.00000   0.00000
           A7           0.00000   0.00000   0.00000   0.00000   0.00000
           D1           0.00000   0.00000   0.00000   0.00000   0.00000
           D2           0.00000   0.00000   0.00000   0.00000   0.00000
           D3           0.00000   0.00000   0.00000   0.00000   0.00000
                          A1        A2        A3        A4        A5
           A1           0.16000
           A2           0.00000   0.16000
           A3           0.00000   0.00000   0.16000
           A4           0.00000   0.00000   0.00000   0.16000
           A5           0.00000   0.00000   0.00000   0.00000   0.16000
           A6           0.00000   0.00000   0.00000   0.00000   0.00000
           A7           0.00000   0.00000   0.00000   0.00000   0.00000
           D1           0.00000   0.00000   0.00000   0.00000   0.00000
           D2           0.00000   0.00000   0.00000   0.00000   0.00000
           D3           0.00000   0.00000   0.00000   0.00000   0.00000
                          A6        A7        D1        D2        D3
           A6           0.16000
           A7           0.00000   0.16000
           D1           0.00000   0.00000   0.01133
           D2           0.00000   0.00000   0.00000   0.01133
           D3           0.00000   0.00000   0.00000   0.00000   0.01133
     Eigenvalues ---    0.16000   0.16000   0.16000   0.16000   0.35233
     Eigenvalues ---    0.35415   0.36331   0.39282   0.544561000.00000
     Eigenvalues --- 1000.000001000.000001000.000001000.000001000.00000
 RFO step:  Lambda=-3.58285970D-03 EMin= 1.60000000D-01
 Linear search not attempted -- first point.
 Iteration  1 RMS(Cart)=  0.05255585 RMS(Int)=  0.00134212
 Iteration  2 RMS(Cart)=  0.00109401 RMS(Int)=  0.00008138
 Iteration  3 RMS(Cart)=  0.00000023 RMS(Int)=  0.00008138
 Iteration  1 RMS(Cart)=  0.00000591 RMS(Int)=  0.00000808
 Iteration  2 RMS(Cart)=  0.00000351 RMS(Int)=  0.00000900
 Iteration  3 RMS(Cart)=  0.00000208 RMS(Int)=  0.00001026
 Iteration  4 RMS(Cart)=  0.00000124 RMS(Int)=  0.00001117
 Iteration  5 RMS(Cart)=  0.00000073 RMS(Int)=  0.00001176
 Variable       Old X    -DE/DX   Delta X   Delta X   Delta X     New X
                                 (Linear)    (Quad)   (Total)
    R1        2.72541  -0.02255   0.00000  -0.05688  -0.05688   2.66853
    R2        1.82319  -0.00364   0.00000  -0.00663  -0.00663   1.81656
    R3        2.03568   0.00979   0.00000   0.02669   0.02669   2.06237
    R4        2.05007   0.00847   0.00000   0.02367   0.02367   2.07374
    R5        2.05299   0.00923   0.00000   0.02593   0.02593   2.07892
    A1        1.95255  -0.01457   0.00000  -0.08905  -0.08905   1.86350
    A2        1.88918  -0.00399   0.00000  -0.01088  -0.01098   1.87820
    A3        1.98085  -0.00318   0.00000  -0.01787  -0.01801   1.96284
    A4        1.94253  -0.00073   0.00000  -0.01958  -0.01973   1.92280
    A5        1.93197  -0.00186   0.00000   0.01569   0.01561   1.94758
    A6        1.88137   0.00308   0.00000   0.01488   0.01477   1.89613
    A7        1.83571   0.00725   0.00000   0.02020   0.02002   1.85573
    D1        2.64724  -0.00200   0.00000   0.00000   0.00000   2.64724
    D2        0.49530   0.00550   0.00000   0.00000   0.00000   0.49530
    D3       -1.57148  -0.00115   0.00000   0.00000   0.00000  -1.57148
         Item               Value     Threshold  Converged?
 Maximum Force            0.022549     0.002500     NO 
 RMS     Force            0.009274     0.001667     NO 
 Maximum Displacement     0.154995     0.010000     NO 
 RMS     Displacement     0.053042     0.006667     NO 
 Predicted change in Energy=-1.817519D-03
 GradGradGradGradGradGradGradGradGradGradGradGradGradGradGradGradGradGrad

 Leave Link  103 at Fri Jan  8 13:39:23 2021, MaxMem=13421772800 cpu:       0.0
 (Enter /opt/g09gh/gaussian/g09/l202.exe)
                          Input orientation:                          
 ---------------------------------------------------------------------
 Center     Atomic      Atomic             Coordinates (Angstroms)
 Number     Number       Type             X           Y           Z
 ---------------------------------------------------------------------
      1          8           0        0.740851   -0.141499    0.007597
      2          6           0       -0.662393    0.015779   -0.008604
      3          1           0       -1.089067   -0.874064   -0.474645
      4          1           0       -0.975698    0.931809   -0.525287
      5          1           0       -1.047263    0.093351    1.019073
      6          1           0        1.119290    0.741714   -0.020344
 ---------------------------------------------------------------------
                    Distance matrix (angstroms):
                    1          2          3          4          5
     1  O    0.000000
     2  C    1.412124   0.000000
     3  H    2.029239   1.091360   0.000000
     4  H    2.093441   1.097375   1.810136   0.000000
     5  H    2.067750   1.100119   1.780122   1.758744   0.000000
     6  H    0.961281   1.923932   2.773800   2.163349   2.488919
                    6
     6  H    0.000000
 Stoichiometry    CH4O
 Framework group  C1[X(CH4O)]
 Deg. of freedom    12
 Full point group                 C1      NOp   1
 Largest Abelian subgroup         C1      NOp   1
 Largest concise Abelian subgroup C1      NOp   1
                         Standard orientation:                         
 ---------------------------------------------------------------------
 Center     Atomic      Atomic             Coordinates (Angstroms)
 Number     Number       Type             X           Y           Z
 ---------------------------------------------------------------------
      1          8           0        0.744873   -0.123223    0.005201
      2          6           0       -0.660436    0.014725   -0.007739
      3          1           0       -1.075659   -0.878816   -0.477036
      4          1           0       -0.987329    0.928660   -0.519692
      5          1           0       -1.044410    0.082337    1.020976
      6          1           0        1.111029    0.765250   -0.019421
 ---------------------------------------------------------------------
 Rotational constants (GHZ):    126.8082925     25.1865059     24.1299222
 Leave Link  202 at Fri Jan  8 13:39:23 2021, MaxMem=13421772800 cpu:       0.0
 (Enter /opt/g09gh/gaussian/g09/l301.exe)
 Standard basis: 6-31G(d) (6D, 7F)
 Ernie: Thresh=  0.10000D-02 Tol=  0.10000D-05 Strict=F.
 There are    38 symmetry adapted basis functions of A   symmetry.
 Integral buffers will be    131072 words long.
 Raffenetti 2 integral format.
 Two-electron integral symmetry is turned on.
    38 basis functions,    72 primitive gaussians,    38 cartesian basis functions
     9 alpha electrons        9 beta electrons
       nuclear repulsion energy        40.4246814154 Hartrees.
 IExCor= 4639 DFT=T Ex+Corr=wB97XD ExCW=0 ScaHFX=  1.000000
 ScaDFX=  1.000000  1.000000  1.000000  1.000000 ScalE2=  1.000000  1.000000
 IRadAn=      0 IRanWt=     -1 IRanGd=            0 ICorTp=0
  HFx wShort=  0.000000 wLong=  0.200000 cFull=  0.222036 cShort=  0.000000 cLong=  0.777964
  DFx wShort=  0.000000 wLong=  0.200000 cFull=  0.000000 cShort=  0.000000 cLong=  1.000000
 NAtoms=    6 NActive=    6 NUniq=    6 SFac= 7.50D-01 NAtFMM=   80 NAOKFM=F Big=F
 R6Disp: Dispersion energy =        -0.0008157634 Hartrees.
 Nuclear repulsion after empirical dispersion term =       40.4238656520 Hartrees.
 Leave Link  301 at Fri Jan  8 13:39:23 2021, MaxMem=13421772800 cpu:       0.4
 (Enter /opt/g09gh/gaussian/g09/l302.exe)
 NPDir=0 NMtPBC=     1 NCelOv=     1 NCel=       1 NClECP=     1 NCelD=      1
         NCelK=      1 NCelE2=     1 NClLst=     1 CellRange=     0.0.
 One-electron integrals computed using PRISM.
 NBasis=    38 RedAO= T  NBF=    38
 NBsUse=    38 1.00D-06 NBFU=    38
 Precomputing XC quadrature grid using
 IXCGrd= 2 IRadAn=           0 IRanWt=          -1 IRanGd=           0 AccXCQ= 1.00D-10.
 NRdTot=     369 NPtTot=       46428 NUsed=       49102 NTot=       49134
 NSgBfM=    38    38    38    38    38 NAtAll=     6     6.
 Leave Link  302 at Fri Jan  8 13:39:23 2021, MaxMem=13421772800 cpu:       1.1
 (Enter /opt/g09gh/gaussian/g09/l303.exe)
 DipDrv:  MaxL=1.
 Leave Link  303 at Fri Jan  8 13:39:23 2021, MaxMem=13421772800 cpu:       0.3
 (Enter /opt/g09gh/gaussian/g09/l401.exe)
 Initial guess read from the read-write file.
 B after Tr=     0.000000    0.000000    0.000000
         Rot=    1.000000    0.000000    0.000000    0.000000 Ang=   0.00 deg.
 Guess basis will be translated and rotated to current coordinates.
 Initial guess orbital symmetries:
       Occupied  (A) (A) (A) (A) (A) (A) (A) (A) (A)
       Virtual   (A) (A) (A) (A) (A) (A) (A) (A) (A) (A) (A) (A)
                 (A) (A) (A) (A) (A) (A) (A) (A) (A) (A) (A) (A)
                 (A) (A) (A) (A) (A)
 The electronic state of the initial guess is 1-A.
 Generating alternative initial guess.
 Harris functional with IExCor= 4639 diagonalized for initial guess.
 ExpMin= 1.61D-01 ExpMax= 5.48D+03 ExpMxC= 8.25D+02 IAcc=1 IRadAn=         1 AccDes= 0.00D+00
 HarFok:  IExCor= 4639 AccDes= 0.00D+00 IRadAn=         1 IDoV= 1
 ScaDFX=  1.000000  1.000000  1.000000  1.000000
 FoFCou: FMM=F IPFlag=           0 FMFlag=      100000 FMFlg1=           0
         NFxFlg=           0 DoJE=T BraDBF=F KetDBF=T FulRan=T
         Omega=  0.000000  0.000000  1.000000  0.000000  0.000000 ICntrl=     500 IOpCl=  0
         NMat0=    1 NMatS0=    1 NMatT0=    0 NMatD0=    1 NMtDS0=    0 NMtDT0=    0
         I1Cent=           4 NGrid=           0.
 Petite list used in FoFCou.
 Harris En= -110.930319941703    
 Leave Link  401 at Fri Jan  8 13:39:24 2021, MaxMem=13421772800 cpu:       1.6
 (Enter /opt/g09gh/gaussian/g09/l502.exe)
 Closed shell SCF:
 Requested convergence on RMS density matrix=1.00D-08 within 128 cycles.
 Requested convergence on MAX density matrix=1.00D-06.
 Requested convergence on             energy=1.00D-06.
 No special actions if energy rises.
 Using DIIS extrapolation, IDIIS=  1040.
 Integral symmetry usage will be decided dynamically.
        49035 words used for storage of precomputed grid.
 IEnd=       72111 IEndB=       72111 NGot= 13421772800 MDV= 13421718812
 LenX= 13421718812 LenY= 13421716927
 Fock matrices will be formed incrementally for  20 cycles.
 Integral accuracy reduced to 1.0D-05 until final iterations.

 Cycle   1  Pass 0  IDiag  1:
 FoFJK:  IHMeth= 1 ICntrl=     0 DoSepK=T KAlg= 1 I1Cent= 0 FoldK=F
 FoFCou: FMM=F IPFlag=           0 FMFlag=      100000 FMFlg1=           0
         NFxFlg=           0 DoJE=T BraDBF=F KetDBF=F FulRan=T
         Omega=  0.000000  0.000000  1.000000  0.000000  0.000000 ICntrl=     500 IOpCl=  0
         NMat0=    1 NMatS0=    1 NMatT0=    0 NMatD0=    1 NMtDS0=    0 NMtDT0=    0
         I1Cent=           0 NGrid=           0.
 Symmetry not used in FoFCou.
 E= -115.674686542801    
 DIIS: error= 3.62D-03 at cycle   1 NSaved=   1.
 NSaved= 1 IEnMin= 1 EnMin= -115.674686542801     IErMin= 1 ErrMin= 3.62D-03
 ErrMax= 3.62D-03 EMaxC= 1.00D-01 BMatC= 7.96D-04 BMatP= 7.96D-04
 IDIUse=3 WtCom= 9.64D-01 WtEn= 3.62D-02
 Coeff-Com:  0.100D+01
 Coeff-En:   0.100D+01
 Coeff:      0.100D+01
 Gap=     0.511 Goal=   None    Shift=    0.000
 GapD=    0.511 DampG=2.000 DampE=1.000 DampFc=2.0000 IDamp=-1.
 RMSDP=8.14D-04 MaxDP=8.15D-03              OVMax= 9.94D-03

 Cycle   2  Pass 0  IDiag  1:
 RMSU=  5.75D-04    CP:  1.00D+00
 FoFJK:  IHMeth= 1 ICntrl=     0 DoSepK=T KAlg= 1 I1Cent= 0 FoldK=F
 E= -115.675654440931     Delta-E=       -0.000967898130 Rises=F Damp=F
 DIIS: error= 8.23D-04 at cycle   2 NSaved=   2.
 NSaved= 2 IEnMin= 2 EnMin= -115.675654440931     IErMin= 2 ErrMin= 8.23D-04
 ErrMax= 8.23D-04 EMaxC= 1.00D-01 BMatC= 3.72D-05 BMatP= 7.96D-04
 IDIUse=3 WtCom= 9.92D-01 WtEn= 8.23D-03
 Coeff-Com: -0.326D-02 0.100D+01
 Coeff-En:   0.000D+00 0.100D+01
 Coeff:     -0.323D-02 0.100D+01
 Gap=     0.508 Goal=   None    Shift=    0.000
 RMSDP=2.07D-04 MaxDP=1.72D-03 DE=-9.68D-04 OVMax= 2.53D-03

 Cycle   3  Pass 0  IDiag  1:
 RMSU=  1.22D-04    CP:  1.00D+00  1.14D+00
 FoFJK:  IHMeth= 1 ICntrl=     0 DoSepK=T KAlg= 1 I1Cent= 0 FoldK=F
 E= -115.675694338237     Delta-E=       -0.000039897306 Rises=F Damp=F
 DIIS: error= 4.54D-04 at cycle   3 NSaved=   3.
 NSaved= 3 IEnMin= 3 EnMin= -115.675694338237     IErMin= 3 ErrMin= 4.54D-04
 ErrMax= 4.54D-04 EMaxC= 1.00D-01 BMatC= 1.31D-05 BMatP= 3.72D-05
 IDIUse=3 WtCom= 9.95D-01 WtEn= 4.54D-03
 Coeff-Com: -0.463D-01 0.343D+00 0.704D+00
 Coeff-En:   0.000D+00 0.000D+00 0.100D+01
 Coeff:     -0.461D-01 0.341D+00 0.705D+00
 Gap=     0.509 Goal=   None    Shift=    0.000
 RMSDP=8.39D-05 MaxDP=1.03D-03 DE=-3.99D-05 OVMax= 1.11D-03

 Cycle   4  Pass 0  IDiag  1:
 RMSU=  5.39D-05    CP:  1.00D+00  1.17D+00  8.66D-01
 FoFJK:  IHMeth= 1 ICntrl=     0 DoSepK=T KAlg= 1 I1Cent= 0 FoldK=F
 E= -115.675703448365     Delta-E=       -0.000009110128 Rises=F Damp=F
 DIIS: error= 2.07D-04 at cycle   4 NSaved=   4.
 NSaved= 4 IEnMin= 4 EnMin= -115.675703448365     IErMin= 4 ErrMin= 2.07D-04
 ErrMax= 2.07D-04 EMaxC= 1.00D-01 BMatC= 2.05D-06 BMatP= 1.31D-05
 IDIUse=3 WtCom= 9.98D-01 WtEn= 2.07D-03
 Coeff-Com: -0.200D-01 0.326D-01 0.308D+00 0.679D+00
 Coeff-En:   0.000D+00 0.000D+00 0.000D+00 0.100D+01
 Coeff:     -0.200D-01 0.325D-01 0.308D+00 0.680D+00
 Gap=     0.509 Goal=   None    Shift=    0.000
 RMSDP=2.95D-05 MaxDP=2.99D-04 DE=-9.11D-06 OVMax= 3.05D-04

 Cycle   5  Pass 0  IDiag  1:
 RMSU=  1.23D-05    CP:  1.00D+00  1.19D+00  9.86D-01  9.15D-01
 FoFJK:  IHMeth= 1 ICntrl=     0 DoSepK=T KAlg= 1 I1Cent= 0 FoldK=F
 E= -115.675705031983     Delta-E=       -0.000001583618 Rises=F Damp=F
 DIIS: error= 2.07D-05 at cycle   5 NSaved=   5.
 NSaved= 5 IEnMin= 5 EnMin= -115.675705031983     IErMin= 5 ErrMin= 2.07D-05
 ErrMax= 2.07D-05 EMaxC= 1.00D-01 BMatC= 1.45D-08 BMatP= 2.05D-06
 IDIUse=1 WtCom= 1.00D+00 WtEn= 0.00D+00
 Coeff-Com:  0.423D-02-0.191D-01-0.699D-01-0.946D-01 0.118D+01
 Coeff:      0.423D-02-0.191D-01-0.699D-01-0.946D-01 0.118D+01
 Gap=     0.509 Goal=   None    Shift=    0.000
 RMSDP=1.09D-05 MaxDP=7.85D-05 DE=-1.58D-06 OVMax= 1.28D-04

 Cycle   6  Pass 0  IDiag  1:
 RMSU=  1.94D-06    CP:  1.00D+00  1.19D+00  1.02D+00  1.00D+00  1.27D+00
 FoFJK:  IHMeth= 1 ICntrl=     0 DoSepK=T KAlg= 1 I1Cent= 0 FoldK=F
 E= -115.675705071165     Delta-E=       -0.000000039182 Rises=F Damp=F
 DIIS: error= 5.59D-06 at cycle   6 NSaved=   6.
 NSaved= 6 IEnMin= 6 EnMin= -115.675705071165     IErMin= 6 ErrMin= 5.59D-06
 ErrMax= 5.59D-06 EMaxC= 1.00D-01 BMatC= 1.22D-09 BMatP= 1.45D-08
 IDIUse=1 WtCom= 1.00D+00 WtEn= 0.00D+00
 Coeff-Com:  0.163D-02-0.549D-02-0.250D-01-0.392D-01 0.305D+00 0.763D+00
 Coeff:      0.163D-02-0.549D-02-0.250D-01-0.392D-01 0.305D+00 0.763D+00
 Gap=     0.509 Goal=   None    Shift=    0.000
 RMSDP=1.44D-06 MaxDP=1.02D-05 DE=-3.92D-08 OVMax= 1.58D-05

 Initial convergence to 1.0D-05 achieved.  Increase integral accuracy.
 Cycle   7  Pass 1  IDiag  1:
 FoFJK:  IHMeth= 1 ICntrl=     0 DoSepK=T KAlg= 1 I1Cent= 0 FoldK=F
 E= -115.675439686381     Delta-E=        0.000265384784 Rises=F Damp=F
 DIIS: error= 1.41D-04 at cycle   1 NSaved=   1.
 NSaved= 1 IEnMin= 1 EnMin= -115.675439686381     IErMin= 1 ErrMin= 1.41D-04
 ErrMax= 1.41D-04 EMaxC= 1.00D-01 BMatC= 8.88D-07 BMatP= 8.88D-07
 IDIUse=3 WtCom= 9.99D-01 WtEn= 1.41D-03
 Coeff-Com:  0.100D+01
 Coeff-En:   0.100D+01
 Coeff:      0.100D+01
 Gap=     0.509 Goal=   None    Shift=    0.000
 RMSDP=1.44D-06 MaxDP=1.02D-05 DE= 2.65D-04 OVMax= 2.22D-04

 Cycle   8  Pass 1  IDiag  1:
 RMSU=  1.58D-05    CP:  1.00D+00
 FoFJK:  IHMeth= 1 ICntrl=     0 DoSepK=T KAlg= 1 I1Cent= 0 FoldK=F
 E= -115.675440408091     Delta-E=       -0.000000721710 Rises=F Damp=F
 DIIS: error= 3.32D-05 at cycle   2 NSaved=   2.
 NSaved= 2 IEnMin= 2 EnMin= -115.675440408091     IErMin= 2 ErrMin= 3.32D-05
 ErrMax= 3.32D-05 EMaxC= 1.00D-01 BMatC= 4.67D-08 BMatP= 8.88D-07
 IDIUse=1 WtCom= 1.00D+00 WtEn= 0.00D+00
 Coeff-Com:  0.188D-01 0.981D+00
 Coeff:      0.188D-01 0.981D+00
 Gap=     0.509 Goal=   None    Shift=    0.000
 RMSDP=7.80D-06 MaxDP=8.91D-05 DE=-7.22D-07 OVMax= 8.28D-05

 Cycle   9  Pass 1  IDiag  1:
 RMSU=  5.52D-06    CP:  1.00D+00  1.01D+00
 FoFJK:  IHMeth= 1 ICntrl=     0 DoSepK=T KAlg= 1 I1Cent= 0 FoldK=F
 E= -115.675440421888     Delta-E=       -0.000000013797 Rises=F Damp=F
 DIIS: error= 2.82D-05 at cycle   3 NSaved=   3.
 NSaved= 3 IEnMin= 3 EnMin= -115.675440421888     IErMin= 3 ErrMin= 2.82D-05
 ErrMax= 2.82D-05 EMaxC= 1.00D-01 BMatC= 4.19D-08 BMatP= 4.67D-08
 IDIUse=1 WtCom= 1.00D+00 WtEn= 0.00D+00
 Coeff-Com: -0.446D-01 0.501D+00 0.543D+00
 Coeff:     -0.446D-01 0.501D+00 0.543D+00
 Gap=     0.509 Goal=   None    Shift=    0.000
 RMSDP=3.15D-06 MaxDP=4.27D-05 DE=-1.38D-08 OVMax= 3.56D-05

 Cycle  10  Pass 1  IDiag  1:
 RMSU=  1.06D-06    CP:  1.00D+00  1.06D+00  6.75D-01
 FoFJK:  IHMeth= 1 ICntrl=     0 DoSepK=T KAlg= 1 I1Cent= 0 FoldK=F
 E= -115.675440450353     Delta-E=       -0.000000028465 Rises=F Damp=F
 DIIS: error= 1.80D-06 at cycle   4 NSaved=   4.
 NSaved= 4 IEnMin= 4 EnMin= -115.675440450353     IErMin= 4 ErrMin= 1.80D-06
 ErrMax= 1.80D-06 EMaxC= 1.00D-01 BMatC= 1.68D-10 BMatP= 4.19D-08
 IDIUse=1 WtCom= 1.00D+00 WtEn= 0.00D+00
 Coeff-Com: -0.467D-02 0.978D-02 0.433D-01 0.952D+00
 Coeff:     -0.467D-02 0.978D-02 0.433D-01 0.952D+00
 Gap=     0.509 Goal=   None    Shift=    0.000
 RMSDP=5.41D-07 MaxDP=4.51D-06 DE=-2.85D-08 OVMax= 6.15D-06

 Cycle  11  Pass 1  IDiag  1:
 RMSU=  2.68D-07    CP:  1.00D+00  1.06D+00  7.15D-01  1.15D+00
 FoFJK:  IHMeth= 1 ICntrl=     0 DoSepK=T KAlg= 1 I1Cent= 0 FoldK=F
 E= -115.675440450586     Delta-E=       -0.000000000233 Rises=F Damp=F
 DIIS: error= 5.72D-07 at cycle   5 NSaved=   5.
 NSaved= 5 IEnMin= 5 EnMin= -115.675440450586     IErMin= 5 ErrMin= 5.72D-07
 ErrMax= 5.72D-07 EMaxC= 1.00D-01 BMatC= 2.15D-11 BMatP= 1.68D-10
 IDIUse=1 WtCom= 1.00D+00 WtEn= 0.00D+00
 Coeff-Com:  0.706D-03-0.223D-01-0.190D-01 0.205D+00 0.836D+00
 Coeff:      0.706D-03-0.223D-01-0.190D-01 0.205D+00 0.836D+00
 Gap=     0.509 Goal=   None    Shift=    0.000
 RMSDP=1.73D-07 MaxDP=1.54D-06 DE=-2.33D-10 OVMax= 2.07D-06

 Cycle  12  Pass 1  IDiag  1:
 RMSU=  7.23D-08    CP:  1.00D+00  1.07D+00  7.25D-01  1.22D+00  9.91D-01
 FoFJK:  IHMeth= 1 ICntrl=     0 DoSepK=T KAlg= 1 I1Cent= 0 FoldK=F
 E= -115.675440450611     Delta-E=       -0.000000000025 Rises=F Damp=F
 DIIS: error= 2.33D-07 at cycle   6 NSaved=   6.
 NSaved= 6 IEnMin= 6 EnMin= -115.675440450611     IErMin= 6 ErrMin= 2.33D-07
 ErrMax= 2.33D-07 EMaxC= 1.00D-01 BMatC= 1.92D-12 BMatP= 2.15D-11
 IDIUse=1 WtCom= 1.00D+00 WtEn= 0.00D+00
 Coeff-Com:  0.683D-03-0.764D-02-0.901D-02-0.625D-02 0.236D+00 0.786D+00
 Coeff:      0.683D-03-0.764D-02-0.901D-02-0.625D-02 0.236D+00 0.786D+00
 Gap=     0.509 Goal=   None    Shift=    0.000
 RMSDP=5.02D-08 MaxDP=4.89D-07 DE=-2.46D-11 OVMax= 5.78D-07

 Cycle  13  Pass 1  IDiag  1:
 RMSU=  1.91D-08    CP:  1.00D+00  1.07D+00  7.26D-01  1.23D+00  1.08D+00
                    CP:  1.00D+00
 FoFJK:  IHMeth= 1 ICntrl=     0 DoSepK=T KAlg= 1 I1Cent= 0 FoldK=F
 E= -115.675440450613     Delta-E=       -0.000000000002 Rises=F Damp=F
 DIIS: error= 2.85D-08 at cycle   7 NSaved=   7.
 NSaved= 7 IEnMin= 7 EnMin= -115.675440450613     IErMin= 7 ErrMin= 2.85D-08
 ErrMax= 2.85D-08 EMaxC= 1.00D-01 BMatC= 5.31D-14 BMatP= 1.92D-12
 IDIUse=1 WtCom= 1.00D+00 WtEn= 0.00D+00
 Coeff-Com: -0.345D-04 0.119D-02 0.911D-03-0.140D-01-0.465D-01 0.491D-01
 Coeff-Com:  0.101D+01
 Coeff:     -0.345D-04 0.119D-02 0.911D-03-0.140D-01-0.465D-01 0.491D-01
 Coeff:      0.101D+01
 Gap=     0.509 Goal=   None    Shift=    0.000
 RMSDP=1.86D-08 MaxDP=1.51D-07 DE=-2.13D-12 OVMax= 1.98D-07

 Cycle  14  Pass 1  IDiag  1:
 RMSU=  3.43D-09    CP:  1.00D+00  1.07D+00  7.27D-01  1.24D+00  1.10D+00
                    CP:  1.11D+00  1.18D+00
 FoFJK:  IHMeth= 1 ICntrl=     0 DoSepK=T KAlg= 1 I1Cent= 0 FoldK=F
 E= -115.675440450613     Delta-E=        0.000000000000 Rises=F Damp=F
 DIIS: error= 4.24D-09 at cycle   8 NSaved=   8.
 NSaved= 8 IEnMin= 8 EnMin= -115.675440450613     IErMin= 8 ErrMin= 4.24D-09
 ErrMax= 4.24D-09 EMaxC= 1.00D-01 BMatC= 1.32D-15 BMatP= 5.31D-14
 IDIUse=1 WtCom= 1.00D+00 WtEn= 0.00D+00
 Coeff-Com: -0.126D-04 0.754D-04 0.754D-04 0.175D-02-0.946D-03-0.306D-01
 Coeff-Com: -0.997D-01 0.113D+01
 Coeff:     -0.126D-04 0.754D-04 0.754D-04 0.175D-02-0.946D-03-0.306D-01
 Coeff:     -0.997D-01 0.113D+01
 Gap=     0.509 Goal=   None    Shift=    0.000
 RMSDP=3.93D-09 MaxDP=2.37D-08 DE=-2.56D-13 OVMax= 4.05D-08

 SCF Done:  E(RwB97XD) =  -115.675440451     A.U. after   14 cycles
             Convg  =    0.3926D-08             -V/T =  2.0084
 KE= 1.147157080093D+02 PE=-3.519686957782D+02 EE= 8.115368166624D+01
 Leave Link  502 at Fri Jan  8 13:39:26 2021, MaxMem=13421772800 cpu:      20.9
 (Enter /opt/g09gh/gaussian/g09/l701.exe)
 Compute integral first derivatives.
 ... and contract with generalized density number  0.
 R6Disp: Adding dispersion energy 1st derivatives to the gradient.
 Leave Link  701 at Fri Jan  8 13:39:26 2021, MaxMem=13421772800 cpu:       0.9
 (Enter /opt/g09gh/gaussian/g09/l702.exe)
 L702 exits ... SP integral derivatives will be done elsewhere.
 Leave Link  702 at Fri Jan  8 13:39:27 2021, MaxMem=13421772800 cpu:       0.3
 (Enter /opt/g09gh/gaussian/g09/l703.exe)
 Compute integral first derivatives, UseDBF=F ICtDFT=           0.
 Integral derivatives from FoFDir, PRISM(SPDF).
 Calling FoFJK, ICntrl=      2127 FMM=F ISym2X=0 I1Cent= 0 IOpClX= 0 NMat=1 NMatS=1 NMatT=0.
 FoFJK:  IHMeth= 1 ICntrl=  2127 DoSepK=T KAlg= 1 I1Cent= 0 FoldK=F
 FoFCou: FMM=F IPFlag=           0 FMFlag=      100000 FMFlg1=         800
         NFxFlg=           0 DoJE=F BraDBF=F KetDBF=F FulRan=T
         Omega=  0.000000  0.000000  1.000000  0.000000  0.000000 ICntrl=    2527 IOpCl=  0
         NMat0=    1 NMatS0=    1 NMatT0=    0 NMatD0=    1 NMtDS0=    0 NMtDT0=    0
         I1Cent=           0 NGrid=           0.
 Symmetry not used in FoFCou.
 Leave Link  703 at Fri Jan  8 13:39:27 2021, MaxMem=13421772800 cpu:       2.4
 (Enter /opt/g09gh/gaussian/g09/l716.exe)
 Dipole        =-3.20905770D-01 6.44552547D-01-4.13784057D-02
 ***** Axes restored to original set *****
 -------------------------------------------------------------------
 Center     Atomic                   Forces (Hartrees/Bohr)
 Number     Number              X              Y              Z
 -------------------------------------------------------------------
      1        8           0.001061898    0.001504466   -0.004811994
      2        6           0.002824513    0.002118306    0.010710404
      3        1          -0.002524236    0.001841195   -0.002271100
      4        1          -0.001683923   -0.003400083   -0.005547266
      5        1          -0.002730858   -0.001722763    0.000038995
      6        1           0.003052606   -0.000341121    0.001880962
 -------------------------------------------------------------------
 Cartesian Forces:  Max     0.010710404 RMS     0.003630213
 Leave Link  716 at Fri Jan  8 13:39:27 2021, MaxMem=13421772800 cpu:       0.3
 (Enter /opt/g09gh/gaussian/g09/l103.exe)

 GradGradGradGradGradGradGradGradGradGradGradGradGradGradGradGradGradGrad
 Berny optimization.
 Using GEDIIS/GDIIS optimizer.
 Internal  Forces:  Max     0.006629867 RMS     0.003269852
 Search for a local minimum.
 Step number   2 out of a maximum of    2
 All quantities printed in internal units (Hartrees-Bohrs-Radians)
 RMS Force = .25600D-02 SwitMx=.10000D-02 MixMth= 1
 Mixed Optimization -- RFO/linear search
 Update second derivatives using D2CorX and points    1    2
 DE= -1.39D-03 DEPred=-1.82D-03 R= 7.66D-01
 SS=  1.41D+00  RLast= 1.22D-01 DXNew= 5.0454D-01 3.6561D-01
 Trust test= 7.66D-01 RLast= 1.22D-01 DXMaxT set to 3.66D-01
 The second derivative matrix:
                          R1        R2        R3        R4        R5
           R1           0.40839
           R2           0.00374   0.54537
           R3           0.00600   0.00054   0.35620
           R4           0.00431   0.00032  -0.00583   0.34938
           R5           0.00825   0.00095  -0.00761  -0.00630   0.34434
           A1           0.02818   0.00548  -0.00261  -0.00292  -0.00050
           A2           0.01826   0.00318  -0.00554  -0.00495  -0.00473
           A3           0.00373   0.00077   0.00017   0.00002   0.00052
           A4           0.01440   0.00259  -0.00345  -0.00318  -0.00269
           A5          -0.01247  -0.00224   0.00311   0.00285   0.00247
           A6          -0.01502  -0.00266   0.00408   0.00370   0.00335
           A7          -0.01039  -0.00192   0.00202   0.00192   0.00139
           D1           0.00165   0.00028  -0.00058  -0.00051  -0.00052
           D2           0.00082   0.00014  -0.00029  -0.00026  -0.00026
           D3           0.00259   0.00044  -0.00091  -0.00080  -0.00082
                          A1        A2        A3        A4        A5
           A1           0.19172
           A2           0.01506   0.16462
           A3           0.00493   0.00268   0.16072
           A4           0.01317   0.00486   0.00223   0.16470
           A5          -0.01124  -0.00405  -0.00192  -0.00396   0.16333
           A6          -0.01306  -0.00443  -0.00226  -0.00445   0.00373
           A7          -0.01019  -0.00414  -0.00167  -0.00385   0.00326
           D1           0.00124   0.00031   0.00023   0.00036  -0.00030
           D2           0.00062   0.00015   0.00011   0.00018  -0.00015
           D3           0.00195   0.00048   0.00036   0.00057  -0.00047
                          A6        A7        D1        D2        D3
           A6           0.16414
           A7           0.00371   0.16308
           D1          -0.00031  -0.00032   0.01135
           D2          -0.00016  -0.00016   0.00001   0.01134
           D3          -0.00049  -0.00051   0.00003   0.00001   0.01137
 Use linear search instead of GDIIS.
     Eigenvalues ---    0.15586   0.16000   0.16000   0.20558   0.33628
     Eigenvalues ---    0.35364   0.36077   0.41813   0.545741000.00000
     Eigenvalues --- 1000.000001000.000001000.000001000.000001000.00000
 RFO step:  Lambda=-1.32200086D-04 EMin= 1.55861109D-01
 Quartic linear search produced a step of -0.18848.
 Iteration  1 RMS(Cart)=  0.01351020 RMS(Int)=  0.00008502
 Iteration  2 RMS(Cart)=  0.00006873 RMS(Int)=  0.00002415
 Iteration  3 RMS(Cart)=  0.00000000 RMS(Int)=  0.00002415
 Iteration  1 RMS(Cart)=  0.00000785 RMS(Int)=  0.00001088
 Iteration  2 RMS(Cart)=  0.00000480 RMS(Int)=  0.00001210
 Iteration  3 RMS(Cart)=  0.00000293 RMS(Int)=  0.00001383
 Iteration  4 RMS(Cart)=  0.00000179 RMS(Int)=  0.00001513
 Iteration  5 RMS(Cart)=  0.00000109 RMS(Int)=  0.00001600
 Iteration  6 RMS(Cart)=  0.00000067 RMS(Int)=  0.00001655
 Variable       Old X    -DE/DX   Delta X   Delta X   Delta X     New X
                                 (Linear)    (Quad)   (Total)
    R1        2.66853   0.00392   0.01072  -0.00525   0.00547   2.67399
    R2        1.81656   0.00085   0.00125  -0.00028   0.00097   1.81753
    R3        2.06237   0.00046  -0.00503   0.00730   0.00227   2.06464
    R4        2.07374   0.00025  -0.00446   0.00614   0.00168   2.07542
    R5        2.07892   0.00087  -0.00489   0.00811   0.00323   2.08215
    A1        1.86350   0.00538   0.01678   0.00534   0.02212   1.88562
    A2        1.87820   0.00096   0.00207   0.01284   0.01486   1.89306
    A3        1.96284   0.00052   0.00339  -0.00022   0.00318   1.96603
    A4        1.92280   0.00507   0.00372   0.00852   0.01221   1.93501
    A5        1.94758  -0.00663  -0.00294  -0.00703  -0.00998   1.93760
    A6        1.89613  -0.00198  -0.00278  -0.01023  -0.01312   1.88301
    A7        1.85573   0.00209  -0.00377  -0.00442  -0.00816   1.84756
    D1        2.64724  -0.00172   0.00000   0.00000   0.00000   2.64724
    D2        0.49530   0.00564   0.00000   0.00000   0.00000   0.49530
    D3       -1.57148  -0.00071   0.00000   0.00000   0.00000  -1.57147
         Item               Value     Threshold  Converged?
 Maximum Force            0.005383     0.002500     NO 
 RMS     Force            0.002560     0.001667     NO 
 Maximum Displacement     0.037510     0.010000     NO 
 RMS     Displacement     0.013504     0.006667     NO 
 Predicted change in Energy=-1.531361D-04
 Optimization stopped.
    -- Number of steps exceeded,  NStep=   2
    -- Flag reset to prevent archiving.
                           ----------------------------
                           ! Non-Optimized Parameters !
                           ! (Angstroms and Degrees)  !
 --------------------------                            --------------------------
 ! Name  Definition              Value          Derivative Info.                !
 --------------------------------------------------------------------------------
 ! R1    R(1,2)                  1.415          -DE/DX =    0.0039              !
 ! R2    R(1,6)                  0.9618         -DE/DX =    0.0008              !
 ! R3    R(2,3)                  1.0926         -DE/DX =    0.0005              !
 ! R4    R(2,4)                  1.0983         -DE/DX =    0.0002              !
 ! R5    R(2,5)                  1.1018         -DE/DX =    0.0009              !
 ! A1    A(2,1,6)              108.0383         -DE/DX =    0.0054              !
 ! A2    A(1,2,3)              108.4644         -DE/DX =    0.001               !
 ! A3    A(1,2,4)              112.6451         -DE/DX =    0.0005              !
 ! A4    A(1,2,5)              110.8678         -DE/DX =    0.0051              !
 ! A5    A(3,2,4)              111.0164         -DE/DX =   -0.0066              !
 ! A6    A(3,2,5)              107.8887         -DE/DX =   -0.002               !
 ! A7    A(4,2,5)              105.8575         -DE/DX =    0.0021              !
 ! D1    D(6,1,2,3)            151.6759         -DE/DX =   -0.0017              !
 ! D2    D(6,1,2,4)             28.3787         -DE/DX =    0.0056              !
 ! D3    D(6,1,2,5)            -90.0388         -DE/DX =   -0.0007              !
 --------------------------------------------------------------------------------
 GradGradGradGradGradGradGradGradGradGradGradGradGradGradGradGradGradGrad

 Largest change from initial coordinates is atom    6       0.095 Angstoms.
 Leave Link  103 at Fri Jan  8 13:39:27 2021, MaxMem=13421772800 cpu:       0.0
 (Enter /opt/g09gh/gaussian/g09/l202.exe)
                          Input orientation:                          
 ---------------------------------------------------------------------
 Center     Atomic      Atomic             Coordinates (Angstroms)
 Number     Number       Type             X           Y           Z
 ---------------------------------------------------------------------
      1          8           0        0.740851   -0.141499    0.007597
      2          6           0       -0.662393    0.015779   -0.008604
      3          1           0       -1.089067   -0.874064   -0.474645
      4          1           0       -0.975698    0.931809   -0.525287
      5          1           0       -1.047263    0.093351    1.019073
      6          1           0        1.119290    0.741714   -0.020344
 ---------------------------------------------------------------------
                    Distance matrix (angstroms):
                    1          2          3          4          5
     1  O    0.000000
     2  C    1.412124   0.000000
     3  H    2.029239   1.091360   0.000000
     4  H    2.093441   1.097375   1.810136   0.000000
     5  H    2.067750   1.100119   1.780122   1.758744   0.000000
     6  H    0.961281   1.923932   2.773800   2.163349   2.488919
                    6
     6  H    0.000000
 Stoichiometry    CH4O
 Framework group  C1[X(CH4O)]
 Deg. of freedom    12
 Full point group                 C1      NOp   1
 Largest Abelian subgroup         C1      NOp   1
 Largest concise Abelian subgroup C1      NOp   1
                         Standard orientation:                         
 ---------------------------------------------------------------------
 Center     Atomic      Atomic             Coordinates (Angstroms)
 Number     Number       Type             X           Y           Z
 ---------------------------------------------------------------------
      1          8           0        0.744873   -0.123223    0.005201
      2          6           0       -0.660436    0.014725   -0.007739
      3          1           0       -1.075659   -0.878816   -0.477036
      4          1           0       -0.987329    0.928660   -0.519692
      5          1           0       -1.044410    0.082337    1.020976
      6          1           0        1.111029    0.765250   -0.019421
 ---------------------------------------------------------------------
 Rotational constants (GHZ):    126.8082925     25.1865059     24.1299222
 Leave Link  202 at Fri Jan  8 13:39:27 2021, MaxMem=13421772800 cpu:       0.0
 (Enter /opt/g09gh/gaussian/g09/l601.exe)
 Copying SCF densities to generalized density rwf, IOpCl= 0 IROHF=0.

 **********************************************************************

            Population analysis using the SCF density.

 **********************************************************************

 Orbital symmetries:
       Occupied  (A) (A) (A) (A) (A) (A) (A) (A) (A)
       Virtual   (A) (A) (A) (A) (A) (A) (A) (A) (A) (A) (A) (A)
                 (A) (A) (A) (A) (A) (A) (A) (A) (A) (A) (A) (A)
                 (A) (A) (A) (A) (A)
 The electronic state is 1-A.
 Alpha  occ. eigenvalues --  -19.26082 -10.33279  -1.11455  -0.77368  -0.59313
 Alpha  occ. eigenvalues --   -0.51842  -0.50753  -0.41683  -0.34542
 Alpha virt. eigenvalues --    0.16324   0.22206   0.25065   0.26085   0.30127
 Alpha virt. eigenvalues --    0.63149   0.65498   0.66426   0.89660   0.94652
 Alpha virt. eigenvalues --    0.96462   1.00065   1.04716   1.06345   1.11365
 Alpha virt. eigenvalues --    1.22671   1.55790   1.57911   1.63967   1.83718
 Alpha virt. eigenvalues --    2.15761   2.21569   2.24066   2.43526   2.46446
 Alpha virt. eigenvalues --    2.58086   2.89344   3.80726   4.31773
          Condensed to atoms (all electrons):
              1          2          3          4          5          6
     1  O    8.244708   0.248895  -0.039227  -0.028546  -0.044807   0.249566
     2  C    0.248895   4.887225   0.390706   0.375297   0.376631  -0.029430
     3  H   -0.039227   0.390706   0.532858  -0.026404  -0.040696   0.005740
     4  H   -0.028546   0.375297  -0.026404   0.591426  -0.045751  -0.010977
     5  H   -0.044807   0.376631  -0.040696  -0.045751   0.604381   0.000427
     6  H    0.249566  -0.029430   0.005740  -0.010977   0.000427   0.376556
 Mulliken atomic charges:
              1
     1  O   -0.630589
     2  C   -0.249325
     3  H    0.177024
     4  H    0.144955
     5  H    0.149816
     6  H    0.408119
 Sum of Mulliken atomic charges =   0.00000
 Mulliken charges with hydrogens summed into heavy atoms:
              1
     1  O   -0.222470
     2  C    0.222470
 Sum of Mulliken charges with hydrogens summed into heavy atoms =   0.00000
 Electronic spatial extent (au):  <R**2>=             83.2255
 Charge=              0.0000 electrons
 Dipole moment (field-independent basis, Debye):
    X=             -0.8157    Y=              1.6383    Z=             -0.1052  Tot=              1.8331
 Quadrupole moment (field-independent basis, Debye-Ang):
   XX=            -12.6338   YY=            -11.7793   ZZ=            -13.5410
   XY=              2.1862   XZ=              0.0206   YZ=              0.0311
 Traceless Quadrupole moment (field-independent basis, Debye-Ang):
   XX=              0.0176   YY=              0.8720   ZZ=             -0.8896
   XY=              2.1862   XZ=              0.0206   YZ=              0.0311
 Octapole moment (field-independent basis, Debye-Ang**2):
  XXX=              4.4263  YYY=              1.1718  ZZZ=              0.3300  XYY=              1.8098
  XXY=              2.2987  XXZ=             -0.1591  XZZ=              0.5620  YZZ=              0.2002
  YYZ=             -0.5593  XYZ=             -0.1499
 Hexadecapole moment (field-independent basis, Debye-Ang**3):
 XXXX=            -58.9386 YYYY=            -19.0375 ZZZZ=            -18.5949 XXXY=              3.5117
 XXXZ=              0.1009 YYYX=              2.2342 YYYZ=              0.0275 ZZZX=             -0.4099
 ZZZY=              0.1019 XXYY=            -11.8397 XXZZ=            -13.4174 YYZZ=             -6.4162
 XXYZ=              0.1252 YYXZ=              0.5816 ZZXY=              0.3912
 N-N= 4.042386565200D+01 E-N=-3.519686958909D+02  KE= 1.147157080093D+02
 No NMR shielding tensors so no spin-rotation constants.
 Leave Link  601 at Fri Jan  8 13:39:27 2021, MaxMem=13421772800 cpu:       0.9
 (Enter /opt/g09gh/gaussian/g09/l9999.exe)


 I LOVE MANKIND - IT'S PEOPLE I CAN'T STAND.
     -- LINUS OF PEANUTS
 Error termination request processed by link 9999.
 Error termination via Lnk1e in /opt/g09gh/gaussian/g09/l9999.exe at Fri Jan  8 13:39:27 2021.
 Job cpu time:  0 days  0 hours  1 minutes  0.8 seconds.
 File lengths (MBytes):  RWF=      5 Int=      0 D2E=      0 Chk=      1 Scr=      1
