 Entering Gaussian System, Link 0=/opt/g09gh/gaussian/g09/g09
 Input=methanol-opt-1_2-1-152.com
 Output=methanol-opt-1_2-1-152.log
 Initial command:
 /opt/g09gh/gaussian/g09/l1.exe /scratch/bdw2292/Gau-methanol/Gau-38740.inp -scrdir=/scratch/bdw2292/Gau-methanol/
 Entering Link 1 = /opt/g09gh/gaussian/g09/l1.exe PID=     38744.
  
 Copyright (c) 1988,1990,1992,1993,1995,1998,2003,2009, Gaussian, Inc.
                  All Rights Reserved.
  
 This is part of the Gaussian(R) 09 program.  It is based on
 the Gaussian(R) 03 system (copyright 2003, Gaussian, Inc.),
 the Gaussian(R) 98 system (copyright 1998, Gaussian, Inc.),
 the Gaussian(R) 94 system (copyright 1995, Gaussian, Inc.),
 the Gaussian 92(TM) system (copyright 1992, Gaussian, Inc.),
 the Gaussian 90(TM) system (copyright 1990, Gaussian, Inc.),
 the Gaussian 88(TM) system (copyright 1988, Gaussian, Inc.),
 the Gaussian 86(TM) system (copyright 1986, Carnegie Mellon
 University), and the Gaussian 82(TM) system (copyright 1983,
 Carnegie Mellon University). Gaussian is a federally registered
 trademark of Gaussian, Inc.
  
 This software contains proprietary and confidential information,
 including trade secrets, belonging to Gaussian, Inc.
  
 This software is provided under written license and may be
 used, copied, transmitted, or stored only in accord with that
 written license.
  
 The following legend is applicable only to US Government
 contracts under FAR:
  
                    RESTRICTED RIGHTS LEGEND
  
 Use, reproduction and disclosure by the US Government is
 subject to restrictions as set forth in subparagraphs (a)
 and (c) of the Commercial Computer Software - Restricted
 Rights clause in FAR 52.227-19.
  
 Gaussian, Inc.
 340 Quinnipiac St., Bldg. 40, Wallingford CT 06492
  
  
 ---------------------------------------------------------------
 Warning -- This program may not be used in any manner that
 competes with the business of Gaussian, Inc. or will provide
 assistance to any competitor of Gaussian, Inc.  The licensee
 of this program is prohibited from giving any competitor of
 Gaussian, Inc. access to this program.  By using this program,
 the user acknowledges that Gaussian, Inc. is engaged in the
 business of creating and licensing software in the field of
 computational chemistry and represents and warrants to the
 licensee that it is not a competitor of Gaussian, Inc. and that
 it will not use this program in any manner prohibited above.
 ---------------------------------------------------------------
  

 Cite this work as:
 Gaussian 09, Revision A.02,
 M. J. Frisch, G. W. Trucks, H. B. Schlegel, G. E. Scuseria, 
 M. A. Robb, J. R. Cheeseman, G. Scalmani, V. Barone, B. Mennucci, 
 G. A. Petersson, H. Nakatsuji, M. Caricato, X. Li, H. P. Hratchian, 
 A. F. Izmaylov, J. Bloino, G. Zheng, J. L. Sonnenberg, M. Hada, 
 M. Ehara, K. Toyota, R. Fukuda, J. Hasegawa, M. Ishida, T. Nakajima, 
 Y. Honda, O. Kitao, H. Nakai, T. Vreven, J. A. Montgomery, Jr., 
 J. E. Peralta, F. Ogliaro, M. Bearpark, J. J. Heyd, E. Brothers, 
 K. N. Kudin, V. N. Staroverov, R. Kobayashi, J. Normand, 
 K. Raghavachari, A. Rendell, J. C. Burant, S. S. Iyengar, J. Tomasi, 
 M. Cossi, N. Rega, J. M. Millam, M. Klene, J. E. Knox, J. B. Cross, 
 V. Bakken, C. Adamo, J. Jaramillo, R. Gomperts, R. E. Stratmann, 
 O. Yazyev, A. J. Austin, R. Cammi, C. Pomelli, J. W. Ochterski, 
 R. L. Martin, K. Morokuma, V. G. Zakrzewski, G. A. Voth, 
 P. Salvador, J. J. Dannenberg, S. Dapprich, A. D. Daniels, 
 O. Farkas, J. B. Foresman, J. V. Ortiz, J. Cioslowski, 
 and D. J. Fox, Gaussian, Inc., Wallingford CT, 2009.
 
 ******************************************
 Gaussian 09:  EM64L-G09RevA.02 11-Jun-2009
                 8-Jan-2021 
 ******************************************
 %RWF=/scratch/bdw2292/Gau-methanol/,200GB
 %Nosave
 %Chk=methanol-opt-1_2-1-152.chk
 %Mem=100GB
 %Nproc=8
 Will use up to    8 processors via shared memory.
 -------------------------------------------------------------
 #P opt=(ModRedundant,maxcycle=2,Loose) HF/3-21G MaxDisk=200GB
 -------------------------------------------------------------
 1/6=2,7=-1,18=120,19=15,38=1/1,3;
 2/9=110,12=2,17=6,18=5,40=1/2;
 3/5=5,11=9,16=1,25=1,30=1,71=1/1,2,3;
 4//1;
 5/5=2,38=5/2;
 6/7=2,8=2,9=2,10=2,28=1/1;
 7//1,2,3,16;
 1/6=2,7=-1,18=20,19=15/3(2);
 2/9=110/2;
 99//99;
 2/9=110/2;
 3/5=5,11=9,16=1,25=1,30=1,71=1/1,2,3;
 4/5=5,16=3/1;
 5/5=2,38=5/2;
 7//1,2,3,16;
 1/6=2,7=-1,18=20,19=15/3(-5);
 2/9=110/2;
 6/7=2,8=2,9=2,10=2,19=2,28=1/1;
 99/9=1/99;
 Leave Link    1 at Fri Jan  8 11:02:02 2021, MaxMem=13421772800 cpu:       0.3
 (Enter /opt/g09gh/gaussian/g09/l101.exe)
 -------------------------------------------------------------
 methanol Rotatable Bond Optimization on node37.bme.utexas.edu
 -------------------------------------------------------------
 Symbolic Z-matrix:
 Charge =  0 Multiplicity = 1
 O                     0.7493    0.10743   0.00116 
 C                    -0.66649  -0.01337  -0.00247 
 H                    -1.01666  -0.53892   0.89821 
 H                    -1.02551  -0.52654  -0.90808 
 H                    -1.12375   0.98729   0.00429 
 H                     1.05552   0.1398   -0.9191 
 
 NAtoms=      6 NQM=      6 NQMF=      0 NMic=      0 NMicF=      0 NTot=      6.
 The following ModRedundant input section has been read:
 D    6    1    2    3 F                                                       
 D    6    1    2    4 F                                                       
 D    6    1    2    5 F                                                       
                    Isotopes and Nuclear Properties:
 (Nuclear quadrupole moments (NQMom) in fm**2, nuclear magnetic moments (NMagM)
  in nuclear magnetons)

  Atom         1           2           3           4           5           6
 IAtWgt=          16          12           1           1           1           1
 AtmWgt=  15.9949146  12.0000000   1.0078250   1.0078250   1.0078250   1.0078250
 NucSpn=           0           0           1           1           1           1
 AtZEff=   0.0000000   0.0000000   0.0000000   0.0000000   0.0000000   0.0000000
 NQMom=    0.0000000   0.0000000   0.0000000   0.0000000   0.0000000   0.0000000
 NMagM=    0.0000000   0.0000000   2.7928460   2.7928460   2.7928460   2.7928460
 Leave Link  101 at Fri Jan  8 11:02:02 2021, MaxMem=13421772800 cpu:       0.9
 (Enter /opt/g09gh/gaussian/g09/l103.exe)

 GradGradGradGradGradGradGradGradGradGradGradGradGradGradGradGradGradGrad
 Berny optimization.
 Initialization pass.
                           ----------------------------
                           !    Initial Parameters    !
                           ! (Angstroms and Degrees)  !
 --------------------------                            --------------------------
 ! Name  Definition              Value          Derivative Info.                !
 --------------------------------------------------------------------------------
 ! R1    R(1,2)                  1.4209         estimate D2E/DX2                !
 ! R2    R(1,6)                  0.9704         estimate D2E/DX2                !
 ! R3    R(2,3)                  1.1            estimate D2E/DX2                !
 ! R4    R(2,4)                  1.1011         estimate D2E/DX2                !
 ! R5    R(2,5)                  1.1002         estimate D2E/DX2                !
 ! A1    A(2,1,6)              108.3506         estimate D2E/DX2                !
 ! A2    A(1,2,3)              110.8362         estimate D2E/DX2                !
 ! A3    A(1,2,4)              111.5062         estimate D2E/DX2                !
 ! A4    A(1,2,5)              109.6805         estimate D2E/DX2                !
 ! A5    A(3,2,4)              110.3017         estimate D2E/DX2                !
 ! A6    A(3,2,5)              107.2898         estimate D2E/DX2                !
 ! A7    A(4,2,5)              107.0638         estimate D2E/DX2                !
 ! D1    D(6,1,2,3)            151.6764         Frozen                          !
 ! D2    D(6,1,2,4)             28.3789         Frozen                          !
 ! D3    D(6,1,2,5)            -90.0387         Frozen                          !
 --------------------------------------------------------------------------------
 Trust Radius=3.00D-01 FncErr=1.00D-07 GrdErr=1.00D-07
 Number of steps in this run=   2 maximum allowed number of steps= 100.
 GradGradGradGradGradGradGradGradGradGradGradGradGradGradGradGradGradGrad

 Leave Link  103 at Fri Jan  8 11:02:02 2021, MaxMem=13421772800 cpu:       0.1
 (Enter /opt/g09gh/gaussian/g09/l202.exe)
                          Input orientation:                          
 ---------------------------------------------------------------------
 Center     Atomic      Atomic             Coordinates (Angstroms)
 Number     Number       Type             X           Y           Z
 ---------------------------------------------------------------------
      1          8           0        0.749299    0.107426    0.001160
      2          6           0       -0.666494   -0.013365   -0.002473
      3          1           0       -1.016665   -0.538918    0.898207
      4          1           0       -1.025511   -0.526540   -0.908080
      5          1           0       -1.123753    0.987293    0.004286
      6          1           0        1.055524    0.139804   -0.919100
 ---------------------------------------------------------------------
                    Distance matrix (angstroms):
                    1          2          3          4          5
     1  O    0.000000
     2  C    1.420941   0.000000
     3  H    2.083527   1.100023   0.000000
     4  H    2.092506   1.101075   1.806351   0.000000
     5  H    2.069420   1.100204   1.771971   1.770241   0.000000
     6  H    0.970413   1.956786   2.838527   2.185141   2.513986
                    6
     6  H    0.000000
 Stoichiometry    CH4O
 Framework group  C1[X(CH4O)]
 Deg. of freedom    12
 Full point group                 C1      NOp   1
 Largest Abelian subgroup         C1      NOp   1
 Largest concise Abelian subgroup C1      NOp   1
                         Standard orientation:                         
 ---------------------------------------------------------------------
 Center     Atomic      Atomic             Coordinates (Angstroms)
 Number     Number       Type             X           Y           Z
 ---------------------------------------------------------------------
      1          8           0        0.748905   -0.129157   -0.000273
      2          6           0       -0.664391    0.017939   -0.005862
      3          1           0       -1.145497   -0.843298   -0.492542
      4          1           0       -0.970802    0.954580   -0.496965
      5          1           0       -1.036733    0.059013    1.028605
      6          1           0        1.148136    0.755327   -0.001745
 ---------------------------------------------------------------------
 Rotational constants (GHZ):    126.9543103     24.7418335     23.7414433
 Leave Link  202 at Fri Jan  8 11:02:02 2021, MaxMem=13421772800 cpu:       0.0
 (Enter /opt/g09gh/gaussian/g09/l301.exe)
 Standard basis: 3-21G (6D, 7F)
 Ernie: Thresh=  0.10000D-02 Tol=  0.10000D-05 Strict=F.
 There are    26 symmetry adapted basis functions of A   symmetry.
 Integral buffers will be    131072 words long.
 Raffenetti 1 integral format.
 Two-electron integral symmetry is turned on.
    26 basis functions,    42 primitive gaussians,    26 cartesian basis functions
     9 alpha electrons        9 beta electrons
       nuclear repulsion energy        40.1470678944 Hartrees.
 IExCor=    0 DFT=F Ex=HF Corr=None ExCW=0 ScaHFX=  1.000000
 ScaDFX=  1.000000  1.000000  1.000000  1.000000 ScalE2=  1.000000  1.000000
 IRadAn=      0 IRanWt=     -1 IRanGd=            0 ICorTp=0
 NAtoms=    6 NActive=    6 NUniq=    6 SFac= 7.50D-01 NAtFMM=   80 NAOKFM=F Big=F
 Leave Link  301 at Fri Jan  8 11:02:02 2021, MaxMem=13421772800 cpu:       0.5
 (Enter /opt/g09gh/gaussian/g09/l302.exe)
 NPDir=0 NMtPBC=     1 NCelOv=     1 NCel=       1 NClECP=     1 NCelD=      1
         NCelK=      1 NCelE2=     1 NClLst=     1 CellRange=     0.0.
 One-electron integrals computed using PRISM.
 NBasis=    26 RedAO= T  NBF=    26
 NBsUse=    26 1.00D-06 NBFU=    26
 Leave Link  302 at Fri Jan  8 11:02:02 2021, MaxMem=13421772800 cpu:       0.9
 (Enter /opt/g09gh/gaussian/g09/l303.exe)
 DipDrv:  MaxL=1.
 Leave Link  303 at Fri Jan  8 11:02:02 2021, MaxMem=13421772800 cpu:       0.3
 (Enter /opt/g09gh/gaussian/g09/l401.exe)
 Harris functional with IExCor=  205 diagonalized for initial guess.
 ExpMin= 1.83D-01 ExpMax= 3.22D+02 ExpMxC= 3.22D+02 IAcc=1 IRadAn=         1 AccDes= 0.00D+00
 HarFok:  IExCor=  205 AccDes= 0.00D+00 IRadAn=         1 IDoV= 1
 ScaDFX=  1.000000  1.000000  1.000000  1.000000
 FoFCou: FMM=F IPFlag=           0 FMFlag=      100000 FMFlg1=           0
         NFxFlg=           0 DoJE=T BraDBF=F KetDBF=T FulRan=T
         Omega=  0.000000  0.000000  1.000000  0.000000  0.000000 ICntrl=     500 IOpCl=  0
         NMat0=    1 NMatS0=    1 NMatT0=    0 NMatD0=    1 NMtDS0=    0 NMtDT0=    0
         I1Cent=           4 NGrid=           0.
 Petite list used in FoFCou.
 Harris En= -114.570489555276    
 Initial guess orbital symmetries:
       Occupied  (A) (A) (A) (A) (A) (A) (A) (A) (A)
       Virtual   (A) (A) (A) (A) (A) (A) (A) (A) (A) (A) (A) (A)
                 (A) (A) (A) (A) (A)
 The electronic state of the initial guess is 1-A.
 Leave Link  401 at Fri Jan  8 11:02:02 2021, MaxMem=13421772800 cpu:       1.1
 (Enter /opt/g09gh/gaussian/g09/l502.exe)
 Closed shell SCF:
 Requested convergence on RMS density matrix=1.00D-08 within 128 cycles.
 Requested convergence on MAX density matrix=1.00D-06.
 Requested convergence on             energy=1.00D-06.
 No special actions if energy rises.
 Using DIIS extrapolation, IDIIS=  1040.
 Integral symmetry usage will be decided dynamically.
 Keep R1 ints in memory in canonical form, NReq=882380.
 IEnd=       20590 IEndB=       20590 NGot= 13421772800 MDV= 13421707749
 LenX= 13421707749 LenY= 13421706632
 Symmetry not used in FoFDir.
 MinBra= 0 MaxBra= 1 Meth= 1.
 IRaf=       0 NMat=   1 IRICut=       1 DoRegI=T DoRafI=F ISym2E= 0 JSym2E=0.

 Cycle   1  Pass 1  IDiag  1:
 E= -114.309615283381    
 DIIS: error= 4.70D-02 at cycle   1 NSaved=   1.
 NSaved= 1 IEnMin= 1 EnMin= -114.309615283381     IErMin= 1 ErrMin= 4.70D-02
 ErrMax= 4.70D-02 EMaxC= 1.00D-01 BMatC= 1.28D-01 BMatP= 1.28D-01
 IDIUse=3 WtCom= 5.30D-01 WtEn= 4.70D-01
 Coeff-Com:  0.100D+01
 Coeff-En:   0.100D+01
 Coeff:      0.100D+01
 Gap=     0.659 Goal=   None    Shift=    0.000
 GapD=    0.659 DampG=2.000 DampE=0.500 DampFc=1.0000 IDamp=-1.
 RMSDP=1.17D-02 MaxDP=6.44D-02              OVMax= 8.65D-02

 Cycle   2  Pass 1  IDiag  1:
 E= -114.381844991793     Delta-E=       -0.072229708412 Rises=F Damp=F
 DIIS: error= 2.53D-02 at cycle   2 NSaved=   2.
 NSaved= 2 IEnMin= 2 EnMin= -114.381844991793     IErMin= 2 ErrMin= 2.53D-02
 ErrMax= 2.53D-02 EMaxC= 1.00D-01 BMatC= 2.01D-02 BMatP= 1.28D-01
 IDIUse=3 WtCom= 7.47D-01 WtEn= 2.53D-01
 Coeff-Com:  0.242D+00 0.758D+00
 Coeff-En:   0.000D+00 0.100D+01
 Coeff:      0.181D+00 0.819D+00
 Gap=     0.702 Goal=   None    Shift=    0.000
 RMSDP=4.08D-03 MaxDP=2.53D-02 DE=-7.22D-02 OVMax= 2.24D-02

 Cycle   3  Pass 1  IDiag  1:
 E= -114.394252018415     Delta-E=       -0.012407026623 Rises=F Damp=F
 DIIS: error= 6.17D-03 at cycle   3 NSaved=   3.
 NSaved= 3 IEnMin= 3 EnMin= -114.394252018415     IErMin= 3 ErrMin= 6.17D-03
 ErrMax= 6.17D-03 EMaxC= 1.00D-01 BMatC= 8.51D-04 BMatP= 2.01D-02
 IDIUse=3 WtCom= 9.38D-01 WtEn= 6.17D-02
 Coeff-Com: -0.159D-01 0.135D+00 0.881D+00
 Coeff-En:   0.000D+00 0.000D+00 0.100D+01
 Coeff:     -0.149D-01 0.126D+00 0.889D+00
 Gap=     0.684 Goal=   None    Shift=    0.000
 RMSDP=7.53D-04 MaxDP=5.68D-03 DE=-1.24D-02 OVMax= 6.45D-03

 Cycle   4  Pass 1  IDiag  1:
 E= -114.394837900068     Delta-E=       -0.000585881653 Rises=F Damp=F
 DIIS: error= 1.40D-03 at cycle   4 NSaved=   4.
 NSaved= 4 IEnMin= 4 EnMin= -114.394837900068     IErMin= 4 ErrMin= 1.40D-03
 ErrMax= 1.40D-03 EMaxC= 1.00D-01 BMatC= 3.72D-05 BMatP= 8.51D-04
 IDIUse=3 WtCom= 9.86D-01 WtEn= 1.40D-02
 Coeff-Com: -0.780D-02 0.912D-02 0.218D+00 0.780D+00
 Coeff-En:   0.000D+00 0.000D+00 0.000D+00 0.100D+01
 Coeff:     -0.769D-02 0.899D-02 0.215D+00 0.783D+00
 Gap=     0.685 Goal=   None    Shift=    0.000
 RMSDP=1.76D-04 MaxDP=1.06D-03 DE=-5.86D-04 OVMax= 1.30D-03

 Cycle   5  Pass 1  IDiag  1:
 E= -114.394867538231     Delta-E=       -0.000029638163 Rises=F Damp=F
 DIIS: error= 2.60D-04 at cycle   5 NSaved=   5.
 NSaved= 5 IEnMin= 5 EnMin= -114.394867538231     IErMin= 5 ErrMin= 2.60D-04
 ErrMax= 2.60D-04 EMaxC= 1.00D-01 BMatC= 1.33D-06 BMatP= 3.72D-05
 IDIUse=3 WtCom= 9.97D-01 WtEn= 2.60D-03
 Coeff-Com:  0.268D-02-0.143D-01-0.106D+00-0.136D+00 0.125D+01
 Coeff-En:   0.000D+00 0.000D+00 0.000D+00 0.000D+00 0.100D+01
 Coeff:      0.267D-02-0.142D-01-0.106D+00-0.136D+00 0.125D+01
 Gap=     0.686 Goal=   None    Shift=    0.000
 RMSDP=7.88D-05 MaxDP=3.87D-04 DE=-2.96D-05 OVMax= 5.49D-04

 Cycle   6  Pass 1  IDiag  1:
 E= -114.394869848445     Delta-E=       -0.000002310214 Rises=F Damp=F
 DIIS: error= 4.16D-05 at cycle   6 NSaved=   6.
 NSaved= 6 IEnMin= 6 EnMin= -114.394869848445     IErMin= 6 ErrMin= 4.16D-05
 ErrMax= 4.16D-05 EMaxC= 1.00D-01 BMatC= 1.58D-08 BMatP= 1.33D-06
 IDIUse=1 WtCom= 1.00D+00 WtEn= 0.00D+00
 Coeff-Com: -0.683D-03 0.417D-02 0.298D-01 0.227D-01-0.377D+00 0.132D+01
 Coeff:     -0.683D-03 0.417D-02 0.298D-01 0.227D-01-0.377D+00 0.132D+01
 Gap=     0.686 Goal=   None    Shift=    0.000
 RMSDP=1.18D-05 MaxDP=7.10D-05 DE=-2.31D-06 OVMax= 7.17D-05

 Cycle   7  Pass 1  IDiag  1:
 E= -114.394869881424     Delta-E=       -0.000000032979 Rises=F Damp=F
 DIIS: error= 2.77D-06 at cycle   7 NSaved=   7.
 NSaved= 7 IEnMin= 7 EnMin= -114.394869881424     IErMin= 7 ErrMin= 2.77D-06
 ErrMax= 2.77D-06 EMaxC= 1.00D-01 BMatC= 2.62D-10 BMatP= 1.58D-08
 IDIUse=1 WtCom= 1.00D+00 WtEn= 0.00D+00
 Coeff-Com:  0.152D-03-0.948D-03-0.690D-02-0.454D-02 0.899D-01-0.392D+00
 Coeff-Com:  0.131D+01
 Coeff:      0.152D-03-0.948D-03-0.690D-02-0.454D-02 0.899D-01-0.392D+00
 Coeff:      0.131D+01
 Gap=     0.686 Goal=   None    Shift=    0.000
 RMSDP=1.79D-06 MaxDP=9.39D-06 DE=-3.30D-08 OVMax= 1.55D-05

 Cycle   8  Pass 1  IDiag  1:
 E= -114.394869882133     Delta-E=       -0.000000000709 Rises=F Damp=F
 DIIS: error= 5.93D-07 at cycle   8 NSaved=   8.
 NSaved= 8 IEnMin= 8 EnMin= -114.394869882133     IErMin= 8 ErrMin= 5.93D-07
 ErrMax= 5.93D-07 EMaxC= 1.00D-01 BMatC= 1.06D-11 BMatP= 2.62D-10
 IDIUse=1 WtCom= 1.00D+00 WtEn= 0.00D+00
 Coeff-Com: -0.246D-04 0.156D-03 0.116D-02 0.345D-03-0.147D-01 0.773D-01
 Coeff-Com: -0.385D+00 0.132D+01
 Coeff:     -0.246D-04 0.156D-03 0.116D-02 0.345D-03-0.147D-01 0.773D-01
 Coeff:     -0.385D+00 0.132D+01
 Gap=     0.686 Goal=   None    Shift=    0.000
 RMSDP=3.04D-07 MaxDP=1.42D-06 DE=-7.09D-10 OVMax= 3.24D-06

 Cycle   9  Pass 1  IDiag  1:
 E= -114.394869882159     Delta-E=       -0.000000000026 Rises=F Damp=F
 DIIS: error= 1.72D-07 at cycle   9 NSaved=   9.
 NSaved= 9 IEnMin= 9 EnMin= -114.394869882159     IErMin= 9 ErrMin= 1.72D-07
 ErrMax= 1.72D-07 EMaxC= 1.00D-01 BMatC= 3.89D-13 BMatP= 1.06D-11
 IDIUse=1 WtCom= 1.00D+00 WtEn= 0.00D+00
 Coeff-Com:  0.593D-05-0.383D-04-0.286D-03 0.364D-05 0.351D-02-0.208D-01
 Coeff-Com:  0.124D+00-0.592D+00 0.149D+01
 Coeff:      0.593D-05-0.383D-04-0.286D-03 0.364D-05 0.351D-02-0.208D-01
 Coeff:      0.124D+00-0.592D+00 0.149D+01
 Gap=     0.686 Goal=   None    Shift=    0.000
 RMSDP=7.64D-08 MaxDP=6.78D-07 DE=-2.61D-11 OVMax= 8.40D-07

 Cycle  10  Pass 1  IDiag  1:
 E= -114.394869882160     Delta-E=       -0.000000000001 Rises=F Damp=F
 DIIS: error= 1.74D-08 at cycle  10 NSaved=  10.
 NSaved=10 IEnMin=10 EnMin= -114.394869882160     IErMin=10 ErrMin= 1.74D-08
 ErrMax= 1.74D-08 EMaxC= 1.00D-01 BMatC= 8.42D-15 BMatP= 3.89D-13
 IDIUse=1 WtCom= 1.00D+00 WtEn= 0.00D+00
 Coeff-Com: -0.106D-05 0.678D-05 0.523D-04-0.151D-04-0.631D-03 0.418D-02
 Coeff-Com: -0.275D-01 0.146D+00-0.463D+00 0.134D+01
 Coeff:     -0.106D-05 0.678D-05 0.523D-04-0.151D-04-0.631D-03 0.418D-02
 Coeff:     -0.275D-01 0.146D+00-0.463D+00 0.134D+01
 Gap=     0.686 Goal=   None    Shift=    0.000
 RMSDP=9.11D-09 MaxDP=6.47D-08 DE=-1.34D-12 OVMax= 7.98D-08

 SCF Done:  E(RHF) =  -114.394869882     A.U. after   10 cycles
             Convg  =    0.9114D-08             -V/T =  2.0030
 KE= 1.140510703781D+02 PE=-3.497463038474D+02 EE= 8.115329569276D+01
 Leave Link  502 at Fri Jan  8 11:02:02 2021, MaxMem=13421772800 cpu:       0.5
 (Enter /opt/g09gh/gaussian/g09/l601.exe)
 Copying SCF densities to generalized density rwf, IOpCl= 0 IROHF=0.

 **********************************************************************

            Population analysis using the SCF density.

 **********************************************************************

 Orbital symmetries:
       Occupied  (A) (A) (A) (A) (A) (A) (A) (A) (A)
       Virtual   (A) (A) (A) (A) (A) (A) (A) (A) (A) (A) (A) (A)
                 (A) (A) (A) (A) (A)
 The electronic state is 1-A.
 Alpha  occ. eigenvalues --  -20.43729 -11.21702  -1.34347  -0.91977  -0.67178
 Alpha  occ. eigenvalues --   -0.61071  -0.58410  -0.48103  -0.42914
 Alpha virt. eigenvalues --    0.25656   0.31007   0.34857   0.35035   0.43400
 Alpha virt. eigenvalues --    0.96049   0.96220   0.97505   1.24589   1.29039
 Alpha virt. eigenvalues --    1.30416   1.34196   1.87138   1.88204   1.98493
 Alpha virt. eigenvalues --    2.14785   3.34370
          Condensed to atoms (all electrons):
              1          2          3          4          5          6
     1  O    8.283102   0.224714  -0.027844  -0.030480  -0.039068   0.269538
     2  C    0.224714   4.997995   0.367988   0.355193   0.355129  -0.050664
     3  H   -0.027844   0.367988   0.517582  -0.028131  -0.041109   0.004253
     4  H   -0.030480   0.355193  -0.028131   0.586599  -0.041911  -0.008418
     5  H   -0.039068   0.355129  -0.041109  -0.041911   0.585710   0.000973
     6  H    0.269538  -0.050664   0.004253  -0.008418   0.000973   0.408688
 Mulliken atomic charges:
              1
     1  O   -0.679962
     2  C   -0.250355
     3  H    0.207261
     4  H    0.167149
     5  H    0.180277
     6  H    0.375630
 Sum of Mulliken atomic charges =   0.00000
 Mulliken charges with hydrogens summed into heavy atoms:
              1
     1  O   -0.304331
     2  C    0.304331
 Sum of Mulliken charges with hydrogens summed into heavy atoms =   0.00000
 Electronic spatial extent (au):  <R**2>=             84.4074
 Charge=              0.0000 electrons
 Dipole moment (field-independent basis, Debye):
    X=             -1.1032    Y=              1.8857    Z=             -0.0605  Tot=              2.1856
 Quadrupole moment (field-independent basis, Debye-Ang):
   XX=            -12.6352   YY=            -12.0863   ZZ=            -13.5788
   XY=              2.4785   XZ=              0.0832   YZ=              0.0582
 Traceless Quadrupole moment (field-independent basis, Debye-Ang):
   XX=              0.1316   YY=              0.6805   ZZ=             -0.8120
   XY=              2.4785   XZ=              0.0832   YZ=              0.0582
 Octapole moment (field-independent basis, Debye-Ang**2):
  XXX=              4.5348  YYY=              1.1020  ZZZ=              0.3769  XYY=              1.9680
  XXY=              2.3495  XXZ=             -0.1269  XZZ=              0.8248  YZZ=              0.1215
  YYZ=             -0.5034  XYZ=             -0.1437
 Hexadecapole moment (field-independent basis, Debye-Ang**3):
 XXXX=            -58.9098 YYYY=            -18.7563 ZZZZ=            -17.9077 XXXY=              3.8646
 XXXZ=              0.2236 YYYX=              2.1303 YYYZ=              0.0351 ZZZX=             -0.4452
 ZZZY=              0.1175 XXYY=            -11.7590 XXZZ=            -13.1829 YYZZ=             -6.2615
 XXYZ=              0.2432 YYXZ=              0.6093 ZZXY=              0.4054
 N-N= 4.014706789442D+01 E-N=-3.497463039385D+02  KE= 1.140510703781D+02
 No NMR shielding tensors so no spin-rotation constants.
 Leave Link  601 at Fri Jan  8 11:02:02 2021, MaxMem=13421772800 cpu:       0.7
 (Enter /opt/g09gh/gaussian/g09/l701.exe)
 Compute integral first derivatives.
 ... and contract with generalized density number  0.
 Leave Link  701 at Fri Jan  8 11:02:03 2021, MaxMem=13421772800 cpu:       0.7
 (Enter /opt/g09gh/gaussian/g09/l702.exe)
 L702 exits ... SP integral derivatives will be done elsewhere.
 Leave Link  702 at Fri Jan  8 11:02:03 2021, MaxMem=13421772800 cpu:       0.3
 (Enter /opt/g09gh/gaussian/g09/l703.exe)
 Compute integral first derivatives, UseDBF=F ICtDFT=           0.
 Integral derivatives from FoFDir, PRISM(SPDF).
 Calling FoFJK, ICntrl=      2127 FMM=F ISym2X=0 I1Cent= 0 IOpClX= 0 NMat=1 NMatS=1 NMatT=0.
 FoFCou: FMM=F IPFlag=           0 FMFlag=      100000 FMFlg1=         800
         NFxFlg=           0 DoJE=F BraDBF=F KetDBF=F FulRan=T
         Omega=  0.000000  0.000000  1.000000  0.000000  0.000000 ICntrl=    2127 IOpCl=  0
         NMat0=    1 NMatS0=    1 NMatT0=    0 NMatD0=    1 NMtDS0=    0 NMtDT0=    0
         I1Cent=           0 NGrid=           0.
 Symmetry not used in FoFCou.
 Leave Link  703 at Fri Jan  8 11:02:03 2021, MaxMem=13421772800 cpu:       0.5
 (Enter /opt/g09gh/gaussian/g09/l716.exe)
 Dipole        =-4.34029261D-01 7.41904067D-01-2.38097349D-02
 ***** Axes restored to original set *****
 -------------------------------------------------------------------
 Center     Atomic                   Forces (Hartrees/Bohr)
 Number     Number              X              Y              Z
 -------------------------------------------------------------------
      1        8           0.014301207   -0.005751390   -0.005198949
      2        6          -0.027513574    0.009537040   -0.001842246
      3        1           0.008922342    0.003313796   -0.012489699
      4        1           0.000285288    0.000390221    0.012307364
      5        1           0.000766643   -0.009404781    0.000076431
      6        1           0.003238093    0.001915113    0.007147099
 -------------------------------------------------------------------
 Cartesian Forces:  Max     0.027513574 RMS     0.009627917
 Leave Link  716 at Fri Jan  8 11:02:03 2021, MaxMem=13421772800 cpu:       0.3
 (Enter /opt/g09gh/gaussian/g09/l103.exe)

 GradGradGradGradGradGradGradGradGradGradGradGradGradGradGradGradGradGrad
 Berny optimization.
 Internal  Forces:  Max     0.017154624 RMS     0.008578078
 Search for a local minimum.
 Step number   1 out of a maximum of    2
 All quantities printed in internal units (Hartrees-Bohrs-Radians)
 RMS Force = .89889D-02 SwitMx=.10000D-02 MixMth= 1
 Mixed Optimization -- RFO/linear search
 Second derivative matrix not updated -- first step.
 The second derivative matrix:
                          R1        R2        R3        R4        R5
           R1           0.42319
           R2           0.00000   0.53293
           R3           0.00000   0.00000   0.33680
           R4           0.00000   0.00000   0.00000   0.33564
           R5           0.00000   0.00000   0.00000   0.00000   0.33660
           A1           0.00000   0.00000   0.00000   0.00000   0.00000
           A2           0.00000   0.00000   0.00000   0.00000   0.00000
           A3           0.00000   0.00000   0.00000   0.00000   0.00000
           A4           0.00000   0.00000   0.00000   0.00000   0.00000
           A5           0.00000   0.00000   0.00000   0.00000   0.00000
           A6           0.00000   0.00000   0.00000   0.00000   0.00000
           A7           0.00000   0.00000   0.00000   0.00000   0.00000
           D1           0.00000   0.00000   0.00000   0.00000   0.00000
           D2           0.00000   0.00000   0.00000   0.00000   0.00000
           D3           0.00000   0.00000   0.00000   0.00000   0.00000
                          A1        A2        A3        A4        A5
           A1           0.16000
           A2           0.00000   0.16000
           A3           0.00000   0.00000   0.16000
           A4           0.00000   0.00000   0.00000   0.16000
           A5           0.00000   0.00000   0.00000   0.00000   0.16000
           A6           0.00000   0.00000   0.00000   0.00000   0.00000
           A7           0.00000   0.00000   0.00000   0.00000   0.00000
           D1           0.00000   0.00000   0.00000   0.00000   0.00000
           D2           0.00000   0.00000   0.00000   0.00000   0.00000
           D3           0.00000   0.00000   0.00000   0.00000   0.00000
                          A6        A7        D1        D2        D3
           A6           0.16000
           A7           0.00000   0.16000
           D1           0.00000   0.00000   0.01415
           D2           0.00000   0.00000   0.00000   0.01415
           D3           0.00000   0.00000   0.00000   0.00000   0.01415
     Eigenvalues ---    0.16000   0.16000   0.16000   0.16000   0.33564
     Eigenvalues ---    0.33660   0.33680   0.42319   0.532931000.00000
     Eigenvalues --- 1000.000001000.000001000.000001000.000001000.00000
 RFO step:  Lambda=-3.40924014D-03 EMin= 1.60000000D-01
 Linear search not attempted -- first point.
 Iteration  1 RMS(Cart)=  0.04996711 RMS(Int)=  0.00126787
 Iteration  2 RMS(Cart)=  0.00117129 RMS(Int)=  0.00020640
 Iteration  3 RMS(Cart)=  0.00000071 RMS(Int)=  0.00020640
 Iteration  1 RMS(Cart)=  0.00008927 RMS(Int)=  0.00011796
 Iteration  2 RMS(Cart)=  0.00005228 RMS(Int)=  0.00013149
 Iteration  3 RMS(Cart)=  0.00003065 RMS(Int)=  0.00014967
 Iteration  4 RMS(Cart)=  0.00001798 RMS(Int)=  0.00016271
 Iteration  5 RMS(Cart)=  0.00001056 RMS(Int)=  0.00017097
 Iteration  6 RMS(Cart)=  0.00000621 RMS(Int)=  0.00017601
 Iteration  7 RMS(Cart)=  0.00000365 RMS(Int)=  0.00017902
 Iteration  8 RMS(Cart)=  0.00000215 RMS(Int)=  0.00018081
 Iteration  9 RMS(Cart)=  0.00000127 RMS(Int)=  0.00018186
 Iteration 10 RMS(Cart)=  0.00000075 RMS(Int)=  0.00018249
 Variable       Old X    -DE/DX   Delta X   Delta X   Delta X     New X
                                 (Linear)    (Quad)   (Total)
    R1        2.68519   0.01715   0.00000   0.04021   0.04021   2.72540
    R2        1.83381  -0.00569   0.00000  -0.01061  -0.01061   1.82320
    R3        2.07874  -0.01465   0.00000  -0.04306  -0.04306   2.03568
    R4        2.08073  -0.01040   0.00000  -0.03067  -0.03067   2.05006
    R5        2.07908  -0.00887   0.00000  -0.02609  -0.02609   2.05299
    A1        1.89107   0.01005   0.00000   0.06148   0.06148   1.95255
    A2        1.93446  -0.01031   0.00000  -0.04582  -0.04528   1.88918
    A3        1.94615   0.00539   0.00000   0.03485   0.03470   1.98085
    A4        1.91429   0.00772   0.00000   0.02845   0.02826   1.94254
    A5        1.92513  -0.00445   0.00000   0.00633   0.00685   1.93197
    A6        1.87256   0.00184   0.00000   0.00830   0.00879   1.88136
    A7        1.86862   0.00021   0.00000  -0.03212  -0.03291   1.83571
    D1        2.64725  -0.00240   0.00000   0.00000   0.00000   2.64725
    D2        0.49530   0.00694   0.00000   0.00000   0.00000   0.49531
    D3       -1.57147  -0.00161   0.00000   0.00000   0.00000  -1.57147
         Item               Value     Threshold  Converged?
 Maximum Force            0.017155     0.002500     NO 
 RMS     Force            0.008989     0.001667     NO 
 Maximum Displacement     0.112027     0.010000     NO 
 RMS     Displacement     0.049498     0.006667     NO 
 Predicted change in Energy=-1.719805D-03
 GradGradGradGradGradGradGradGradGradGradGradGradGradGradGradGradGradGrad

 Leave Link  103 at Fri Jan  8 11:02:03 2021, MaxMem=13421772800 cpu:       0.0
 (Enter /opt/g09gh/gaussian/g09/l202.exe)
                          Input orientation:                          
 ---------------------------------------------------------------------
 Center     Atomic      Atomic             Coordinates (Angstroms)
 Number     Number       Type             X           Y           Z
 ---------------------------------------------------------------------
      1          8           0        0.754787    0.101068   -0.006692
      2          6           0       -0.683041   -0.011341   -0.010417
      3          1           0       -0.983072   -0.529752    0.884942
      4          1           0       -1.075702   -0.508488   -0.891074
      5          1           0       -1.155378    0.966962   -0.001691
      6          1           0        1.114806    0.137252   -0.901068
 ---------------------------------------------------------------------
                    Distance matrix (angstroms):
                    1          2          3          4          5
     1  O    0.000000
     2  C    1.442221   0.000000
     3  H    2.052584   1.077236   0.000000
     4  H    2.122352   1.084847   1.778557   0.000000
     5  H    2.097266   1.086395   1.748130   1.724616   0.000000
     6  H    0.964797   2.011864   2.834753   2.283726   2.578960
                    6
     6  H    0.000000
 Stoichiometry    CH4O
 Framework group  C1[X(CH4O)]
 Deg. of freedom    12
 Full point group                 C1      NOp   1
 Largest Abelian subgroup         C1      NOp   1
 Largest concise Abelian subgroup C1      NOp   1
                         Standard orientation:                         
 ---------------------------------------------------------------------
 Center     Atomic      Atomic             Coordinates (Angstroms)
 Number     Number       Type             X           Y           Z
 ---------------------------------------------------------------------
      1          8           0        0.757667   -0.121402    0.005825
      2          6           0       -0.677877    0.016543   -0.007711
      3          1           0       -1.096942   -0.863890   -0.465597
      4          1           0       -1.021517    0.912410   -0.513899
      5          1           0       -1.076925    0.088512    1.000176
      6          1           0        1.201311    0.734923   -0.021013
 ---------------------------------------------------------------------
 Rotational constants (GHZ):    132.2593737     24.0784289     23.1597085
 Leave Link  202 at Fri Jan  8 11:02:03 2021, MaxMem=13421772800 cpu:       0.0
 (Enter /opt/g09gh/gaussian/g09/l301.exe)
 Standard basis: 3-21G (6D, 7F)
 Ernie: Thresh=  0.10000D-02 Tol=  0.10000D-05 Strict=F.
 There are    26 symmetry adapted basis functions of A   symmetry.
 Integral buffers will be    131072 words long.
 Raffenetti 1 integral format.
 Two-electron integral symmetry is turned on.
    26 basis functions,    42 primitive gaussians,    26 cartesian basis functions
     9 alpha electrons        9 beta electrons
       nuclear repulsion energy        39.9812276408 Hartrees.
 IExCor=    0 DFT=F Ex=HF Corr=None ExCW=0 ScaHFX=  1.000000
 ScaDFX=  1.000000  1.000000  1.000000  1.000000 ScalE2=  1.000000  1.000000
 IRadAn=      0 IRanWt=     -1 IRanGd=            0 ICorTp=0
 NAtoms=    6 NActive=    6 NUniq=    6 SFac= 7.50D-01 NAtFMM=   80 NAOKFM=F Big=F
 Leave Link  301 at Fri Jan  8 11:02:03 2021, MaxMem=13421772800 cpu:       0.4
 (Enter /opt/g09gh/gaussian/g09/l302.exe)
 NPDir=0 NMtPBC=     1 NCelOv=     1 NCel=       1 NClECP=     1 NCelD=      1
         NCelK=      1 NCelE2=     1 NClLst=     1 CellRange=     0.0.
 One-electron integrals computed using PRISM.
 NBasis=    26 RedAO= T  NBF=    26
 NBsUse=    26 1.00D-06 NBFU=    26
 Leave Link  302 at Fri Jan  8 11:02:03 2021, MaxMem=13421772800 cpu:       0.8
 (Enter /opt/g09gh/gaussian/g09/l303.exe)
 DipDrv:  MaxL=1.
 Leave Link  303 at Fri Jan  8 11:02:03 2021, MaxMem=13421772800 cpu:       0.3
 (Enter /opt/g09gh/gaussian/g09/l401.exe)
 Initial guess read from the read-write file.
 B after Tr=     0.000000    0.000000    0.000000
         Rot=    1.000000    0.000000    0.000000    0.000000 Ang=   0.00 deg.
 Guess basis will be translated and rotated to current coordinates.
 Initial guess orbital symmetries:
       Occupied  (A) (A) (A) (A) (A) (A) (A) (A) (A)
       Virtual   (A) (A) (A) (A) (A) (A) (A) (A) (A) (A) (A) (A)
                 (A) (A) (A) (A) (A)
 The electronic state of the initial guess is 1-A.
 Generating alternative initial guess.
 Harris functional with IExCor=  205 diagonalized for initial guess.
 ExpMin= 1.83D-01 ExpMax= 3.22D+02 ExpMxC= 3.22D+02 IAcc=1 IRadAn=         1 AccDes= 0.00D+00
 HarFok:  IExCor=  205 AccDes= 0.00D+00 IRadAn=         1 IDoV= 1
 ScaDFX=  1.000000  1.000000  1.000000  1.000000
 FoFCou: FMM=F IPFlag=           0 FMFlag=      100000 FMFlg1=           0
         NFxFlg=           0 DoJE=T BraDBF=F KetDBF=T FulRan=T
         Omega=  0.000000  0.000000  1.000000  0.000000  0.000000 ICntrl=     500 IOpCl=  0
         NMat0=    1 NMatS0=    1 NMatT0=    0 NMatD0=    1 NMtDS0=    0 NMtDT0=    0
         I1Cent=           4 NGrid=           0.
 Petite list used in FoFCou.
 Harris En= -114.572418564370    
 Leave Link  401 at Fri Jan  8 11:02:03 2021, MaxMem=13421772800 cpu:       1.4
 (Enter /opt/g09gh/gaussian/g09/l502.exe)
 Closed shell SCF:
 Requested convergence on RMS density matrix=1.00D-08 within 128 cycles.
 Requested convergence on MAX density matrix=1.00D-06.
 Requested convergence on             energy=1.00D-06.
 No special actions if energy rises.
 Using DIIS extrapolation, IDIIS=  1040.
 Integral symmetry usage will be decided dynamically.
 Keep R1 ints in memory in canonical form, NReq=882380.
 IEnd=       20590 IEndB=       20590 NGot= 13421772800 MDV= 13421707749
 LenX= 13421707749 LenY= 13421706632
 Symmetry not used in FoFDir.
 MinBra= 0 MaxBra= 1 Meth= 1.
 IRaf=       0 NMat=   1 IRICut=       1 DoRegI=T DoRafI=F ISym2E= 0 JSym2E=0.

 Cycle   1  Pass 1  IDiag  1:
 E= -114.394967166390    
 DIIS: error= 3.26D-03 at cycle   1 NSaved=   1.
 NSaved= 1 IEnMin= 1 EnMin= -114.394967166390     IErMin= 1 ErrMin= 3.26D-03
 ErrMax= 3.26D-03 EMaxC= 1.00D-01 BMatC= 8.95D-04 BMatP= 8.95D-04
 IDIUse=3 WtCom= 9.67D-01 WtEn= 3.26D-02
 Coeff-Com:  0.100D+01
 Coeff-En:   0.100D+01
 Coeff:      0.100D+01
 Gap=     0.695 Goal=   None    Shift=    0.000
 GapD=    0.695 DampG=2.000 DampE=1.000 DampFc=2.0000 IDamp=-1.
 RMSDP=1.17D-03 MaxDP=5.63D-03              OVMax= 8.58D-03

 Cycle   2  Pass 1  IDiag  1:
 E= -114.396116147062     Delta-E=       -0.001148980672 Rises=F Damp=F
 DIIS: error= 1.12D-03 at cycle   2 NSaved=   2.
 NSaved= 2 IEnMin= 2 EnMin= -114.396116147062     IErMin= 2 ErrMin= 1.12D-03
 ErrMax= 1.12D-03 EMaxC= 1.00D-01 BMatC= 6.07D-05 BMatP= 8.95D-04
 IDIUse=3 WtCom= 9.89D-01 WtEn= 1.12D-02
 Coeff-Com: -0.165D+00 0.117D+01
 Coeff-En:   0.000D+00 0.100D+01
 Coeff:     -0.163D+00 0.116D+01
 Gap=     0.694 Goal=   None    Shift=    0.000
 RMSDP=4.28D-04 MaxDP=1.62D-03 DE=-1.15D-03 OVMax= 3.68D-03

 Cycle   3  Pass 1  IDiag  1:
 E= -114.396231138284     Delta-E=       -0.000114991222 Rises=F Damp=F
 DIIS: error= 4.20D-04 at cycle   3 NSaved=   3.
 NSaved= 3 IEnMin= 3 EnMin= -114.396231138284     IErMin= 3 ErrMin= 4.20D-04
 ErrMax= 4.20D-04 EMaxC= 1.00D-01 BMatC= 7.13D-06 BMatP= 6.07D-05
 IDIUse=3 WtCom= 9.96D-01 WtEn= 4.20D-03
 Coeff-Com: -0.688D-01 0.181D+00 0.888D+00
 Coeff-En:   0.000D+00 0.000D+00 0.100D+01
 Coeff:     -0.685D-01 0.180D+00 0.888D+00
 Gap=     0.694 Goal=   None    Shift=    0.000
 RMSDP=1.32D-04 MaxDP=5.29D-04 DE=-1.15D-04 OVMax= 1.16D-03

 Cycle   4  Pass 1  IDiag  1:
 E= -114.396242110581     Delta-E=       -0.000010972298 Rises=F Damp=F
 DIIS: error= 1.64D-04 at cycle   4 NSaved=   4.
 NSaved= 4 IEnMin= 4 EnMin= -114.396242110581     IErMin= 4 ErrMin= 1.64D-04
 ErrMax= 1.64D-04 EMaxC= 1.00D-01 BMatC= 6.72D-07 BMatP= 7.13D-06
 IDIUse=3 WtCom= 9.98D-01 WtEn= 1.64D-03
 Coeff-Com:  0.115D-01-0.104D+00 0.351D-01 0.106D+01
 Coeff-En:   0.000D+00 0.000D+00 0.000D+00 0.100D+01
 Coeff:      0.115D-01-0.103D+00 0.350D-01 0.106D+01
 Gap=     0.694 Goal=   None    Shift=    0.000
 RMSDP=6.24D-05 MaxDP=3.58D-04 DE=-1.10D-05 OVMax= 4.80D-04

 Cycle   5  Pass 1  IDiag  1:
 E= -114.396243604602     Delta-E=       -0.000001494020 Rises=F Damp=F
 DIIS: error= 4.71D-05 at cycle   5 NSaved=   5.
 NSaved= 5 IEnMin= 5 EnMin= -114.396243604602     IErMin= 5 ErrMin= 4.71D-05
 ErrMax= 4.71D-05 EMaxC= 1.00D-01 BMatC= 6.00D-08 BMatP= 6.72D-07
 IDIUse=1 WtCom= 1.00D+00 WtEn= 0.00D+00
 Coeff-Com:  0.595D-02-0.251D-01-0.594D-01 0.974D-01 0.981D+00
 Coeff:      0.595D-02-0.251D-01-0.594D-01 0.974D-01 0.981D+00
 Gap=     0.694 Goal=   None    Shift=    0.000
 RMSDP=1.87D-05 MaxDP=1.47D-04 DE=-1.49D-06 OVMax= 1.78D-04

 Cycle   6  Pass 1  IDiag  1:
 E= -114.396243731735     Delta-E=       -0.000000127133 Rises=F Damp=F
 DIIS: error= 1.93D-05 at cycle   6 NSaved=   6.
 NSaved= 6 IEnMin= 6 EnMin= -114.396243731735     IErMin= 6 ErrMin= 1.93D-05
 ErrMax= 1.93D-05 EMaxC= 1.00D-01 BMatC= 6.35D-09 BMatP= 6.00D-08
 IDIUse=1 WtCom= 1.00D+00 WtEn= 0.00D+00
 Coeff-Com: -0.180D-02 0.146D-01-0.134D-03-0.139D+00-0.176D-01 0.114D+01
 Coeff:     -0.180D-02 0.146D-01-0.134D-03-0.139D+00-0.176D-01 0.114D+01
 Gap=     0.694 Goal=   None    Shift=    0.000
 RMSDP=7.43D-06 MaxDP=7.30D-05 DE=-1.27D-07 OVMax= 8.66D-05

 Cycle   7  Pass 1  IDiag  1:
 E= -114.396243748496     Delta-E=       -0.000000016761 Rises=F Damp=F
 DIIS: error= 5.71D-06 at cycle   7 NSaved=   7.
 NSaved= 7 IEnMin= 7 EnMin= -114.396243748496     IErMin= 7 ErrMin= 5.71D-06
 ErrMax= 5.71D-06 EMaxC= 1.00D-01 BMatC= 3.81D-10 BMatP= 6.35D-09
 IDIUse=1 WtCom= 1.00D+00 WtEn= 0.00D+00
 Coeff-Com:  0.506D-03-0.544D-02 0.422D-02 0.581D-01-0.470D-01-0.556D+00
 Coeff-Com:  0.155D+01
 Coeff:      0.506D-03-0.544D-02 0.422D-02 0.581D-01-0.470D-01-0.556D+00
 Coeff:      0.155D+01
 Gap=     0.694 Goal=   None    Shift=    0.000
 RMSDP=2.72D-06 MaxDP=2.50D-05 DE=-1.68D-08 OVMax= 3.25D-05

 Cycle   8  Pass 1  IDiag  1:
 E= -114.396243749966     Delta-E=       -0.000000001471 Rises=F Damp=F
 DIIS: error= 6.27D-07 at cycle   8 NSaved=   8.
 NSaved= 8 IEnMin= 8 EnMin= -114.396243749966     IErMin= 8 ErrMin= 6.27D-07
 ErrMax= 6.27D-07 EMaxC= 1.00D-01 BMatC= 7.18D-12 BMatP= 3.81D-10
 IDIUse=1 WtCom= 1.00D+00 WtEn= 0.00D+00
 Coeff-Com: -0.114D-03 0.142D-02-0.154D-02-0.152D-01 0.144D-01 0.160D+00
 Coeff-Com: -0.531D+00 0.137D+01
 Coeff:     -0.114D-03 0.142D-02-0.154D-02-0.152D-01 0.144D-01 0.160D+00
 Coeff:     -0.531D+00 0.137D+01
 Gap=     0.694 Goal=   None    Shift=    0.000
 RMSDP=3.28D-07 MaxDP=2.59D-06 DE=-1.47D-09 OVMax= 3.59D-06

 Cycle   9  Pass 1  IDiag  1:
 E= -114.396243749990     Delta-E=       -0.000000000023 Rises=F Damp=F
 DIIS: error= 1.17D-07 at cycle   9 NSaved=   9.
 NSaved= 9 IEnMin= 9 EnMin= -114.396243749990     IErMin= 9 ErrMin= 1.17D-07
 ErrMax= 1.17D-07 EMaxC= 1.00D-01 BMatC= 1.64D-13 BMatP= 7.18D-12
 IDIUse=1 WtCom= 1.00D+00 WtEn= 0.00D+00
 Coeff-Com:  0.306D-04-0.397D-03 0.468D-03 0.421D-02-0.413D-02-0.455D-01
 Coeff-Com:  0.157D+00-0.502D+00 0.139D+01
 Coeff:      0.306D-04-0.397D-03 0.468D-03 0.421D-02-0.413D-02-0.455D-01
 Coeff:      0.157D+00-0.502D+00 0.139D+01
 Gap=     0.694 Goal=   None    Shift=    0.000
 RMSDP=4.47D-08 MaxDP=2.69D-07 DE=-2.34D-11 OVMax= 3.87D-07

 Cycle  10  Pass 1  IDiag  1:
 E= -114.396243749990     Delta-E=        0.000000000000 Rises=F Damp=F
 DIIS: error= 1.53D-08 at cycle  10 NSaved=  10.
 NSaved=10 IEnMin=10 EnMin= -114.396243749990     IErMin=10 ErrMin= 1.53D-08
 ErrMax= 1.53D-08 EMaxC= 1.00D-01 BMatC= 4.27D-15 BMatP= 1.64D-13
 IDIUse=1 WtCom= 1.00D+00 WtEn= 0.00D+00
 Coeff-Com: -0.603D-05 0.803D-04-0.997D-04-0.837D-03 0.827D-03 0.912D-02
 Coeff-Com: -0.321D-01 0.112D+00-0.418D+00 0.133D+01
 Coeff:     -0.603D-05 0.803D-04-0.997D-04-0.837D-03 0.827D-03 0.912D-02
 Coeff:     -0.321D-01 0.112D+00-0.418D+00 0.133D+01
 Gap=     0.694 Goal=   None    Shift=    0.000
 RMSDP=6.96D-09 MaxDP=3.12D-08 DE=-3.98D-13 OVMax= 5.15D-08

 SCF Done:  E(RHF) =  -114.396243750     A.U. after   10 cycles
             Convg  =    0.6959D-08             -V/T =  2.0028
 KE= 1.140784750074D+02 PE=-3.494761241432D+02 EE= 8.102017774503D+01
 Leave Link  502 at Fri Jan  8 11:02:03 2021, MaxMem=13421772800 cpu:       0.5
 (Enter /opt/g09gh/gaussian/g09/l701.exe)
 Compute integral first derivatives.
 ... and contract with generalized density number  0.
 Leave Link  701 at Fri Jan  8 11:02:03 2021, MaxMem=13421772800 cpu:       0.7
 (Enter /opt/g09gh/gaussian/g09/l702.exe)
 L702 exits ... SP integral derivatives will be done elsewhere.
 Leave Link  702 at Fri Jan  8 11:02:03 2021, MaxMem=13421772800 cpu:       0.3
 (Enter /opt/g09gh/gaussian/g09/l703.exe)
 Compute integral first derivatives, UseDBF=F ICtDFT=           0.
 Integral derivatives from FoFDir, PRISM(SPDF).
 Calling FoFJK, ICntrl=      2127 FMM=F ISym2X=0 I1Cent= 0 IOpClX= 0 NMat=1 NMatS=1 NMatT=0.
 FoFCou: FMM=F IPFlag=           0 FMFlag=      100000 FMFlg1=         800
         NFxFlg=           0 DoJE=F BraDBF=F KetDBF=F FulRan=T
         Omega=  0.000000  0.000000  1.000000  0.000000  0.000000 ICntrl=    2127 IOpCl=  0
         NMat0=    1 NMatS0=    1 NMatT0=    0 NMatD0=    1 NMtDS0=    0 NMtDT0=    0
         I1Cent=           0 NGrid=           0.
 Symmetry not used in FoFCou.
 Leave Link  703 at Fri Jan  8 11:02:04 2021, MaxMem=13421772800 cpu:       0.6
 (Enter /opt/g09gh/gaussian/g09/l716.exe)
 Dipole        =-4.31803232D-01 7.29736995D-01-4.64109274D-02
 ***** Axes restored to original set *****
 -------------------------------------------------------------------
 Center     Atomic                   Forces (Hartrees/Bohr)
 Number     Number              X              Y              Z
 -------------------------------------------------------------------
      1        8          -0.000285762   -0.004291380    0.002474850
      2        6          -0.003918172    0.012200020   -0.006165946
      3        1           0.001471184   -0.003524436   -0.000807589
      4        1           0.002706676   -0.007373921    0.002317707
      5        1           0.002539239    0.001404020    0.002474985
      6        1          -0.002513164    0.001585698   -0.000294008
 -------------------------------------------------------------------
 Cartesian Forces:  Max     0.012200020 RMS     0.004298618
 Leave Link  716 at Fri Jan  8 11:02:04 2021, MaxMem=13421772800 cpu:       0.3
 (Enter /opt/g09gh/gaussian/g09/l103.exe)

 GradGradGradGradGradGradGradGradGradGradGradGradGradGradGradGradGradGrad
 Berny optimization.
 Using GEDIIS/GDIIS optimizer.
 Internal  Forces:  Max     0.007552238 RMS     0.003344900
 Search for a local minimum.
 Step number   2 out of a maximum of    2
 All quantities printed in internal units (Hartrees-Bohrs-Radians)
 RMS Force = .23022D-02 SwitMx=.10000D-02 MixMth= 1
 Mixed Optimization -- RFO/linear search
 Update second derivatives using D2CorX and points    1    2
 DE= -1.37D-03 DEPred=-1.72D-03 R= 7.99D-01
 SS=  1.41D+00  RLast= 1.19D-01 DXNew= 5.0454D-01 3.5805D-01
 Trust test= 7.99D-01 RLast= 1.19D-01 DXMaxT set to 3.58D-01
 The second derivative matrix:
                          R1        R2        R3        R4        R5
           R1           0.43776
           R2           0.00321   0.52983
           R3          -0.00287  -0.00515   0.33202
           R4          -0.00245  -0.00355  -0.00308   0.33367
           R5          -0.00078  -0.00336  -0.00362  -0.00239   0.33397
           A1           0.02160  -0.00147  -0.01165  -0.00856  -0.00637
           A2           0.00181  -0.00339  -0.00485  -0.00330  -0.00327
           A3           0.01326  -0.00110  -0.00738  -0.00541  -0.00408
           A4           0.01816  -0.00275  -0.01159  -0.00839  -0.00663
           A5          -0.01214   0.00351   0.00972   0.00692   0.00582
           A6          -0.01192   0.00358   0.00970   0.00691   0.00583
           A7          -0.01004   0.00040   0.00508   0.00376   0.00273
           D1          -0.00115   0.00029   0.00087   0.00062   0.00052
           D2           0.00329  -0.00083  -0.00249  -0.00178  -0.00148
           D3          -0.00252   0.00064   0.00191   0.00136   0.00113
                          A1        A2        A3        A4        A5
           A1           0.18183
           A2          -0.00352   0.15645
           A3           0.01308  -0.00235   0.16782
           A4           0.01587  -0.00446   0.00939   0.17065
           A5          -0.00788   0.00464  -0.00452  -0.00416   0.16007
           A6          -0.00751   0.00469  -0.00429  -0.00384  -0.00015
           A7          -0.01061   0.00136  -0.00638  -0.00787   0.00412
           D1          -0.00081   0.00040  -0.00047  -0.00047   0.00008
           D2           0.00233  -0.00114   0.00135   0.00134  -0.00021
           D3          -0.00178   0.00087  -0.00103  -0.00103   0.00016
                          A6        A7        D1        D2        D3
           A6           0.15964
           A7           0.00395   0.16512
           D1           0.00005   0.00042   0.01416
           D2          -0.00016  -0.00120  -0.00004   0.01425
           D3           0.00012   0.00092   0.00003  -0.00008   0.01421
 Use linear search instead of GDIIS.
     Eigenvalues ---    0.14859   0.16000   0.16000   0.19990   0.33276
     Eigenvalues ---    0.33594   0.33689   0.44383   0.530261000.00000
     Eigenvalues --- 1000.000001000.000001000.000001000.000001000.00000
 RFO step:  Lambda=-1.68859439D-04 EMin= 1.48586944D-01
 Quartic linear search produced a step of -0.15852.
 Iteration  1 RMS(Cart)=  0.01392304 RMS(Int)=  0.00012697
 Iteration  2 RMS(Cart)=  0.00009830 RMS(Int)=  0.00005276
 Iteration  3 RMS(Cart)=  0.00000001 RMS(Int)=  0.00005276
 Iteration  1 RMS(Cart)=  0.00000962 RMS(Int)=  0.00001309
 Iteration  2 RMS(Cart)=  0.00000578 RMS(Int)=  0.00001457
 Iteration  3 RMS(Cart)=  0.00000348 RMS(Int)=  0.00001663
 Iteration  4 RMS(Cart)=  0.00000210 RMS(Int)=  0.00001815
 Iteration  5 RMS(Cart)=  0.00000126 RMS(Int)=  0.00001914
 Iteration  6 RMS(Cart)=  0.00000076 RMS(Int)=  0.00001976
 Variable       Old X    -DE/DX   Delta X   Delta X   Delta X     New X
                                 (Linear)    (Quad)   (Total)
    R1        2.72540  -0.00300  -0.00637   0.00244  -0.00393   2.72147
    R2        1.82320  -0.00061   0.00168  -0.00317  -0.00149   1.82171
    R3        2.03568   0.00062   0.00683  -0.00747  -0.00064   2.03504
    R4        2.05006   0.00052   0.00486  -0.00511  -0.00025   2.04981
    R5        2.05299   0.00018   0.00414  -0.00500  -0.00087   2.05212
    A1        1.95255  -0.00424  -0.00975  -0.00933  -0.01907   1.93348
    A2        1.88918  -0.00334   0.00718  -0.01392  -0.00687   1.88232
    A3        1.98085  -0.00289  -0.00550  -0.00641  -0.01196   1.96890
    A4        1.94254  -0.00049  -0.00448  -0.01141  -0.01595   1.92659
    A5        1.93197  -0.00313  -0.00109   0.01137   0.01018   1.94215
    A6        1.88136   0.00280  -0.00139   0.01252   0.01099   1.89234
    A7        1.83571   0.00755   0.00522   0.00965   0.01489   1.85059
    D1        2.64725  -0.00217   0.00000   0.00000   0.00000   2.64725
    D2        0.49531   0.00628   0.00000   0.00000   0.00000   0.49530
    D3       -1.57147  -0.00111   0.00000   0.00000   0.00000  -1.57147
         Item               Value     Threshold  Converged?
 Maximum Force            0.004238     0.002500     NO 
 RMS     Force            0.002302     0.001667     NO 
 Maximum Displacement     0.037019     0.010000     NO 
 RMS     Displacement     0.013963     0.006667     NO 
 Predicted change in Energy=-1.344428D-04
 Optimization stopped.
    -- Number of steps exceeded,  NStep=   2
    -- Flag reset to prevent archiving.
                           ----------------------------
                           ! Non-Optimized Parameters !
                           ! (Angstroms and Degrees)  !
 --------------------------                            --------------------------
 ! Name  Definition              Value          Derivative Info.                !
 --------------------------------------------------------------------------------
 ! R1    R(1,2)                  1.4401         -DE/DX =   -0.003               !
 ! R2    R(1,6)                  0.964          -DE/DX =   -0.0006              !
 ! R3    R(2,3)                  1.0769         -DE/DX =    0.0006              !
 ! R4    R(2,4)                  1.0847         -DE/DX =    0.0005              !
 ! R5    R(2,5)                  1.0859         -DE/DX =    0.0002              !
 ! A1    A(2,1,6)              110.78           -DE/DX =   -0.0042              !
 ! A2    A(1,2,3)              107.8488         -DE/DX =   -0.0033              !
 ! A3    A(1,2,4)              112.8095         -DE/DX =   -0.0029              !
 ! A4    A(1,2,5)              110.3857         -DE/DX =   -0.0005              !
 ! A5    A(3,2,4)              111.277          -DE/DX =   -0.0031              !
 ! A6    A(3,2,5)              108.4232         -DE/DX =    0.0028              !
 ! A7    A(4,2,5)              106.0313         -DE/DX =    0.0076              !
 ! D1    D(6,1,2,3)            151.6764         -DE/DX =   -0.0022              !
 ! D2    D(6,1,2,4)             28.3788         -DE/DX =    0.0063              !
 ! D3    D(6,1,2,5)            -90.0386         -DE/DX =   -0.0011              !
 --------------------------------------------------------------------------------
 GradGradGradGradGradGradGradGradGradGradGradGradGradGradGradGradGradGrad

 Largest change from initial coordinates is atom    4       0.060 Angstoms.
 Leave Link  103 at Fri Jan  8 11:02:04 2021, MaxMem=13421772800 cpu:       0.0
 (Enter /opt/g09gh/gaussian/g09/l202.exe)
                          Input orientation:                          
 ---------------------------------------------------------------------
 Center     Atomic      Atomic             Coordinates (Angstroms)
 Number     Number       Type             X           Y           Z
 ---------------------------------------------------------------------
      1          8           0        0.754787    0.101068   -0.006692
      2          6           0       -0.683041   -0.011341   -0.010417
      3          1           0       -0.983072   -0.529752    0.884942
      4          1           0       -1.075702   -0.508488   -0.891074
      5          1           0       -1.155378    0.966962   -0.001691
      6          1           0        1.114806    0.137252   -0.901068
 ---------------------------------------------------------------------
                    Distance matrix (angstroms):
                    1          2          3          4          5
     1  O    0.000000
     2  C    1.442221   0.000000
     3  H    2.052584   1.077236   0.000000
     4  H    2.122352   1.084847   1.778557   0.000000
     5  H    2.097266   1.086395   1.748130   1.724616   0.000000
     6  H    0.964797   2.011864   2.834753   2.283726   2.578960
                    6
     6  H    0.000000
 Stoichiometry    CH4O
 Framework group  C1[X(CH4O)]
 Deg. of freedom    12
 Full point group                 C1      NOp   1
 Largest Abelian subgroup         C1      NOp   1
 Largest concise Abelian subgroup C1      NOp   1
                         Standard orientation:                         
 ---------------------------------------------------------------------
 Center     Atomic      Atomic             Coordinates (Angstroms)
 Number     Number       Type             X           Y           Z
 ---------------------------------------------------------------------
      1          8           0        0.757667   -0.121402    0.005825
      2          6           0       -0.677877    0.016543   -0.007711
      3          1           0       -1.096942   -0.863890   -0.465597
      4          1           0       -1.021517    0.912410   -0.513899
      5          1           0       -1.076925    0.088512    1.000176
      6          1           0        1.201311    0.734923   -0.021013
 ---------------------------------------------------------------------
 Rotational constants (GHZ):    132.2593737     24.0784289     23.1597085
 Leave Link  202 at Fri Jan  8 11:02:04 2021, MaxMem=13421772800 cpu:       0.0
 (Enter /opt/g09gh/gaussian/g09/l601.exe)
 Copying SCF densities to generalized density rwf, IOpCl= 0 IROHF=0.

 **********************************************************************

            Population analysis using the SCF density.

 **********************************************************************

 Orbital symmetries:
       Occupied  (A) (A) (A) (A) (A) (A) (A) (A) (A)
       Virtual   (A) (A) (A) (A) (A) (A) (A) (A) (A) (A) (A) (A)
                 (A) (A) (A) (A) (A)
 The electronic state is 1-A.
 Alpha  occ. eigenvalues --  -20.43396 -11.21211  -1.33237  -0.92839  -0.67070
 Alpha  occ. eigenvalues --   -0.60729  -0.58179  -0.48127  -0.43076
 Alpha virt. eigenvalues --    0.26293   0.31239   0.34922   0.35428   0.43044
 Alpha virt. eigenvalues --    0.94883   0.94968   0.96745   1.26090   1.31299
 Alpha virt. eigenvalues --    1.31825   1.35415   1.87460   1.89688   1.97684
 Alpha virt. eigenvalues --    2.16334   3.31936
          Condensed to atoms (all electrons):
              1          2          3          4          5          6
     1  O    8.271065   0.235380  -0.029360  -0.027750  -0.035045   0.267311
     2  C    0.235380   4.998734   0.372000   0.351651   0.353546  -0.045053
     3  H   -0.029360   0.372000   0.508082  -0.028712  -0.041008   0.003979
     4  H   -0.027750   0.351651  -0.028712   0.584813  -0.046175  -0.006516
     5  H   -0.035045   0.353546  -0.041008  -0.046175   0.584834   0.000829
     6  H    0.267311  -0.045053   0.003979  -0.006516   0.000829   0.402316
 Mulliken atomic charges:
              1
     1  O   -0.681602
     2  C   -0.266258
     3  H    0.215019
     4  H    0.172688
     5  H    0.183019
     6  H    0.377134
 Sum of Mulliken atomic charges =   0.00000
 Mulliken charges with hydrogens summed into heavy atoms:
              1
     1  O   -0.304468
     2  C    0.304468
 Sum of Mulliken charges with hydrogens summed into heavy atoms =   0.00000
 Electronic spatial extent (au):  <R**2>=             85.0547
 Charge=              0.0000 electrons
 Dipole moment (field-independent basis, Debye):
    X=             -1.0975    Y=              1.8548    Z=             -0.1180  Tot=              2.1584
 Quadrupole moment (field-independent basis, Debye-Ang):
   XX=            -12.2540   YY=            -12.0779   ZZ=            -13.5648
   XY=              2.4570   XZ=             -0.0178   YZ=              0.0602
 Traceless Quadrupole moment (field-independent basis, Debye-Ang):
   XX=              0.3783   YY=              0.5543   ZZ=             -0.9326
   XY=              2.4570   XZ=             -0.0178   YZ=              0.0602
 Octapole moment (field-independent basis, Debye-Ang**2):
  XXX=              4.8034  YYY=              0.9637  ZZZ=              0.3119  XYY=              1.9002
  XXY=              2.6183  XXZ=             -0.1451  XZZ=              0.8034  YZZ=              0.1534
  YYZ=             -0.5023  XYZ=             -0.1784
 Hexadecapole moment (field-independent basis, Debye-Ang**3):
 XXXX=            -59.2605 YYYY=            -18.2774 ZZZZ=            -17.5427 XXXY=              3.9808
 XXXZ=              0.0006 YYYX=              2.1840 YYYZ=              0.0755 ZZZX=             -0.4500
 ZZZY=              0.1353 XXYY=            -11.7797 XXZZ=            -13.3053 YYZZ=             -6.0913
 XXYZ=              0.1635 YYXZ=              0.5521 ZZXY=              0.3614
 N-N= 3.998122764077D+01 E-N=-3.494761241475D+02  KE= 1.140784750074D+02
 No NMR shielding tensors so no spin-rotation constants.
 Leave Link  601 at Fri Jan  8 11:02:04 2021, MaxMem=13421772800 cpu:       0.7
 (Enter /opt/g09gh/gaussian/g09/l9999.exe)


 KNOWLEDGE IS CHIMERA - FOR BEYOND IT LIES OTHER KNOWLEDGE,
 AND THE INCOMPLETENESS OF WHAT IS KNOWN RENDERS THE KNOWING FALSE.
     -- THE THOMAS COVENANT CHRONICLES
 Error termination request processed by link 9999.
 Error termination via Lnk1e in /opt/g09gh/gaussian/g09/l9999.exe at Fri Jan  8 11:02:04 2021.
 Job cpu time:  0 days  0 hours  0 minutes 13.7 seconds.
 File lengths (MBytes):  RWF=      5 Int=      0 D2E=      0 Chk=      1 Scr=      1
