 Entering Gaussian System, Link 0=/opt/g09gh/gaussian/g09/g09
 Input=methanol-opt-2_2-1-302.com
 Output=methanol-opt-2_2-1-302.log
 Initial command:
 /opt/g09gh/gaussian/g09/l1.exe /scratch/bdw2292/Gau-methanol/Gau-41409.inp -scrdir=/scratch/bdw2292/Gau-methanol/
 Entering Link 1 = /opt/g09gh/gaussian/g09/l1.exe PID=     41410.
  
 Copyright (c) 1988,1990,1992,1993,1995,1998,2003,2009, Gaussian, Inc.
                  All Rights Reserved.
  
 This is part of the Gaussian(R) 09 program.  It is based on
 the Gaussian(R) 03 system (copyright 2003, Gaussian, Inc.),
 the Gaussian(R) 98 system (copyright 1998, Gaussian, Inc.),
 the Gaussian(R) 94 system (copyright 1995, Gaussian, Inc.),
 the Gaussian 92(TM) system (copyright 1992, Gaussian, Inc.),
 the Gaussian 90(TM) system (copyright 1990, Gaussian, Inc.),
 the Gaussian 88(TM) system (copyright 1988, Gaussian, Inc.),
 the Gaussian 86(TM) system (copyright 1986, Carnegie Mellon
 University), and the Gaussian 82(TM) system (copyright 1983,
 Carnegie Mellon University). Gaussian is a federally registered
 trademark of Gaussian, Inc.
  
 This software contains proprietary and confidential information,
 including trade secrets, belonging to Gaussian, Inc.
  
 This software is provided under written license and may be
 used, copied, transmitted, or stored only in accord with that
 written license.
  
 The following legend is applicable only to US Government
 contracts under FAR:
  
                    RESTRICTED RIGHTS LEGEND
  
 Use, reproduction and disclosure by the US Government is
 subject to restrictions as set forth in subparagraphs (a)
 and (c) of the Commercial Computer Software - Restricted
 Rights clause in FAR 52.227-19.
  
 Gaussian, Inc.
 340 Quinnipiac St., Bldg. 40, Wallingford CT 06492
  
  
 ---------------------------------------------------------------
 Warning -- This program may not be used in any manner that
 competes with the business of Gaussian, Inc. or will provide
 assistance to any competitor of Gaussian, Inc.  The licensee
 of this program is prohibited from giving any competitor of
 Gaussian, Inc. access to this program.  By using this program,
 the user acknowledges that Gaussian, Inc. is engaged in the
 business of creating and licensing software in the field of
 computational chemistry and represents and warrants to the
 licensee that it is not a competitor of Gaussian, Inc. and that
 it will not use this program in any manner prohibited above.
 ---------------------------------------------------------------
  

 Cite this work as:
 Gaussian 09, Revision A.02,
 M. J. Frisch, G. W. Trucks, H. B. Schlegel, G. E. Scuseria, 
 M. A. Robb, J. R. Cheeseman, G. Scalmani, V. Barone, B. Mennucci, 
 G. A. Petersson, H. Nakatsuji, M. Caricato, X. Li, H. P. Hratchian, 
 A. F. Izmaylov, J. Bloino, G. Zheng, J. L. Sonnenberg, M. Hada, 
 M. Ehara, K. Toyota, R. Fukuda, J. Hasegawa, M. Ishida, T. Nakajima, 
 Y. Honda, O. Kitao, H. Nakai, T. Vreven, J. A. Montgomery, Jr., 
 J. E. Peralta, F. Ogliaro, M. Bearpark, J. J. Heyd, E. Brothers, 
 K. N. Kudin, V. N. Staroverov, R. Kobayashi, J. Normand, 
 K. Raghavachari, A. Rendell, J. C. Burant, S. S. Iyengar, J. Tomasi, 
 M. Cossi, N. Rega, J. M. Millam, M. Klene, J. E. Knox, J. B. Cross, 
 V. Bakken, C. Adamo, J. Jaramillo, R. Gomperts, R. E. Stratmann, 
 O. Yazyev, A. J. Austin, R. Cammi, C. Pomelli, J. W. Ochterski, 
 R. L. Martin, K. Morokuma, V. G. Zakrzewski, G. A. Voth, 
 P. Salvador, J. J. Dannenberg, S. Dapprich, A. D. Daniels, 
 O. Farkas, J. B. Foresman, J. V. Ortiz, J. Cioslowski, 
 and D. J. Fox, Gaussian, Inc., Wallingford CT, 2009.
 
 ******************************************
 Gaussian 09:  EM64L-G09RevA.02 11-Jun-2009
                 8-Jan-2021 
 ******************************************
 %RWF=/scratch/bdw2292/Gau-methanol/,200GB
 %Nosave
 %Chk=methanol-opt-2_2-1-302.chk
 %Mem=100GB
 %Nproc=8
 Will use up to    8 processors via shared memory.
 ------------------------------------------------------------------
 #P opt=(ModRedundant,maxcycle=2,Loose) wB97XD/6-31G* MaxDisk=200GB
 ------------------------------------------------------------------
 1/6=2,7=-1,14=-1,18=120,19=15,26=3,38=1/1,3;
 2/9=110,12=2,17=6,18=5,40=1/2;
 3/5=1,6=6,7=1,11=2,16=1,25=1,30=1,71=1,74=-58/1,2,3;
 4//1;
 5/5=2,38=5/2;
 6/7=2,8=2,9=2,10=2,28=1/1;
 7//1,2,3,16;
 1/6=2,7=-1,14=-1,18=20,19=15/3(2);
 2/9=110/2;
 99//99;
 2/9=110/2;
 3/5=1,6=6,7=1,11=2,16=1,25=1,30=1,71=1,74=-58/1,2,3;
 4/5=5,16=3/1;
 5/5=2,38=5/2;
 7//1,2,3,16;
 1/6=2,7=-1,14=-1,18=20,19=15/3(-5);
 2/9=110/2;
 6/7=2,8=2,9=2,10=2,19=2,28=1/1;
 99/9=1/99;
 Leave Link    1 at Fri Jan  8 13:25:21 2021, MaxMem=13421772800 cpu:       0.5
 (Enter /opt/g09gh/gaussian/g09/l101.exe)
 -------------------------------------------------------------
 methanol Rotatable Bond Optimization on node37.bme.utexas.edu
 -------------------------------------------------------------
 Symbolic Z-matrix:
 Charge =  0 Multiplicity = 1
 O                     0.75734   0.12011  -0.00507 
 C                    -0.67631  -0.0123   -0.00519 
 H                    -1.05143  -0.60802  -0.83116 
 H                    -1.09061   0.98042  -0.01974 
 H                    -1.04146  -0.51342   0.88884 
 H                     1.18267  -0.7461    0.03373 
 
 NAtoms=      6 NQM=      6 NQMF=      0 NMic=      0 NMicF=      0 NTot=      6.
 The following ModRedundant input section has been read:
 D    6    1    2    3 F                                                       
 D    6    1    2    4 F                                                       
 D    6    1    2    5 F                                                       
                    Isotopes and Nuclear Properties:
 (Nuclear quadrupole moments (NQMom) in fm**2, nuclear magnetic moments (NMagM)
  in nuclear magnetons)

  Atom         1           2           3           4           5           6
 IAtWgt=          16          12           1           1           1           1
 AtmWgt=  15.9949146  12.0000000   1.0078250   1.0078250   1.0078250   1.0078250
 NucSpn=           0           0           1           1           1           1
 AtZEff=   0.0000000   0.0000000   0.0000000   0.0000000   0.0000000   0.0000000
 NQMom=    0.0000000   0.0000000   0.0000000   0.0000000   0.0000000   0.0000000
 NMagM=    0.0000000   0.0000000   2.7928460   2.7928460   2.7928460   2.7928460
 Leave Link  101 at Fri Jan  8 13:25:21 2021, MaxMem=13421772800 cpu:       1.0
 (Enter /opt/g09gh/gaussian/g09/l103.exe)

 GradGradGradGradGradGradGradGradGradGradGradGradGradGradGradGradGradGrad
 Berny optimization.
 Initialization pass.
                           ----------------------------
                           !    Initial Parameters    !
                           ! (Angstroms and Degrees)  !
 --------------------------                            --------------------------
 ! Name  Definition              Value          Derivative Info.                !
 --------------------------------------------------------------------------------
 ! R1    R(1,2)                  1.4398         estimate D2E/DX2                !
 ! R2    R(1,6)                  0.9658         estimate D2E/DX2                !
 ! R3    R(2,3)                  1.0853         estimate D2E/DX2                !
 ! R4    R(2,4)                  1.0758         estimate D2E/DX2                !
 ! R5    R(2,5)                  1.088          estimate D2E/DX2                !
 ! A1    A(2,1,6)              110.8579         estimate D2E/DX2                !
 ! A2    A(1,2,3)              113.2488         estimate D2E/DX2                !
 ! A3    A(1,2,4)              107.3743         estimate D2E/DX2                !
 ! A4    A(1,2,5)              112.1161         estimate D2E/DX2                !
 ! A5    A(3,2,4)              111.2917         estimate D2E/DX2                !
 ! A6    A(3,2,5)              104.866          estimate D2E/DX2                !
 ! A7    A(4,2,5)              107.8715         estimate D2E/DX2                !
 ! D1    D(6,1,2,3)            -58.3861         Frozen                          !
 ! D2    D(6,1,2,4)            178.3483         Frozen                          !
 ! D3    D(6,1,2,5)             60.0381         Frozen                          !
 --------------------------------------------------------------------------------
 Trust Radius=3.00D-01 FncErr=1.00D-07 GrdErr=1.00D-06
 Number of steps in this run=   2 maximum allowed number of steps= 100.
 GradGradGradGradGradGradGradGradGradGradGradGradGradGradGradGradGradGrad

 Leave Link  103 at Fri Jan  8 13:25:21 2021, MaxMem=13421772800 cpu:       0.1
 (Enter /opt/g09gh/gaussian/g09/l202.exe)
                          Input orientation:                          
 ---------------------------------------------------------------------
 Center     Atomic      Atomic             Coordinates (Angstroms)
 Number     Number       Type             X           Y           Z
 ---------------------------------------------------------------------
      1          8           0        0.757340    0.120110   -0.005070
      2          6           0       -0.676310   -0.012300   -0.005190
      3          1           0       -1.051430   -0.608020   -0.831160
      4          1           0       -1.090610    0.980420   -0.019740
      5          1           0       -1.041460   -0.513420    0.888840
      6          1           0        1.182670   -0.746100    0.033730
 ---------------------------------------------------------------------
                    Distance matrix (angstroms):
                    1          2          3          4          5
     1  O    0.000000
     2  C    1.439752   0.000000
     3  H    2.117604   1.085276   0.000000
     4  H    2.038447   1.075802   1.784119   0.000000
     5  H    2.106209   1.088001   1.722628   1.749140   0.000000
     6  H    0.965780   1.998946   2.399647   2.855089   2.394182
                    6
     6  H    0.000000
 Stoichiometry    CH4O
 Framework group  C1[X(CH4O)]
 Deg. of freedom    12
 Full point group                 C1      NOp   1
 Largest Abelian subgroup         C1      NOp   1
 Largest concise Abelian subgroup C1      NOp   1
                         Standard orientation:                         
 ---------------------------------------------------------------------
 Center     Atomic      Atomic             Coordinates (Angstroms)
 Number     Number       Type             X           Y           Z
 ---------------------------------------------------------------------
      1          8           0        0.757338    0.120114   -0.005068
      2          6           0       -0.676312   -0.012299   -0.005188
      3          1           0       -1.051430   -0.608020   -0.831158
      4          1           0       -1.090614    0.980420   -0.019738
      5          1           0       -1.041460   -0.513420    0.888842
      6          1           0        1.182670   -0.746095    0.033732
 ---------------------------------------------------------------------
 Rotational constants (GHZ):    131.5818688     24.2031740     23.2546684
 Leave Link  202 at Fri Jan  8 13:25:21 2021, MaxMem=13421772800 cpu:       0.0
 (Enter /opt/g09gh/gaussian/g09/l301.exe)
 Standard basis: 6-31G(d) (6D, 7F)
 Ernie: Thresh=  0.10000D-02 Tol=  0.10000D-05 Strict=F.
 There are    38 symmetry adapted basis functions of A   symmetry.
 Integral buffers will be    131072 words long.
 Raffenetti 2 integral format.
 Two-electron integral symmetry is turned on.
    38 basis functions,    72 primitive gaussians,    38 cartesian basis functions
     9 alpha electrons        9 beta electrons
       nuclear repulsion energy        40.0283901334 Hartrees.
 IExCor= 4639 DFT=T Ex+Corr=wB97XD ExCW=0 ScaHFX=  1.000000
 ScaDFX=  1.000000  1.000000  1.000000  1.000000 ScalE2=  1.000000  1.000000
 IRadAn=      0 IRanWt=     -1 IRanGd=            0 ICorTp=0
  HFx wShort=  0.000000 wLong=  0.200000 cFull=  0.222036 cShort=  0.000000 cLong=  0.777964
  DFx wShort=  0.000000 wLong=  0.200000 cFull=  0.000000 cShort=  0.000000 cLong=  1.000000
 NAtoms=    6 NActive=    6 NUniq=    6 SFac= 7.50D-01 NAtFMM=   80 NAOKFM=F Big=F
 R6Disp: Dispersion energy =        -0.0008251810 Hartrees.
 Nuclear repulsion after empirical dispersion term =       40.0275649524 Hartrees.
 Leave Link  301 at Fri Jan  8 13:25:21 2021, MaxMem=13421772800 cpu:       0.5
 (Enter /opt/g09gh/gaussian/g09/l302.exe)
 NPDir=0 NMtPBC=     1 NCelOv=     1 NCel=       1 NClECP=     1 NCelD=      1
         NCelK=      1 NCelE2=     1 NClLst=     1 CellRange=     0.0.
 One-electron integrals computed using PRISM.
 NBasis=    38 RedAO= T  NBF=    38
 NBsUse=    38 1.00D-06 NBFU=    38
 Precomputing XC quadrature grid using
 IXCGrd= 2 IRadAn=           0 IRanWt=          -1 IRanGd=           0 AccXCQ= 1.00D-10.
 NRdTot=     370 NPtTot=       46428 NUsed=       49109 NTot=       49141
 NSgBfM=    38    38    38    38    38 NAtAll=     6     6.
 Leave Link  302 at Fri Jan  8 13:25:21 2021, MaxMem=13421772800 cpu:       1.2
 (Enter /opt/g09gh/gaussian/g09/l303.exe)
 DipDrv:  MaxL=1.
 Leave Link  303 at Fri Jan  8 13:25:21 2021, MaxMem=13421772800 cpu:       0.3
 (Enter /opt/g09gh/gaussian/g09/l401.exe)
 Harris functional with IExCor= 4639 diagonalized for initial guess.
 ExpMin= 1.61D-01 ExpMax= 5.48D+03 ExpMxC= 8.25D+02 IAcc=1 IRadAn=         1 AccDes= 0.00D+00
 HarFok:  IExCor= 4639 AccDes= 0.00D+00 IRadAn=         1 IDoV= 1
 ScaDFX=  1.000000  1.000000  1.000000  1.000000
 FoFCou: FMM=F IPFlag=           0 FMFlag=      100000 FMFlg1=           0
         NFxFlg=           0 DoJE=T BraDBF=F KetDBF=T FulRan=T
         Omega=  0.000000  0.000000  1.000000  0.000000  0.000000 ICntrl=     500 IOpCl=  0
         NMat0=    1 NMatS0=    1 NMatT0=    0 NMatD0=    1 NMtDS0=    0 NMtDT0=    0
         I1Cent=           4 NGrid=           0.
 Petite list used in FoFCou.
 Harris En= -110.933053230882    
 Initial guess orbital symmetries:
       Occupied  (A) (A) (A) (A) (A) (A) (A) (A) (A)
       Virtual   (A) (A) (A) (A) (A) (A) (A) (A) (A) (A) (A) (A)
                 (A) (A) (A) (A) (A) (A) (A) (A) (A) (A) (A) (A)
                 (A) (A) (A) (A) (A)
 The electronic state of the initial guess is 1-A.
 Leave Link  401 at Fri Jan  8 13:25:21 2021, MaxMem=13421772800 cpu:       1.4
 (Enter /opt/g09gh/gaussian/g09/l502.exe)
 Closed shell SCF:
 Requested convergence on RMS density matrix=1.00D-08 within 128 cycles.
 Requested convergence on MAX density matrix=1.00D-06.
 Requested convergence on             energy=1.00D-06.
 No special actions if energy rises.
 Using DIIS extrapolation, IDIIS=  1040.
 Integral symmetry usage will be decided dynamically.
        49042 words used for storage of precomputed grid.
 IEnd=       72118 IEndB=       72118 NGot= 13421772800 MDV= 13421718805
 LenX= 13421718805 LenY= 13421716920
 Fock matrices will be formed incrementally for  20 cycles.
 Integral accuracy reduced to 1.0D-05 until final iterations.

 Cycle   1  Pass 0  IDiag  1:
 FoFJK:  IHMeth= 1 ICntrl=     0 DoSepK=T KAlg= 1 I1Cent= 0 FoldK=F
 FoFCou: FMM=F IPFlag=           0 FMFlag=      100000 FMFlg1=           0
         NFxFlg=           0 DoJE=T BraDBF=F KetDBF=F FulRan=T
         Omega=  0.000000  0.000000  1.000000  0.000000  0.000000 ICntrl=     500 IOpCl=  0
         NMat0=    1 NMatS0=    1 NMatT0=    0 NMatD0=    1 NMtDS0=    0 NMtDT0=    0
         I1Cent=           0 NGrid=           0.
 Symmetry not used in FoFCou.
 E= -115.653979536966    
 DIIS: error= 5.11D-02 at cycle   1 NSaved=   1.
 NSaved= 1 IEnMin= 1 EnMin= -115.653979536966     IErMin= 1 ErrMin= 5.11D-02
 ErrMax= 5.11D-02 EMaxC= 1.00D-01 BMatC= 8.16D-02 BMatP= 8.16D-02
 IDIUse=3 WtCom= 4.89D-01 WtEn= 5.11D-01
 Coeff-Com:  0.100D+01
 Coeff-En:   0.100D+01
 Coeff:      0.100D+01
 Gap=     0.540 Goal=   None    Shift=    0.000
 GapD=    0.540 DampG=2.000 DampE=0.500 DampFc=1.0000 IDamp=-1.
 RMSDP=4.80D-03 MaxDP=4.30D-02              OVMax= 4.47D-02

 Cycle   2  Pass 0  IDiag  1:
 RMSU=  3.37D-03    CP:  1.01D+00
 FoFJK:  IHMeth= 1 ICntrl=     0 DoSepK=T KAlg= 1 I1Cent= 0 FoldK=F
 E= -115.667286710391     Delta-E=       -0.013307173425 Rises=F Damp=F
 DIIS: error= 1.30D-02 at cycle   2 NSaved=   2.
 NSaved= 2 IEnMin= 2 EnMin= -115.667286710391     IErMin= 2 ErrMin= 1.30D-02
 ErrMax= 1.30D-02 EMaxC= 1.00D-01 BMatC= 1.15D-02 BMatP= 8.16D-02
 IDIUse=3 WtCom= 8.70D-01 WtEn= 1.30D-01
 Coeff-Com:  0.202D+00 0.798D+00
 Coeff-En:   0.853D-01 0.915D+00
 Coeff:      0.187D+00 0.813D+00
 Gap=     0.508 Goal=   None    Shift=    0.000
 RMSDP=2.75D-03 MaxDP=3.64D-02 DE=-1.33D-02 OVMax= 3.43D-02

 Cycle   3  Pass 0  IDiag  1:
 RMSU=  1.54D-03    CP:  1.01D+00  6.48D-01
 FoFJK:  IHMeth= 1 ICntrl=     0 DoSepK=T KAlg= 1 I1Cent= 0 FoldK=F
 E= -115.671417253997     Delta-E=       -0.004130543606 Rises=F Damp=F
 DIIS: error= 1.04D-02 at cycle   3 NSaved=   3.
 NSaved= 3 IEnMin= 3 EnMin= -115.671417253997     IErMin= 3 ErrMin= 1.04D-02
 ErrMax= 1.04D-02 EMaxC= 1.00D-01 BMatC= 5.76D-03 BMatP= 1.15D-02
 IDIUse=3 WtCom= 8.96D-01 WtEn= 1.04D-01
 Coeff-Com:  0.753D-02 0.415D+00 0.577D+00
 Coeff-En:   0.000D+00 0.330D+00 0.670D+00
 Coeff:      0.675D-02 0.406D+00 0.587D+00
 Gap=     0.516 Goal=   None    Shift=    0.000
 RMSDP=1.24D-03 MaxDP=1.57D-02 DE=-4.13D-03 OVMax= 1.37D-02

 Cycle   4  Pass 0  IDiag  1:
 RMSU=  1.84D-04    CP:  1.01D+00  8.03D-01  5.62D-01
 FoFJK:  IHMeth= 1 ICntrl=     0 DoSepK=T KAlg= 1 I1Cent= 0 FoldK=F
 E= -115.675420177252     Delta-E=       -0.004002923255 Rises=F Damp=F
 DIIS: error= 5.67D-04 at cycle   4 NSaved=   4.
 NSaved= 4 IEnMin= 4 EnMin= -115.675420177252     IErMin= 4 ErrMin= 5.67D-04
 ErrMax= 5.67D-04 EMaxC= 1.00D-01 BMatC= 1.81D-05 BMatP= 5.76D-03
 IDIUse=3 WtCom= 9.94D-01 WtEn= 5.67D-03
 Coeff-Com:  0.158D-02 0.910D-01 0.153D+00 0.754D+00
 Coeff-En:   0.000D+00 0.000D+00 0.000D+00 0.100D+01
 Coeff:      0.157D-02 0.905D-01 0.152D+00 0.755D+00
 Gap=     0.514 Goal=   None    Shift=    0.000
 RMSDP=9.63D-05 MaxDP=1.12D-03 DE=-4.00D-03 OVMax= 1.18D-03

 Cycle   5  Pass 0  IDiag  1:
 RMSU=  5.48D-05    CP:  1.01D+00  8.03D-01  5.84D-01  8.82D-01
 FoFJK:  IHMeth= 1 ICntrl=     0 DoSepK=T KAlg= 1 I1Cent= 0 FoldK=F
 E= -115.675434210025     Delta-E=       -0.000014032773 Rises=F Damp=F
 DIIS: error= 1.68D-04 at cycle   5 NSaved=   5.
 NSaved= 5 IEnMin= 5 EnMin= -115.675434210025     IErMin= 5 ErrMin= 1.68D-04
 ErrMax= 1.68D-04 EMaxC= 1.00D-01 BMatC= 1.01D-06 BMatP= 1.81D-05
 IDIUse=3 WtCom= 9.98D-01 WtEn= 1.68D-03
 Coeff-Com: -0.361D-03 0.144D-02 0.103D-01 0.209D+00 0.780D+00
 Coeff-En:   0.000D+00 0.000D+00 0.000D+00 0.000D+00 0.100D+01
 Coeff:     -0.360D-03 0.143D-02 0.103D-01 0.208D+00 0.780D+00
 Gap=     0.514 Goal=   None    Shift=    0.000
 RMSDP=2.65D-05 MaxDP=2.89D-04 DE=-1.40D-05 OVMax= 2.65D-04

 Cycle   6  Pass 0  IDiag  1:
 RMSU=  1.10D-05    CP:  1.01D+00  8.05D-01  5.87D-01  9.55D-01  9.75D-01
 FoFJK:  IHMeth= 1 ICntrl=     0 DoSepK=T KAlg= 1 I1Cent= 0 FoldK=F
 E= -115.675435151742     Delta-E=       -0.000000941717 Rises=F Damp=F
 DIIS: error= 2.81D-05 at cycle   6 NSaved=   6.
 NSaved= 6 IEnMin= 6 EnMin= -115.675435151742     IErMin= 6 ErrMin= 2.81D-05
 ErrMax= 2.81D-05 EMaxC= 1.00D-01 BMatC= 3.50D-08 BMatP= 1.01D-06
 IDIUse=1 WtCom= 1.00D+00 WtEn= 0.00D+00
 Coeff-Com: -0.825D-04-0.885D-02-0.134D-01-0.342D-01 0.110D+00 0.947D+00
 Coeff:     -0.825D-04-0.885D-02-0.134D-01-0.342D-01 0.110D+00 0.947D+00
 Gap=     0.514 Goal=   None    Shift=    0.000
 RMSDP=1.01D-05 MaxDP=6.42D-05 DE=-9.42D-07 OVMax= 9.26D-05

 Cycle   7  Pass 0  IDiag  1:
 RMSU=  2.57D-06    CP:  1.01D+00  8.05D-01  5.88D-01  9.71D-01  1.07D+00
                    CP:  1.10D+00
 FoFJK:  IHMeth= 1 ICntrl=     0 DoSepK=T KAlg= 1 I1Cent= 0 FoldK=F
 E= -115.675435209913     Delta-E=       -0.000000058171 Rises=F Damp=F
 DIIS: error= 2.80D-06 at cycle   7 NSaved=   7.
 NSaved= 7 IEnMin= 7 EnMin= -115.675435209913     IErMin= 7 ErrMin= 2.80D-06
 ErrMax= 2.80D-06 EMaxC= 1.00D-01 BMatC= 4.93D-10 BMatP= 3.50D-08
 IDIUse=1 WtCom= 1.00D+00 WtEn= 0.00D+00
 Coeff-Com:  0.143D-04 0.777D-03 0.101D-02 0.433D-04-0.313D-01-0.799D-01
 Coeff-Com:  0.111D+01
 Coeff:      0.143D-04 0.777D-03 0.101D-02 0.433D-04-0.313D-01-0.799D-01
 Coeff:      0.111D+01
 Gap=     0.514 Goal=   None    Shift=    0.000
 RMSDP=1.82D-06 MaxDP=1.52D-05 DE=-5.82D-08 OVMax= 2.14D-05

 Initial convergence to 1.0D-05 achieved.  Increase integral accuracy.
 Cycle   8  Pass 1  IDiag  1:
 FoFJK:  IHMeth= 1 ICntrl=     0 DoSepK=T KAlg= 1 I1Cent= 0 FoldK=F
 E= -115.675203609219     Delta-E=        0.000231600695 Rises=F Damp=F
 DIIS: error= 1.10D-04 at cycle   1 NSaved=   1.
 NSaved= 1 IEnMin= 1 EnMin= -115.675203609219     IErMin= 1 ErrMin= 1.10D-04
 ErrMax= 1.10D-04 EMaxC= 1.00D-01 BMatC= 7.07D-07 BMatP= 7.07D-07
 IDIUse=3 WtCom= 9.99D-01 WtEn= 1.10D-03
 Coeff-Com:  0.100D+01
 Coeff-En:   0.100D+01
 Coeff:      0.100D+01
 Gap=     0.514 Goal=   None    Shift=    0.000
 RMSDP=1.82D-06 MaxDP=1.52D-05 DE= 2.32D-04 OVMax= 1.99D-04

 Cycle   9  Pass 1  IDiag  1:
 RMSU=  1.49D-05    CP:  1.00D+00
 FoFJK:  IHMeth= 1 ICntrl=     0 DoSepK=T KAlg= 1 I1Cent= 0 FoldK=F
 E= -115.675204181158     Delta-E=       -0.000000571939 Rises=F Damp=F
 DIIS: error= 2.70D-05 at cycle   2 NSaved=   2.
 NSaved= 2 IEnMin= 2 EnMin= -115.675204181158     IErMin= 2 ErrMin= 2.70D-05
 ErrMax= 2.70D-05 EMaxC= 1.00D-01 BMatC= 3.76D-08 BMatP= 7.07D-07
 IDIUse=1 WtCom= 1.00D+00 WtEn= 0.00D+00
 Coeff-Com:  0.145D-01 0.985D+00
 Coeff:      0.145D-01 0.985D+00
 Gap=     0.514 Goal=   None    Shift=    0.000
 RMSDP=6.93D-06 MaxDP=8.01D-05 DE=-5.72D-07 OVMax= 7.79D-05

 Cycle  10  Pass 1  IDiag  1:
 RMSU=  4.90D-06    CP:  1.00D+00  1.00D+00
 FoFJK:  IHMeth= 1 ICntrl=     0 DoSepK=T KAlg= 1 I1Cent= 0 FoldK=F
 E= -115.675204189867     Delta-E=       -0.000000008709 Rises=F Damp=F
 DIIS: error= 2.73D-05 at cycle   3 NSaved=   3.
 NSaved= 3 IEnMin= 3 EnMin= -115.675204189867     IErMin= 2 ErrMin= 2.70D-05
 ErrMax= 2.73D-05 EMaxC= 1.00D-01 BMatC= 3.69D-08 BMatP= 3.76D-08
 IDIUse=1 WtCom= 1.00D+00 WtEn= 0.00D+00
 Coeff-Com: -0.486D-01 0.517D+00 0.532D+00
 Coeff:     -0.486D-01 0.517D+00 0.532D+00
 Gap=     0.514 Goal=   None    Shift=    0.000
 RMSDP=2.94D-06 MaxDP=3.95D-05 DE=-8.71D-09 OVMax= 3.36D-05

 Cycle  11  Pass 1  IDiag  1:
 RMSU=  9.47D-07    CP:  1.00D+00  1.05D+00  6.54D-01
 FoFJK:  IHMeth= 1 ICntrl=     0 DoSepK=T KAlg= 1 I1Cent= 0 FoldK=F
 E= -115.675204215148     Delta-E=       -0.000000025282 Rises=F Damp=F
 DIIS: error= 1.92D-06 at cycle   4 NSaved=   4.
 NSaved= 4 IEnMin= 4 EnMin= -115.675204215148     IErMin= 4 ErrMin= 1.92D-06
 ErrMax= 1.92D-06 EMaxC= 1.00D-01 BMatC= 8.20D-11 BMatP= 3.69D-08
 IDIUse=1 WtCom= 1.00D+00 WtEn= 0.00D+00
 Coeff-Com: -0.119D-02-0.227D-01-0.282D-02 0.103D+01
 Coeff:     -0.119D-02-0.227D-01-0.282D-02 0.103D+01
 Gap=     0.514 Goal=   None    Shift=    0.000
 RMSDP=3.99D-07 MaxDP=4.23D-06 DE=-2.53D-08 OVMax= 5.15D-06

 Cycle  12  Pass 1  IDiag  1:
 RMSU=  1.79D-07    CP:  1.00D+00  1.06D+00  6.85D-01  1.16D+00
 FoFJK:  IHMeth= 1 ICntrl=     0 DoSepK=T KAlg= 1 I1Cent= 0 FoldK=F
 E= -115.675204215282     Delta-E=       -0.000000000134 Rises=F Damp=F
 DIIS: error= 4.59D-07 at cycle   5 NSaved=   5.
 NSaved= 5 IEnMin= 5 EnMin= -115.675204215282     IErMin= 5 ErrMin= 4.59D-07
 ErrMax= 4.59D-07 EMaxC= 1.00D-01 BMatC= 1.30D-11 BMatP= 8.20D-11
 IDIUse=1 WtCom= 1.00D+00 WtEn= 0.00D+00
 Coeff-Com:  0.122D-02-0.259D-01-0.219D-01 0.254D+00 0.793D+00
 Coeff:      0.122D-02-0.259D-01-0.219D-01 0.254D+00 0.793D+00
 Gap=     0.514 Goal=   None    Shift=    0.000
 RMSDP=1.15D-07 MaxDP=1.16D-06 DE=-1.34D-10 OVMax= 1.53D-06

 Cycle  13  Pass 1  IDiag  1:
 RMSU=  5.49D-08    CP:  1.00D+00  1.06D+00  6.91D-01  1.22D+00  9.28D-01
 FoFJK:  IHMeth= 1 ICntrl=     0 DoSepK=T KAlg= 1 I1Cent= 0 FoldK=F
 E= -115.675204215296     Delta-E=       -0.000000000014 Rises=F Damp=F
 DIIS: error= 2.46D-07 at cycle   6 NSaved=   6.
 NSaved= 6 IEnMin= 6 EnMin= -115.675204215296     IErMin= 6 ErrMin= 2.46D-07
 ErrMax= 2.46D-07 EMaxC= 1.00D-01 BMatC= 9.71D-13 BMatP= 1.30D-11
 IDIUse=1 WtCom= 1.00D+00 WtEn= 0.00D+00
 Coeff-Com:  0.508D-03-0.531D-02-0.546D-02-0.934D-02 0.202D+00 0.817D+00
 Coeff:      0.508D-03-0.531D-02-0.546D-02-0.934D-02 0.202D+00 0.817D+00
 Gap=     0.514 Goal=   None    Shift=    0.000
 RMSDP=3.41D-08 MaxDP=3.60D-07 DE=-1.35D-11 OVMax= 4.23D-07

 Cycle  14  Pass 1  IDiag  1:
 RMSU=  1.31D-08    CP:  1.00D+00  1.06D+00  6.92D-01  1.23D+00  1.02D+00
                    CP:  1.01D+00
 FoFJK:  IHMeth= 1 ICntrl=     0 DoSepK=T KAlg= 1 I1Cent= 0 FoldK=F
 E= -115.675204215297     Delta-E=       -0.000000000001 Rises=F Damp=F
 DIIS: error= 1.58D-08 at cycle   7 NSaved=   7.
 NSaved= 7 IEnMin= 7 EnMin= -115.675204215297     IErMin= 7 ErrMin= 1.58D-08
 ErrMax= 1.58D-08 EMaxC= 1.00D-01 BMatC= 2.58D-14 BMatP= 9.71D-13
 IDIUse=1 WtCom= 1.00D+00 WtEn= 0.00D+00
 Coeff-Com: -0.378D-04 0.103D-02 0.772D-03-0.151D-01-0.287D-01 0.762D-01
 Coeff-Com:  0.966D+00
 Coeff:     -0.378D-04 0.103D-02 0.772D-03-0.151D-01-0.287D-01 0.762D-01
 Coeff:      0.966D+00
 Gap=     0.514 Goal=   None    Shift=    0.000
 RMSDP=1.05D-08 MaxDP=7.09D-08 DE=-1.14D-12 OVMax= 9.99D-08

 Cycle  15  Pass 1  IDiag  1:
 RMSU=  2.46D-09    CP:  1.00D+00  1.06D+00  6.93D-01  1.23D+00  1.03D+00
                    CP:  1.10D+00  1.17D+00
 FoFJK:  IHMeth= 1 ICntrl=     0 DoSepK=T KAlg= 1 I1Cent= 0 FoldK=F
 E= -115.675204215297     Delta-E=        0.000000000000 Rises=F Damp=F
 DIIS: error= 3.61D-09 at cycle   8 NSaved=   8.
 NSaved= 8 IEnMin= 8 EnMin= -115.675204215297     IErMin= 8 ErrMin= 3.61D-09
 ErrMax= 3.61D-09 EMaxC= 1.00D-01 BMatC= 6.73D-16 BMatP= 2.58D-14
 IDIUse=1 WtCom= 1.00D+00 WtEn= 0.00D+00
 Coeff-Com: -0.103D-04 0.661D-04 0.382D-04 0.156D-02-0.322D-02-0.337D-01
 Coeff-Com: -0.703D-01 0.111D+01
 Coeff:     -0.103D-04 0.661D-04 0.382D-04 0.156D-02-0.322D-02-0.337D-01
 Coeff:     -0.703D-01 0.111D+01
 Gap=     0.514 Goal=   None    Shift=    0.000
 RMSDP=2.65D-09 MaxDP=1.78D-08 DE=-5.68D-14 OVMax= 2.86D-08

 SCF Done:  E(RwB97XD) =  -115.675204215     A.U. after   15 cycles
             Convg  =    0.2655D-08             -V/T =  2.0086
 KE= 1.146902176967D+02 PE=-3.511874478592D+02 EE= 8.079446099482D+01
 Leave Link  502 at Fri Jan  8 13:25:24 2021, MaxMem=13421772800 cpu:      21.7
 (Enter /opt/g09gh/gaussian/g09/l601.exe)
 Copying SCF densities to generalized density rwf, IOpCl= 0 IROHF=0.

 **********************************************************************

            Population analysis using the SCF density.

 **********************************************************************

 Orbital symmetries:
       Occupied  (A) (A) (A) (A) (A) (A) (A) (A) (A)
       Virtual   (A) (A) (A) (A) (A) (A) (A) (A) (A) (A) (A) (A)
                 (A) (A) (A) (A) (A) (A) (A) (A) (A) (A) (A) (A)
                 (A) (A) (A) (A) (A)
 The electronic state is 1-A.
 Alpha  occ. eigenvalues --  -19.26050 -10.33106  -1.10195  -0.78016  -0.58918
 Alpha  occ. eigenvalues --   -0.51578  -0.50631  -0.41341  -0.34707
 Alpha virt. eigenvalues --    0.16660   0.21960   0.25721   0.26205   0.28949
 Alpha virt. eigenvalues --    0.62440   0.65046   0.65940   0.89115   0.95384
 Alpha virt. eigenvalues --    0.97619   1.01796   1.05843   1.06820   1.10974
 Alpha virt. eigenvalues --    1.21095   1.55416   1.58428   1.68159   1.83924
 Alpha virt. eigenvalues --    2.10269   2.17978   2.23369   2.43361   2.48622
 Alpha virt. eigenvalues --    2.55398   2.87567   3.79680   4.32724
          Condensed to atoms (all electrons):
              1          2          3          4          5          6
     1  O    8.248362   0.252237  -0.033447  -0.033993  -0.034603   0.244922
     2  C    0.252237   4.879008   0.374220   0.394731   0.374101  -0.024857
     3  H   -0.033447   0.374220   0.594398  -0.030921  -0.051693  -0.004014
     4  H   -0.033993   0.394731  -0.030921   0.513784  -0.034592   0.005321
     5  H   -0.034603   0.374101  -0.051693  -0.034592   0.602489  -0.004271
     6  H    0.244922  -0.024857  -0.004014   0.005321  -0.004271   0.375675
 Mulliken atomic charges:
              1
     1  O   -0.643478
     2  C   -0.249440
     3  H    0.151456
     4  H    0.185670
     5  H    0.148568
     6  H    0.407223
 Sum of Mulliken atomic charges =   0.00000
 Mulliken charges with hydrogens summed into heavy atoms:
              1
     1  O   -0.236254
     2  C    0.236254
 Sum of Mulliken charges with hydrogens summed into heavy atoms =   0.00000
 Electronic spatial extent (au):  <R**2>=             84.5849
 Charge=              0.0000 electrons
 Dipole moment (field-independent basis, Debye):
    X=             -0.8437    Y=             -1.5722    Z=              0.0762  Tot=              1.7859
 Quadrupole moment (field-independent basis, Debye-Ang):
   XX=            -12.1552   YY=            -11.8332   ZZ=            -13.5956
   XY=             -2.3134   XZ=              0.0950   YZ=             -0.0185
 Traceless Quadrupole moment (field-independent basis, Debye-Ang):
   XX=              0.3728   YY=              0.6948   ZZ=             -1.0676
   XY=             -2.3134   XZ=              0.0950   YZ=             -0.0185
 Octapole moment (field-independent basis, Debye-Ang**2):
  XXX=              4.6226  YYY=             -0.5668  ZZZ=              0.0826  XYY=              1.6644
  XXY=             -2.4528  XXZ=              0.1340  XZZ=              0.5668  YZZ=             -0.5792
  YYZ=             -0.0204  XYZ=             -0.1186
 Hexadecapole moment (field-independent basis, Debye-Ang**3):
 XXXX=            -59.6929 YYYY=            -18.7013 ZZZZ=            -18.4048 XXXY=             -4.0757
 XXXZ=              0.1747 YYYX=             -2.8858 YYYZ=              0.0062 ZZZX=             -0.0078
 ZZZY=             -0.0068 XXYY=            -11.8161 XXZZ=            -13.7580 YYZZ=             -6.2984
 XXYZ=             -0.0207 YYXZ=              0.1294 ZZXY=              0.0550
 N-N= 4.002756495241D+01 E-N=-3.511874479416D+02  KE= 1.146902176967D+02
 No NMR shielding tensors so no spin-rotation constants.
 Leave Link  601 at Fri Jan  8 13:25:24 2021, MaxMem=13421772800 cpu:       0.9
 (Enter /opt/g09gh/gaussian/g09/l701.exe)
 Compute integral first derivatives.
 ... and contract with generalized density number  0.
 R6Disp: Adding dispersion energy 1st derivatives to the gradient.
 Leave Link  701 at Fri Jan  8 13:25:24 2021, MaxMem=13421772800 cpu:       0.9
 (Enter /opt/g09gh/gaussian/g09/l702.exe)
 L702 exits ... SP integral derivatives will be done elsewhere.
 Leave Link  702 at Fri Jan  8 13:25:24 2021, MaxMem=13421772800 cpu:       0.3
 (Enter /opt/g09gh/gaussian/g09/l703.exe)
 Compute integral first derivatives, UseDBF=F ICtDFT=           0.
 Integral derivatives from FoFDir, PRISM(SPDF).
 Calling FoFJK, ICntrl=      2127 FMM=F ISym2X=0 I1Cent= 0 IOpClX= 0 NMat=1 NMatS=1 NMatT=0.
 FoFJK:  IHMeth= 1 ICntrl=  2127 DoSepK=T KAlg= 1 I1Cent= 0 FoldK=F
 FoFCou: FMM=F IPFlag=           0 FMFlag=      100000 FMFlg1=         800
         NFxFlg=           0 DoJE=F BraDBF=F KetDBF=F FulRan=T
         Omega=  0.000000  0.000000  1.000000  0.000000  0.000000 ICntrl=    2527 IOpCl=  0
         NMat0=    1 NMatS0=    1 NMatT0=    0 NMatD0=    1 NMtDS0=    0 NMtDT0=    0
         I1Cent=           0 NGrid=           0.
 Symmetry not used in FoFCou.
 Leave Link  703 at Fri Jan  8 13:25:25 2021, MaxMem=13421772800 cpu:       2.3
 (Enter /opt/g09gh/gaussian/g09/l716.exe)
 Dipole        =-3.31918863D-01-6.18536851D-01 2.99937768D-02
 ***** Axes restored to original set *****
 -------------------------------------------------------------------
 Center     Atomic                   Forces (Hartrees/Bohr)
 Number     Number              X              Y              Z
 -------------------------------------------------------------------
      1        8          -0.014421839    0.004199018   -0.001598914
      2        6           0.025578381   -0.013581687    0.007655369
      3        1          -0.000824948    0.000592948   -0.012079312
      4        1          -0.002267799    0.009757382   -0.003752216
      5        1          -0.000368930   -0.001057003    0.009808850
      6        1          -0.007694865    0.000089342   -0.000033777
 -------------------------------------------------------------------
 Cartesian Forces:  Max     0.025578381 RMS     0.009260296
 Leave Link  716 at Fri Jan  8 13:25:25 2021, MaxMem=13421772800 cpu:       0.3
 (Enter /opt/g09gh/gaussian/g09/l103.exe)

 GradGradGradGradGradGradGradGradGradGradGradGradGradGradGradGradGradGrad
 Berny optimization.
 Internal  Forces:  Max     0.021640664 RMS     0.008346401
 Search for a local minimum.
 Step number   1 out of a maximum of    2
 All quantities printed in internal units (Hartrees-Bohrs-Radians)
 RMS Force = .88530D-02 SwitMx=.10000D-02 MixMth= 1
 Mixed Optimization -- RFO/linear search
 Second derivative matrix not updated -- first step.
 The second derivative matrix:
                          R1        R2        R3        R4        R5
           R1           0.39620
           R2           0.00000   0.54249
           R3           0.00000   0.00000   0.35364
           R4           0.00000   0.00000   0.00000   0.36506
           R5           0.00000   0.00000   0.00000   0.00000   0.35045
           A1           0.00000   0.00000   0.00000   0.00000   0.00000
           A2           0.00000   0.00000   0.00000   0.00000   0.00000
           A3           0.00000   0.00000   0.00000   0.00000   0.00000
           A4           0.00000   0.00000   0.00000   0.00000   0.00000
           A5           0.00000   0.00000   0.00000   0.00000   0.00000
           A6           0.00000   0.00000   0.00000   0.00000   0.00000
           A7           0.00000   0.00000   0.00000   0.00000   0.00000
           D1           0.00000   0.00000   0.00000   0.00000   0.00000
           D2           0.00000   0.00000   0.00000   0.00000   0.00000
           D3           0.00000   0.00000   0.00000   0.00000   0.00000
                          A1        A2        A3        A4        A5
           A1           0.16000
           A2           0.00000   0.16000
           A3           0.00000   0.00000   0.16000
           A4           0.00000   0.00000   0.00000   0.16000
           A5           0.00000   0.00000   0.00000   0.00000   0.16000
           A6           0.00000   0.00000   0.00000   0.00000   0.00000
           A7           0.00000   0.00000   0.00000   0.00000   0.00000
           D1           0.00000   0.00000   0.00000   0.00000   0.00000
           D2           0.00000   0.00000   0.00000   0.00000   0.00000
           D3           0.00000   0.00000   0.00000   0.00000   0.00000
                          A6        A7        D1        D2        D3
           A6           0.16000
           A7           0.00000   0.16000
           D1           0.00000   0.00000   0.01166
           D2           0.00000   0.00000   0.00000   0.01166
           D3           0.00000   0.00000   0.00000   0.00000   0.01166
     Eigenvalues ---    0.16000   0.16000   0.16000   0.16000   0.35045
     Eigenvalues ---    0.35364   0.36506   0.39620   0.542491000.00000
     Eigenvalues --- 1000.000001000.000001000.000001000.000001000.00000
 RFO step:  Lambda=-3.15254492D-03 EMin= 1.60000000D-01
 Linear search not attempted -- first point.
 Iteration  1 RMS(Cart)=  0.04878623 RMS(Int)=  0.00107933
 Iteration  2 RMS(Cart)=  0.00087136 RMS(Int)=  0.00007718
 Iteration  3 RMS(Cart)=  0.00000017 RMS(Int)=  0.00007718
 Iteration  1 RMS(Cart)=  0.00001062 RMS(Int)=  0.00001408
 Iteration  2 RMS(Cart)=  0.00000633 RMS(Int)=  0.00001569
 Iteration  3 RMS(Cart)=  0.00000378 RMS(Int)=  0.00001789
 Iteration  4 RMS(Cart)=  0.00000226 RMS(Int)=  0.00001950
 Iteration  5 RMS(Cart)=  0.00000135 RMS(Int)=  0.00002054
 Iteration  6 RMS(Cart)=  0.00000080 RMS(Int)=  0.00002119
 Variable       Old X    -DE/DX   Delta X   Delta X   Delta X     New X
                                 (Linear)    (Quad)   (Total)
    R1        2.72074  -0.02164   0.00000  -0.05419  -0.05419   2.66655
    R2        1.82506  -0.00345   0.00000  -0.00632  -0.00632   1.81874
    R3        2.05087   0.00914   0.00000   0.02563   0.02563   2.07650
    R4        2.03297   0.00993   0.00000   0.02698   0.02698   2.05995
    R5        2.05602   0.00867   0.00000   0.02452   0.02452   2.08054
    A1        1.93484  -0.01258   0.00000  -0.07710  -0.07710   1.85774
    A2        1.97657  -0.00328   0.00000  -0.01979  -0.01994   1.95663
    A3        1.87403  -0.00373   0.00000  -0.00669  -0.00676   1.86728
    A4        1.95679  -0.00056   0.00000  -0.02012  -0.02027   1.93652
    A5        1.94241  -0.00268   0.00000   0.01400   0.01394   1.95635
    A6        1.83026   0.00821   0.00000   0.02169   0.02147   1.85173
    A7        1.88271   0.00244   0.00000   0.01290   0.01283   1.89555
    D1       -1.01903  -0.00537   0.00000   0.00000   0.00000  -1.01903
    D2        3.11276   0.00286   0.00000   0.00000   0.00000   3.11276
    D3        1.04786   0.00255   0.00000   0.00000   0.00000   1.04786
         Item               Value     Threshold  Converged?
 Maximum Force            0.021641     0.002500     NO 
 RMS     Force            0.008853     0.001667     NO 
 Maximum Displacement     0.141063     0.010000     NO 
 RMS     Displacement     0.049170     0.006667     NO 
 Predicted change in Energy=-1.595150D-03
 GradGradGradGradGradGradGradGradGradGradGradGradGradGradGradGradGradGrad

 Leave Link  103 at Fri Jan  8 13:25:25 2021, MaxMem=13421772800 cpu:       0.0
 (Enter /opt/g09gh/gaussian/g09/l202.exe)
                          Input orientation:                          
 ---------------------------------------------------------------------
 Center     Atomic      Atomic             Coordinates (Angstroms)
 Number     Number       Type             X           Y           Z
 ---------------------------------------------------------------------
      1          8           0        0.741014    0.136281   -0.005596
      2          6           0       -0.662380   -0.010753   -0.005294
      3          1           0       -1.014404   -0.621114   -0.848493
      4          1           0       -1.087744    0.992802   -0.019910
      5          1           0       -1.004309   -0.523975    0.906756
      6          1           0        1.108023   -0.752551    0.033947
 ---------------------------------------------------------------------
                    Distance matrix (angstroms):
                    1          2          3          4          5
     1  O    0.000000
     2  C    1.411076   0.000000
     3  H    2.089406   1.098839   0.000000
     4  H    2.019453   1.090078   1.815669   0.000000
     5  H    2.077132   1.100976   1.757963   1.779406   0.000000
     6  H    0.962435   1.919930   2.302319   2.805450   2.296952
                    6
     6  H    0.000000
 Stoichiometry    CH4O
 Framework group  C1[X(CH4O)]
 Deg. of freedom    12
 Full point group                 C1      NOp   1
 Largest Abelian subgroup         C1      NOp   1
 Largest concise Abelian subgroup C1      NOp   1
                         Standard orientation:                         
 ---------------------------------------------------------------------
 Center     Atomic      Atomic             Coordinates (Angstroms)
 Number     Number       Type             X           Y           Z
 ---------------------------------------------------------------------
      1          8           0        0.744783    0.121928   -0.005281
      2          6           0       -0.660045   -0.010707   -0.005234
      3          1           0       -1.018071   -0.618334   -0.847881
      4          1           0       -1.075092    0.997140   -0.021052
      5          1           0       -1.007478   -0.519415    0.907265
      6          1           0        1.102647   -0.770576    0.035323
 ---------------------------------------------------------------------
 Rotational constants (GHZ):    126.4519184     25.2393611     24.1724254
 Leave Link  202 at Fri Jan  8 13:25:25 2021, MaxMem=13421772800 cpu:       0.0
 (Enter /opt/g09gh/gaussian/g09/l301.exe)
 Standard basis: 6-31G(d) (6D, 7F)
 Ernie: Thresh=  0.10000D-02 Tol=  0.10000D-05 Strict=F.
 There are    38 symmetry adapted basis functions of A   symmetry.
 Integral buffers will be    131072 words long.
 Raffenetti 2 integral format.
 Two-electron integral symmetry is turned on.
    38 basis functions,    72 primitive gaussians,    38 cartesian basis functions
     9 alpha electrons        9 beta electrons
       nuclear repulsion energy        40.4385047640 Hartrees.
 IExCor= 4639 DFT=T Ex+Corr=wB97XD ExCW=0 ScaHFX=  1.000000
 ScaDFX=  1.000000  1.000000  1.000000  1.000000 ScalE2=  1.000000  1.000000
 IRadAn=      0 IRanWt=     -1 IRanGd=            0 ICorTp=0
  HFx wShort=  0.000000 wLong=  0.200000 cFull=  0.222036 cShort=  0.000000 cLong=  0.777964
  DFx wShort=  0.000000 wLong=  0.200000 cFull=  0.000000 cShort=  0.000000 cLong=  1.000000
 NAtoms=    6 NActive=    6 NUniq=    6 SFac= 7.50D-01 NAtFMM=   80 NAOKFM=F Big=F
 R6Disp: Dispersion energy =        -0.0008373257 Hartrees.
 Nuclear repulsion after empirical dispersion term =       40.4376674382 Hartrees.
 Leave Link  301 at Fri Jan  8 13:25:25 2021, MaxMem=13421772800 cpu:       0.5
 (Enter /opt/g09gh/gaussian/g09/l302.exe)
 NPDir=0 NMtPBC=     1 NCelOv=     1 NCel=       1 NClECP=     1 NCelD=      1
         NCelK=      1 NCelE2=     1 NClLst=     1 CellRange=     0.0.
 One-electron integrals computed using PRISM.
 NBasis=    38 RedAO= T  NBF=    38
 NBsUse=    38 1.00D-06 NBFU=    38
 Precomputing XC quadrature grid using
 IXCGrd= 2 IRadAn=           0 IRanWt=          -1 IRanGd=           0 AccXCQ= 1.00D-10.
 NRdTot=     370 NPtTot=       46428 NUsed=       49109 NTot=       49141
 NSgBfM=    38    38    38    38    38 NAtAll=     6     6.
 Leave Link  302 at Fri Jan  8 13:25:25 2021, MaxMem=13421772800 cpu:       1.1
 (Enter /opt/g09gh/gaussian/g09/l303.exe)
 DipDrv:  MaxL=1.
 Leave Link  303 at Fri Jan  8 13:25:25 2021, MaxMem=13421772800 cpu:       0.3
 (Enter /opt/g09gh/gaussian/g09/l401.exe)
 Initial guess read from the read-write file.
 B after Tr=     0.000000    0.000000    0.000000
         Rot=    1.000000    0.000000    0.000000    0.000000 Ang=   0.00 deg.
 Guess basis will be translated and rotated to current coordinates.
 Initial guess orbital symmetries:
       Occupied  (A) (A) (A) (A) (A) (A) (A) (A) (A)
       Virtual   (A) (A) (A) (A) (A) (A) (A) (A) (A) (A) (A) (A)
                 (A) (A) (A) (A) (A) (A) (A) (A) (A) (A) (A) (A)
                 (A) (A) (A) (A) (A)
 The electronic state of the initial guess is 1-A.
 Generating alternative initial guess.
 Harris functional with IExCor= 4639 diagonalized for initial guess.
 ExpMin= 1.61D-01 ExpMax= 5.48D+03 ExpMxC= 8.25D+02 IAcc=1 IRadAn=         1 AccDes= 0.00D+00
 HarFok:  IExCor= 4639 AccDes= 0.00D+00 IRadAn=         1 IDoV= 1
 ScaDFX=  1.000000  1.000000  1.000000  1.000000
 FoFCou: FMM=F IPFlag=           0 FMFlag=      100000 FMFlg1=           0
         NFxFlg=           0 DoJE=T BraDBF=F KetDBF=T FulRan=T
         Omega=  0.000000  0.000000  1.000000  0.000000  0.000000 ICntrl=     500 IOpCl=  0
         NMat0=    1 NMatS0=    1 NMatT0=    0 NMatD0=    1 NMtDS0=    0 NMtDT0=    0
         I1Cent=           4 NGrid=           0.
 Petite list used in FoFCou.
 Harris En= -110.931271240090    
 Leave Link  401 at Fri Jan  8 13:25:25 2021, MaxMem=13421772800 cpu:       1.6
 (Enter /opt/g09gh/gaussian/g09/l502.exe)
 Closed shell SCF:
 Requested convergence on RMS density matrix=1.00D-08 within 128 cycles.
 Requested convergence on MAX density matrix=1.00D-06.
 Requested convergence on             energy=1.00D-06.
 No special actions if energy rises.
 Using DIIS extrapolation, IDIIS=  1040.
 Integral symmetry usage will be decided dynamically.
        49042 words used for storage of precomputed grid.
 IEnd=       72118 IEndB=       72118 NGot= 13421772800 MDV= 13421718805
 LenX= 13421718805 LenY= 13421716920
 Fock matrices will be formed incrementally for  20 cycles.
 Integral accuracy reduced to 1.0D-05 until final iterations.

 Cycle   1  Pass 0  IDiag  1:
 FoFJK:  IHMeth= 1 ICntrl=     0 DoSepK=T KAlg= 1 I1Cent= 0 FoldK=F
 FoFCou: FMM=F IPFlag=           0 FMFlag=      100000 FMFlg1=           0
         NFxFlg=           0 DoJE=T BraDBF=F KetDBF=F FulRan=T
         Omega=  0.000000  0.000000  1.000000  0.000000  0.000000 ICntrl=     500 IOpCl=  0
         NMat0=    1 NMatS0=    1 NMatT0=    0 NMatD0=    1 NMtDS0=    0 NMtDT0=    0
         I1Cent=           0 NGrid=           0.
 Symmetry not used in FoFCou.
 E= -115.675855286183    
 DIIS: error= 3.09D-03 at cycle   1 NSaved=   1.
 NSaved= 1 IEnMin= 1 EnMin= -115.675855286183     IErMin= 1 ErrMin= 3.09D-03
 ErrMax= 3.09D-03 EMaxC= 1.00D-01 BMatC= 6.58D-04 BMatP= 6.58D-04
 IDIUse=3 WtCom= 9.69D-01 WtEn= 3.09D-02
 Coeff-Com:  0.100D+01
 Coeff-En:   0.100D+01
 Coeff:      0.100D+01
 Gap=     0.514 Goal=   None    Shift=    0.000
 GapD=    0.514 DampG=2.000 DampE=1.000 DampFc=2.0000 IDamp=-1.
 RMSDP=7.46D-04 MaxDP=7.11D-03              OVMax= 9.35D-03

 Cycle   2  Pass 0  IDiag  1:
 RMSU=  5.27D-04    CP:  1.00D+00
 FoFJK:  IHMeth= 1 ICntrl=     0 DoSepK=T KAlg= 1 I1Cent= 0 FoldK=F
 E= -115.676660042044     Delta-E=       -0.000804755861 Rises=F Damp=F
 DIIS: error= 7.93D-04 at cycle   2 NSaved=   2.
 NSaved= 2 IEnMin= 2 EnMin= -115.676660042044     IErMin= 2 ErrMin= 7.93D-04
 ErrMax= 7.93D-04 EMaxC= 1.00D-01 BMatC= 3.33D-05 BMatP= 6.58D-04
 IDIUse=3 WtCom= 9.92D-01 WtEn= 7.93D-03
 Coeff-Com:  0.368D-02 0.996D+00
 Coeff-En:   0.000D+00 0.100D+01
 Coeff:      0.365D-02 0.996D+00
 Gap=     0.511 Goal=   None    Shift=    0.000
 RMSDP=1.89D-04 MaxDP=1.73D-03 DE=-8.05D-04 OVMax= 2.35D-03

 Cycle   3  Pass 0  IDiag  1:
 RMSU=  1.14D-04    CP:  1.00D+00  1.13D+00
 FoFJK:  IHMeth= 1 ICntrl=     0 DoSepK=T KAlg= 1 I1Cent= 0 FoldK=F
 E= -115.676693056135     Delta-E=       -0.000033014092 Rises=F Damp=F
 DIIS: error= 4.32D-04 at cycle   3 NSaved=   3.
 NSaved= 3 IEnMin= 3 EnMin= -115.676693056135     IErMin= 3 ErrMin= 4.32D-04
 ErrMax= 4.32D-04 EMaxC= 1.00D-01 BMatC= 1.25D-05 BMatP= 3.33D-05
 IDIUse=3 WtCom= 9.96D-01 WtEn= 4.32D-03
 Coeff-Com: -0.458D-01 0.356D+00 0.690D+00
 Coeff-En:   0.000D+00 0.000D+00 0.100D+01
 Coeff:     -0.456D-01 0.354D+00 0.691D+00
 Gap=     0.513 Goal=   None    Shift=    0.000
 RMSDP=8.00D-05 MaxDP=1.00D-03 DE=-3.30D-05 OVMax= 1.07D-03

 Cycle   4  Pass 0  IDiag  1:
 RMSU=  5.01D-05    CP:  1.00D+00  1.17D+00  8.29D-01
 FoFJK:  IHMeth= 1 ICntrl=     0 DoSepK=T KAlg= 1 I1Cent= 0 FoldK=F
 E= -115.676701899863     Delta-E=       -0.000008843728 Rises=F Damp=F
 DIIS: error= 1.95D-04 at cycle   4 NSaved=   4.
 NSaved= 4 IEnMin= 4 EnMin= -115.676701899863     IErMin= 4 ErrMin= 1.95D-04
 ErrMax= 1.95D-04 EMaxC= 1.00D-01 BMatC= 1.72D-06 BMatP= 1.25D-05
 IDIUse=3 WtCom= 9.98D-01 WtEn= 1.95D-03
 Coeff-Com: -0.199D-01 0.326D-01 0.293D+00 0.694D+00
 Coeff-En:   0.000D+00 0.000D+00 0.000D+00 0.100D+01
 Coeff:     -0.199D-01 0.325D-01 0.293D+00 0.694D+00
 Gap=     0.512 Goal=   None    Shift=    0.000
 RMSDP=2.70D-05 MaxDP=2.71D-04 DE=-8.84D-06 OVMax= 2.86D-04

 Cycle   5  Pass 0  IDiag  1:
 RMSU=  1.17D-05    CP:  1.00D+00  1.18D+00  9.46D-01  9.31D-01
 FoFJK:  IHMeth= 1 ICntrl=     0 DoSepK=T KAlg= 1 I1Cent= 0 FoldK=F
 E= -115.676703222047     Delta-E=       -0.000001322184 Rises=F Damp=F
 DIIS: error= 1.93D-05 at cycle   5 NSaved=   5.
 NSaved= 5 IEnMin= 5 EnMin= -115.676703222047     IErMin= 5 ErrMin= 1.93D-05
 ErrMax= 1.93D-05 EMaxC= 1.00D-01 BMatC= 1.43D-08 BMatP= 1.72D-06
 IDIUse=1 WtCom= 1.00D+00 WtEn= 0.00D+00
 Coeff-Com:  0.292D-02-0.174D-01-0.493D-01-0.605D-01 0.112D+01
 Coeff:      0.292D-02-0.174D-01-0.493D-01-0.605D-01 0.112D+01
 Gap=     0.512 Goal=   None    Shift=    0.000
 RMSDP=9.32D-06 MaxDP=6.48D-05 DE=-1.32D-06 OVMax= 1.13D-04

 Initial convergence to 1.0D-05 achieved.  Increase integral accuracy.
 Cycle   6  Pass 1  IDiag  1:
 FoFJK:  IHMeth= 1 ICntrl=     0 DoSepK=T KAlg= 1 I1Cent= 0 FoldK=F
 E= -115.676475098117     Delta-E=        0.000228123930 Rises=F Damp=F
 DIIS: error= 1.46D-04 at cycle   1 NSaved=   1.
 NSaved= 1 IEnMin= 1 EnMin= -115.676475098117     IErMin= 1 ErrMin= 1.46D-04
 ErrMax= 1.46D-04 EMaxC= 1.00D-01 BMatC= 8.20D-07 BMatP= 8.20D-07
 IDIUse=3 WtCom= 9.99D-01 WtEn= 1.46D-03
 Coeff-Com:  0.100D+01
 Coeff-En:   0.100D+01
 Coeff:      0.100D+01
 Gap=     0.512 Goal=   None    Shift=    0.000
 RMSDP=9.32D-06 MaxDP=6.48D-05 DE= 2.28D-04 OVMax= 2.30D-04

 Cycle   7  Pass 1  IDiag  1:
 RMSU=  1.60D-05    CP:  1.00D+00
 FoFJK:  IHMeth= 1 ICntrl=     0 DoSepK=T KAlg= 1 I1Cent= 0 FoldK=F
 E= -115.676475720186     Delta-E=       -0.000000622069 Rises=F Damp=F
 DIIS: error= 2.55D-05 at cycle   2 NSaved=   2.
 NSaved= 2 IEnMin= 2 EnMin= -115.676475720186     IErMin= 2 ErrMin= 2.55D-05
 ErrMax= 2.55D-05 EMaxC= 1.00D-01 BMatC= 4.30D-08 BMatP= 8.20D-07
 IDIUse=1 WtCom= 1.00D+00 WtEn= 0.00D+00
 Coeff-Com:  0.284D-01 0.972D+00
 Coeff:      0.284D-01 0.972D+00
 Gap=     0.512 Goal=   None    Shift=    0.000
 RMSDP=6.93D-06 MaxDP=7.58D-05 DE=-6.22D-07 OVMax= 8.09D-05

 Cycle   8  Pass 1  IDiag  1:
 RMSU=  4.90D-06    CP:  1.00D+00  1.00D+00
 FoFJK:  IHMeth= 1 ICntrl=     0 DoSepK=T KAlg= 1 I1Cent= 0 FoldK=F
 E= -115.676475732763     Delta-E=       -0.000000012577 Rises=F Damp=F
 DIIS: error= 2.52D-05 at cycle   3 NSaved=   3.
 NSaved= 3 IEnMin= 3 EnMin= -115.676475732763     IErMin= 3 ErrMin= 2.52D-05
 ErrMax= 2.52D-05 EMaxC= 1.00D-01 BMatC= 3.86D-08 BMatP= 4.30D-08
 IDIUse=1 WtCom= 1.00D+00 WtEn= 0.00D+00
 Coeff-Com: -0.435D-01 0.497D+00 0.546D+00
 Coeff:     -0.435D-01 0.497D+00 0.546D+00
 Gap=     0.512 Goal=   None    Shift=    0.000
 RMSDP=3.03D-06 MaxDP=4.12D-05 DE=-1.26D-08 OVMax= 3.95D-05

 Cycle   9  Pass 1  IDiag  1:
 RMSU=  9.84D-07    CP:  1.00D+00  1.05D+00  6.50D-01
 FoFJK:  IHMeth= 1 ICntrl=     0 DoSepK=T KAlg= 1 I1Cent= 0 FoldK=F
 E= -115.676475759593     Delta-E=       -0.000000026829 Rises=F Damp=F
 DIIS: error= 1.91D-06 at cycle   4 NSaved=   4.
 NSaved= 4 IEnMin= 4 EnMin= -115.676475759593     IErMin= 4 ErrMin= 1.91D-06
 ErrMax= 1.91D-06 EMaxC= 1.00D-01 BMatC= 1.64D-10 BMatP= 3.86D-08
 IDIUse=1 WtCom= 1.00D+00 WtEn= 0.00D+00
 Coeff-Com: -0.552D-02 0.547D-02 0.404D-01 0.960D+00
 Coeff:     -0.552D-02 0.547D-02 0.404D-01 0.960D+00
 Gap=     0.512 Goal=   None    Shift=    0.000
 RMSDP=5.08D-07 MaxDP=3.35D-06 DE=-2.68D-08 OVMax= 6.21D-06

 Cycle  10  Pass 1  IDiag  1:
 RMSU=  2.46D-07    CP:  1.00D+00  1.06D+00  6.90D-01  1.16D+00
 FoFJK:  IHMeth= 1 ICntrl=     0 DoSepK=T KAlg= 1 I1Cent= 0 FoldK=F
 E= -115.676475759785     Delta-E=       -0.000000000192 Rises=F Damp=F
 DIIS: error= 1.24D-06 at cycle   5 NSaved=   5.
 NSaved= 5 IEnMin= 5 EnMin= -115.676475759785     IErMin= 5 ErrMin= 1.24D-06
 ErrMax= 1.24D-06 EMaxC= 1.00D-01 BMatC= 2.89D-11 BMatP= 1.64D-10
 IDIUse=1 WtCom= 1.00D+00 WtEn= 0.00D+00
 Coeff-Com:  0.141D-02-0.280D-01-0.215D-01 0.285D+00 0.763D+00
 Coeff:      0.141D-02-0.280D-01-0.215D-01 0.285D+00 0.763D+00
 Gap=     0.512 Goal=   None    Shift=    0.000
 RMSDP=1.44D-07 MaxDP=1.89D-06 DE=-1.92D-10 OVMax= 2.15D-06

 Cycle  11  Pass 1  IDiag  1:
 RMSU=  6.93D-08    CP:  1.00D+00  1.06D+00  6.95D-01  1.22D+00  8.65D-01
 FoFJK:  IHMeth= 1 ICntrl=     0 DoSepK=T KAlg= 1 I1Cent= 0 FoldK=F
 E= -115.676475759814     Delta-E=       -0.000000000029 Rises=F Damp=F
 DIIS: error= 1.36D-07 at cycle   6 NSaved=   6.
 NSaved= 6 IEnMin= 6 EnMin= -115.676475759814     IErMin= 6 ErrMin= 1.36D-07
 ErrMax= 1.36D-07 EMaxC= 1.00D-01 BMatC= 1.26D-12 BMatP= 2.89D-11
 IDIUse=1 WtCom= 1.00D+00 WtEn= 0.00D+00
 Coeff-Com:  0.506D-03-0.620D-02-0.702D-02-0.506D-02 0.166D+00 0.852D+00
 Coeff:      0.506D-03-0.620D-02-0.702D-02-0.506D-02 0.166D+00 0.852D+00
 Gap=     0.512 Goal=   None    Shift=    0.000
 RMSDP=4.45D-08 MaxDP=3.07D-07 DE=-2.93D-11 OVMax= 4.49D-07

 Cycle  12  Pass 1  IDiag  1:
 RMSU=  1.51D-08    CP:  1.00D+00  1.06D+00  6.97D-01  1.24D+00  9.45D-01
                    CP:  1.04D+00
 FoFJK:  IHMeth= 1 ICntrl=     0 DoSepK=T KAlg= 1 I1Cent= 0 FoldK=F
 E= -115.676475759816     Delta-E=       -0.000000000002 Rises=F Damp=F
 DIIS: error= 2.54D-08 at cycle   7 NSaved=   7.
 NSaved= 7 IEnMin= 7 EnMin= -115.676475759816     IErMin= 7 ErrMin= 2.54D-08
 ErrMax= 2.54D-08 EMaxC= 1.00D-01 BMatC= 2.64D-14 BMatP= 1.26D-12
 IDIUse=1 WtCom= 1.00D+00 WtEn= 0.00D+00
 Coeff-Com: -0.359D-04 0.119D-02 0.843D-03-0.154D-01-0.308D-01 0.413D-01
 Coeff-Com:  0.100D+01
 Coeff:     -0.359D-04 0.119D-02 0.843D-03-0.154D-01-0.308D-01 0.413D-01
 Coeff:      0.100D+01
 Gap=     0.512 Goal=   None    Shift=    0.000
 RMSDP=1.27D-08 MaxDP=7.68D-08 DE=-1.59D-12 OVMax= 1.36D-07

 Cycle  13  Pass 1  IDiag  1:
 RMSU=  2.86D-09    CP:  1.00D+00  1.06D+00  6.97D-01  1.24D+00  9.59D-01
                    CP:  1.13D+00  1.20D+00
 FoFJK:  IHMeth= 1 ICntrl=     0 DoSepK=T KAlg= 1 I1Cent= 0 FoldK=F
 E= -115.676475759816     Delta-E=        0.000000000000 Rises=F Damp=F
 DIIS: error= 3.86D-09 at cycle   8 NSaved=   8.
 NSaved= 8 IEnMin= 7 EnMin= -115.676475759816     IErMin= 8 ErrMin= 3.86D-09
 ErrMax= 3.86D-09 EMaxC= 1.00D-01 BMatC= 7.19D-16 BMatP= 2.64D-14
 IDIUse=1 WtCom= 1.00D+00 WtEn= 0.00D+00
 Coeff-Com: -0.659D-05-0.227D-04 0.311D-04 0.241D-02-0.670D-03-0.240D-01
 Coeff-Com: -0.145D+00 0.117D+01
 Coeff:     -0.659D-05-0.227D-04 0.311D-04 0.241D-02-0.670D-03-0.240D-01
 Coeff:     -0.145D+00 0.117D+01
 Gap=     0.512 Goal=   None    Shift=    0.000
 RMSDP=3.07D-09 MaxDP=2.07D-08 DE= 0.00D+00 OVMax= 3.83D-08

 SCF Done:  E(RwB97XD) =  -115.676475760     A.U. after   13 cycles
             Convg  =    0.3067D-08             -V/T =  2.0084
 KE= 1.147135074930D+02 PE=-3.519889206357D+02 EE= 8.116126994471D+01
 Leave Link  502 at Fri Jan  8 13:25:28 2021, MaxMem=13421772800 cpu:      19.4
 (Enter /opt/g09gh/gaussian/g09/l701.exe)
 Compute integral first derivatives.
 ... and contract with generalized density number  0.
 R6Disp: Adding dispersion energy 1st derivatives to the gradient.
 Leave Link  701 at Fri Jan  8 13:25:28 2021, MaxMem=13421772800 cpu:       0.9
 (Enter /opt/g09gh/gaussian/g09/l702.exe)
 L702 exits ... SP integral derivatives will be done elsewhere.
 Leave Link  702 at Fri Jan  8 13:25:28 2021, MaxMem=13421772800 cpu:       0.3
 (Enter /opt/g09gh/gaussian/g09/l703.exe)
 Compute integral first derivatives, UseDBF=F ICtDFT=           0.
 Integral derivatives from FoFDir, PRISM(SPDF).
 Calling FoFJK, ICntrl=      2127 FMM=F ISym2X=0 I1Cent= 0 IOpClX= 0 NMat=1 NMatS=1 NMatT=0.
 FoFJK:  IHMeth= 1 ICntrl=  2127 DoSepK=T KAlg= 1 I1Cent= 0 FoldK=F
 FoFCou: FMM=F IPFlag=           0 FMFlag=      100000 FMFlg1=         800
         NFxFlg=           0 DoJE=F BraDBF=F KetDBF=F FulRan=T
         Omega=  0.000000  0.000000  1.000000  0.000000  0.000000 ICntrl=    2527 IOpCl=  0
         NMat0=    1 NMatS0=    1 NMatT0=    0 NMatD0=    1 NMtDS0=    0 NMtDT0=    0
         I1Cent=           0 NGrid=           0.
 Symmetry not used in FoFCou.
 Leave Link  703 at Fri Jan  8 13:25:28 2021, MaxMem=13421772800 cpu:       2.4
 (Enter /opt/g09gh/gaussian/g09/l716.exe)
 Dipole        =-3.26031481D-01-6.20064000D-01 2.99854874D-02
 ***** Axes restored to original set *****
 -------------------------------------------------------------------
 Center     Atomic                   Forces (Hartrees/Bohr)
 Number     Number              X              Y              Z
 -------------------------------------------------------------------
      1        8           0.000074549    0.000397518   -0.001601477
      2        6           0.004093829   -0.007941328    0.007456536
      3        1          -0.002294704    0.005493621   -0.003842790
      4        1          -0.002432283   -0.000777792   -0.003513664
      5        1          -0.002221409    0.002716494    0.001490219
      6        1           0.002780018    0.000111487    0.000011175
 -------------------------------------------------------------------
 Cartesian Forces:  Max     0.007941328 RMS     0.003570773
 Leave Link  716 at Fri Jan  8 13:25:28 2021, MaxMem=13421772800 cpu:       0.3
 (Enter /opt/g09gh/gaussian/g09/l103.exe)

 GradGradGradGradGradGradGradGradGradGradGradGradGradGradGradGradGradGrad
 Berny optimization.
 Using GEDIIS/GDIIS optimizer.
 Internal  Forces:  Max     0.007151979 RMS     0.003249511
 Search for a local minimum.
 Step number   2 out of a maximum of    2
 All quantities printed in internal units (Hartrees-Bohrs-Radians)
 RMS Force = .22012D-02 SwitMx=.10000D-02 MixMth= 1
 Mixed Optimization -- RFO/linear search
 Update second derivatives using D2CorX and points    1    2
 DE= -1.27D-03 DEPred=-1.60D-03 R= 7.97D-01
 SS=  1.41D+00  RLast= 1.12D-01 DXNew= 5.0454D-01 3.3650D-01
 Trust test= 7.97D-01 RLast= 1.12D-01 DXMaxT set to 3.36D-01
 The second derivative matrix:
                          R1        R2        R3        R4        R5
           R1           0.40570
           R2           0.00484   0.54386
           R3           0.00775   0.00008   0.34629
           R4           0.00592  -0.00036  -0.00713   0.35830
           R5           0.00776   0.00015  -0.00712  -0.00692   0.34356
           A1           0.02598   0.00649  -0.00268  -0.00467  -0.00225
           A2           0.00732   0.00179  -0.00090  -0.00144  -0.00078
           A3           0.01818   0.00344  -0.00576  -0.00667  -0.00539
           A4           0.01008   0.00229  -0.00183  -0.00251  -0.00165
           A5          -0.01337  -0.00274   0.00350   0.00426   0.00324
           A6          -0.00979  -0.00227   0.00164   0.00231   0.00146
           A7          -0.01384  -0.00280   0.00375   0.00452   0.00348
           D1           0.00121   0.00022  -0.00042  -0.00048  -0.00040
           D2          -0.00058  -0.00010   0.00020   0.00023   0.00019
           D3          -0.00069  -0.00012   0.00024   0.00027   0.00023
                          A1        A2        A3        A4        A5
           A1           0.18939
           A2           0.00802   0.16218
           A3           0.01378   0.00366   0.16379
           A4           0.01002   0.00271   0.00415   0.16330
           A5          -0.01143  -0.00306  -0.00390  -0.00360   0.16365
           A6          -0.00999  -0.00271  -0.00425  -0.00332   0.00365
           A7          -0.01160  -0.00310  -0.00384  -0.00363   0.00364
           D1           0.00085   0.00022   0.00020   0.00025  -0.00022
           D2          -0.00041  -0.00011  -0.00009  -0.00012   0.00011
           D3          -0.00049  -0.00013  -0.00011  -0.00014   0.00013
                          A6        A7        D1        D2        D3
           A6           0.16333
           A7           0.00368   0.16362
           D1          -0.00026  -0.00021   0.01167
           D2           0.00012   0.00010   0.00000   0.01166
           D3           0.00015   0.00012  -0.00001   0.00000   0.01166
 Use linear search instead of GDIIS.
     Eigenvalues ---    0.15613   0.16000   0.16000   0.20274   0.33451
     Eigenvalues ---    0.35210   0.36258   0.41454   0.544381000.00000
     Eigenvalues --- 1000.000001000.000001000.000001000.000001000.00000
 RFO step:  Lambda=-1.22990213D-04 EMin= 1.56125894D-01
 Quartic linear search produced a step of -0.16778.
 Iteration  1 RMS(Cart)=  0.01223568 RMS(Int)=  0.00007419
 Iteration  2 RMS(Cart)=  0.00005892 RMS(Int)=  0.00002044
 Iteration  3 RMS(Cart)=  0.00000000 RMS(Int)=  0.00002044
 Iteration  1 RMS(Cart)=  0.00000532 RMS(Int)=  0.00000713
 Iteration  2 RMS(Cart)=  0.00000319 RMS(Int)=  0.00000794
 Iteration  3 RMS(Cart)=  0.00000191 RMS(Int)=  0.00000906
 Iteration  4 RMS(Cart)=  0.00000115 RMS(Int)=  0.00000988
 Iteration  5 RMS(Cart)=  0.00000069 RMS(Int)=  0.00001042
 Variable       Old X    -DE/DX   Delta X   Delta X   Delta X     New X
                                 (Linear)    (Quad)   (Total)
    R1        2.66655   0.00288   0.00909  -0.00555   0.00354   2.67008
    R2        1.81874   0.00098   0.00106   0.00017   0.00123   1.81997
    R3        2.07650   0.00062  -0.00430   0.00697   0.00267   2.07917
    R4        2.05995   0.00029  -0.00453   0.00644   0.00192   2.06186
    R5        2.08054   0.00066  -0.00411   0.00682   0.00271   2.08325
    A1        1.85774   0.00470   0.01294   0.00724   0.02018   1.87791
    A2        1.95663   0.00128   0.00334   0.00254   0.00588   1.96251
    A3        1.86728   0.00026   0.00113   0.01299   0.01407   1.88135
    A4        1.93652   0.00448   0.00340   0.00515   0.00853   1.94506
    A5        1.95635  -0.00715  -0.00234  -0.00841  -0.01078   1.94557
    A6        1.85173   0.00300  -0.00360  -0.00405  -0.00763   1.84410
    A7        1.89555  -0.00192  -0.00215  -0.00882  -0.01104   1.88450
    D1       -1.01903  -0.00519   0.00000   0.00000   0.00000  -1.01903
    D2        3.11276   0.00277   0.00000   0.00000   0.00000   3.11277
    D3        1.04786   0.00244   0.00000   0.00000   0.00000   1.04786
         Item               Value     Threshold  Converged?
 Maximum Force            0.004700     0.002500     NO 
 RMS     Force            0.002201     0.001667     NO 
 Maximum Displacement     0.034491     0.010000     NO 
 RMS     Displacement     0.012234     0.006667     NO 
 Predicted change in Energy=-1.199431D-04
 Optimization stopped.
    -- Number of steps exceeded,  NStep=   2
    -- Flag reset to prevent archiving.
                           ----------------------------
                           ! Non-Optimized Parameters !
                           ! (Angstroms and Degrees)  !
 --------------------------                            --------------------------
 ! Name  Definition              Value          Derivative Info.                !
 --------------------------------------------------------------------------------
 ! R1    R(1,2)                  1.4129         -DE/DX =    0.0029              !
 ! R2    R(1,6)                  0.9631         -DE/DX =    0.001               !
 ! R3    R(2,3)                  1.1003         -DE/DX =    0.0006              !
 ! R4    R(2,4)                  1.0911         -DE/DX =    0.0003              !
 ! R5    R(2,5)                  1.1024         -DE/DX =    0.0007              !
 ! A1    A(2,1,6)              107.5964         -DE/DX =    0.0047              !
 ! A2    A(1,2,3)              112.4435         -DE/DX =    0.0013              !
 ! A3    A(1,2,4)              107.7932         -DE/DX =    0.0003              !
 ! A4    A(1,2,5)              111.4436         -DE/DX =    0.0045              !
 ! A5    A(3,2,4)              111.4728         -DE/DX =   -0.0072              !
 ! A6    A(3,2,5)              105.6593         -DE/DX =    0.003               !
 ! A7    A(4,2,5)              107.9741         -DE/DX =   -0.0019              !
 ! D1    D(6,1,2,3)            -58.3861         -DE/DX =   -0.0052              !
 ! D2    D(6,1,2,4)            178.3483         -DE/DX =    0.0028              !
 ! D3    D(6,1,2,5)             60.038          -DE/DX =    0.0024              !
 --------------------------------------------------------------------------------
 GradGradGradGradGradGradGradGradGradGradGradGradGradGradGradGradGradGrad

 Largest change from initial coordinates is atom    6       0.084 Angstoms.
 Leave Link  103 at Fri Jan  8 13:25:28 2021, MaxMem=13421772800 cpu:       0.0
 (Enter /opt/g09gh/gaussian/g09/l202.exe)
                          Input orientation:                          
 ---------------------------------------------------------------------
 Center     Atomic      Atomic             Coordinates (Angstroms)
 Number     Number       Type             X           Y           Z
 ---------------------------------------------------------------------
      1          8           0        0.741014    0.136281   -0.005596
      2          6           0       -0.662380   -0.010753   -0.005294
      3          1           0       -1.014404   -0.621114   -0.848493
      4          1           0       -1.087744    0.992802   -0.019910
      5          1           0       -1.004309   -0.523975    0.906756
      6          1           0        1.108023   -0.752551    0.033947
 ---------------------------------------------------------------------
                    Distance matrix (angstroms):
                    1          2          3          4          5
     1  O    0.000000
     2  C    1.411076   0.000000
     3  H    2.089406   1.098839   0.000000
     4  H    2.019453   1.090078   1.815669   0.000000
     5  H    2.077132   1.100976   1.757963   1.779406   0.000000
     6  H    0.962435   1.919930   2.302319   2.805450   2.296952
                    6
     6  H    0.000000
 Stoichiometry    CH4O
 Framework group  C1[X(CH4O)]
 Deg. of freedom    12
 Full point group                 C1      NOp   1
 Largest Abelian subgroup         C1      NOp   1
 Largest concise Abelian subgroup C1      NOp   1
                         Standard orientation:                         
 ---------------------------------------------------------------------
 Center     Atomic      Atomic             Coordinates (Angstroms)
 Number     Number       Type             X           Y           Z
 ---------------------------------------------------------------------
      1          8           0        0.744783    0.121928   -0.005281
      2          6           0       -0.660045   -0.010707   -0.005234
      3          1           0       -1.018071   -0.618334   -0.847881
      4          1           0       -1.075092    0.997140   -0.021052
      5          1           0       -1.007478   -0.519415    0.907265
      6          1           0        1.102647   -0.770576    0.035323
 ---------------------------------------------------------------------
 Rotational constants (GHZ):    126.4519184     25.2393611     24.1724254
 Leave Link  202 at Fri Jan  8 13:25:28 2021, MaxMem=13421772800 cpu:       0.0
 (Enter /opt/g09gh/gaussian/g09/l601.exe)
 Copying SCF densities to generalized density rwf, IOpCl= 0 IROHF=0.

 **********************************************************************

            Population analysis using the SCF density.

 **********************************************************************

 Orbital symmetries:
       Occupied  (A) (A) (A) (A) (A) (A) (A) (A) (A)
       Virtual   (A) (A) (A) (A) (A) (A) (A) (A) (A) (A) (A) (A)
                 (A) (A) (A) (A) (A) (A) (A) (A) (A) (A) (A) (A)
                 (A) (A) (A) (A) (A)
 The electronic state is 1-A.
 Alpha  occ. eigenvalues --  -19.26181 -10.33305  -1.11532  -0.77352  -0.59306
 Alpha  occ. eigenvalues --   -0.51975  -0.50673  -0.41717  -0.34662
 Alpha virt. eigenvalues --    0.16554   0.22244   0.25439   0.25823   0.29450
 Alpha virt. eigenvalues --    0.63117   0.65690   0.66779   0.88516   0.94553
 Alpha virt. eigenvalues --    0.96902   1.00315   1.04983   1.06584   1.11104
 Alpha virt. eigenvalues --    1.20490   1.56246   1.58153   1.66491   1.83012
 Alpha virt. eigenvalues --    2.14296   2.20704   2.24866   2.44071   2.49062
 Alpha virt. eigenvalues --    2.54512   2.89318   3.80522   4.31638
          Condensed to atoms (all electrons):
              1          2          3          4          5          6
     1  O    8.240590   0.250604  -0.037021  -0.036580  -0.038407   0.248457
     2  C    0.250604   4.888938   0.373890   0.392743   0.374184  -0.029905
     3  H   -0.037021   0.373890   0.601560  -0.029219  -0.050396  -0.005017
     4  H   -0.036580   0.392743  -0.029219   0.517812  -0.032918   0.006235
     5  H   -0.038407   0.374184  -0.050396  -0.032918   0.609504  -0.005354
     6  H    0.248457  -0.029905  -0.005017   0.006235  -0.005354   0.379009
 Mulliken atomic charges:
              1
     1  O   -0.627642
     2  C   -0.250453
     3  H    0.146204
     4  H    0.181928
     5  H    0.143388
     6  H    0.406575
 Sum of Mulliken atomic charges =   0.00000
 Mulliken charges with hydrogens summed into heavy atoms:
              1
     1  O   -0.221067
     2  C    0.221067
 Sum of Mulliken charges with hydrogens summed into heavy atoms =   0.00000
 Electronic spatial extent (au):  <R**2>=             83.1611
 Charge=              0.0000 electrons
 Dipole moment (field-independent basis, Debye):
    X=             -0.8287    Y=             -1.5760    Z=              0.0762  Tot=              1.7823
 Quadrupole moment (field-independent basis, Debye-Ang):
   XX=            -12.6671   YY=            -11.7348   ZZ=            -13.5859
   XY=             -2.2453   XZ=              0.0961   YZ=             -0.0227
 Traceless Quadrupole moment (field-independent basis, Debye-Ang):
   XX=             -0.0045   YY=              0.9278   ZZ=             -0.9233
   XY=             -2.2453   XZ=              0.0961   YZ=             -0.0227
 Octapole moment (field-independent basis, Debye-Ang**2):
  XXX=              4.3472  YYY=             -0.5963  ZZZ=              0.0846  XYY=              1.7368
  XXY=             -2.1729  XXZ=              0.1197  XZZ=              0.6354  YZZ=             -0.5971
  YYZ=             -0.0220  XYZ=             -0.1196
 Hexadecapole moment (field-independent basis, Debye-Ang**3):
 XXXX=            -58.9050 YYYY=            -18.9729 ZZZZ=            -18.7694 XXXY=             -3.6206
 XXXZ=              0.1605 YYYX=             -2.8997 YYYZ=             -0.0012 ZZZX=             -0.0063
 ZZZY=             -0.0101 XXYY=            -11.7028 XXZZ=            -13.5236 YYZZ=             -6.4245
 XXYZ=             -0.0196 YYXZ=              0.1334 ZZXY=              0.0610
 N-N= 4.043766743823D+01 E-N=-3.519889206838D+02  KE= 1.147135074930D+02
 No NMR shielding tensors so no spin-rotation constants.
 Leave Link  601 at Fri Jan  8 13:25:28 2021, MaxMem=13421772800 cpu:       0.9
 (Enter /opt/g09gh/gaussian/g09/l9999.exe)


 PERICLES, SOPHOCLES,
 PELOPONESIAN WAR,
 FRENCH VERBS, LATIN VERBS
 H2SO4.
 Error termination request processed by link 9999.
 Error termination via Lnk1e in /opt/g09gh/gaussian/g09/l9999.exe at Fri Jan  8 13:25:29 2021.
 Job cpu time:  0 days  0 hours  0 minutes 59.9 seconds.
 File lengths (MBytes):  RWF=      5 Int=      0 D2E=      0 Chk=      1 Scr=      1
