6
methanol-opt-2_2-1-272.log	Energy:  -72587.4333836
O          0.74520       -0.12243        0.01195
C         -0.66066        0.00907        0.00160
H         -1.05544        0.16110        1.01484
H         -1.07405       -0.88435       -0.46946
H         -0.97454        0.88305       -0.58714
H          1.10638        0.76518       -0.06348
