6
methanol-opt-1_2-1-242.log	Energy:  -71784.0008424
O         -0.75865       -0.12214        0.00002
C          0.67963        0.01099       -0.00001
H          1.10071       -0.43348       -0.89024
H          1.10077       -0.43321        0.89033
H          1.00106        1.04926       -0.00012
H         -1.21114        0.72861       -0.00008
