6
methanol-opt-1_2-1-062.log	Energy:  -71785.7866873
O         -0.75631        0.12022        0.00000
C          0.67619       -0.02150        0.00000
H          1.05295       -0.53456       -0.87882
H          1.05291       -0.53459        0.87882
H          1.07863        0.97891        0.00001
H         -1.19118       -0.74253       -0.00002
