
    -----------------------------------------------------------------------
          Psi4: An Open-Source Ab Initio Electronic Structure Package
                               Psi4 1.3.2 release

                         Git: Rev {HEAD} ecbda83 


    R. M. Parrish, L. A. Burns, D. G. A. Smith, A. C. Simmonett,
    A. E. DePrince III, E. G. Hohenstein, U. Bozkaya, A. Yu. Sokolov,
    R. Di Remigio, R. M. Richard, J. F. Gonthier, A. M. James,
    H. R. McAlexander, A. Kumar, M. Saitow, X. Wang, B. P. Pritchard,
    P. Verma, H. F. Schaefer III, K. Patkowski, R. A. King, E. F. Valeev,
    F. A. Evangelista, J. M. Turney, T. D. Crawford, and C. D. Sherrill,
    J. Chem. Theory Comput. 13(7) pp 3185--3197 (2017).
    (doi: 10.1021/acs.jctc.7b00174)


                         Additional Contributions by
    P. Kraus, H. Kruse, M. H. Lechner, M. C. Schieber, R. A. Shaw,
    A. Alenaizan, R. Galvelis, Z. L. Glick, S. Lehtola, and J. P. Misiewicz

    -----------------------------------------------------------------------


    Psi4 started on: Monday, 05 October 2020 03:32PM

    Process ID: 57772
    Host:       node35.bme.utexas.edu
    PSIDATADIR: /home/bdw2292/miniconda3/envs/p4env/share/psi4
    Memory:     500.0 MiB
    Threads:    1
    
  ==> Input File <==

--------------------------------------------------------------------------
molecule { 
0 1
 O    0.672169    0.010251    0.005982
 C   -0.742610    0.036830    0.013929
 H   -1.111175   -0.724097    0.715604
 H   -1.101794   -0.119388   -1.012081
 H   -1.058647    1.031187    0.361325
 H    0.982858    0.174117    0.902840
}
set optking { 
  frozen_dihedral = ("
  ")
}
set {
  geom_maxiter 3
  g_convergence GAU_LOOSE
}
memory 100GB
set_num_threads(8)
psi4_io.set_default_path("/scratch/bdw2292/Psi4-methanol")
for _ in range(1):
  try:
    optimize('wb97x-d/6-31G*')
    break
  except OptimizationConvergenceError:
    try:
      set opt_coordinates cartesian
      optimize('wb97x-d/6-31G*')
      break
    except OptimizationConvergenceError:
      pass
clean()
--------------------------------------------------------------------------

  Memory set to  93.132 GiB by Python driver.
  Threads set to 8 by Python driver.
gradient() will perform analytic gradient computation.

*** tstart() called on node35.bme.utexas.edu
*** at Mon Oct  5 15:32:20 2020

   => Loading Basis Set <=

    Name: 6-31G*
    Role: ORBITAL
    Keyword: BASIS
    atoms 1   entry O          line   145 file /home/bdw2292/miniconda3/envs/p4env/share/psi4/basis/6-31gs.gbs 
    atoms 2   entry C          line   111 file /home/bdw2292/miniconda3/envs/p4env/share/psi4/basis/6-31gs.gbs 
    atoms 3-6 entry H          line    44 file /home/bdw2292/miniconda3/envs/p4env/share/psi4/basis/6-31gs.gbs 


         ---------------------------------------------------------
                                   SCF
               by Justin Turney, Rob Parrish, Andy Simmonett
                          and Daniel G. A. Smith
                              RKS Reference
                        8 Threads,  95367 MiB Core
         ---------------------------------------------------------

  ==> Geometry <==

    Molecular point group: c1
    Full point group: C1

    Geometry (in Angstrom), charge = 0, multiplicity = 1:

       Center              X                  Y                   Z               Mass       
    ------------   -----------------  -----------------  -----------------  -----------------
         O            0.686741494560    -0.020054614408    -0.032676635707    15.994914619570
         C           -0.728037505440     0.006524385592    -0.024729635707    12.000000000000
         H           -1.096602505440    -0.754402614408     0.676945364293     1.007825032230
         H           -1.087221505440    -0.149693614408    -1.050739635707     1.007825032230
         H           -1.044074505440     1.000881385592     0.322666364293     1.007825032230
         H            0.997430494560     0.143811385592     0.864181364293     1.007825032230

  Running in c1 symmetry.

  Rotational constants: A =      4.16328  B =      0.84014  C =      0.80726 [cm^-1]
  Rotational constants: A = 124812.10195  B =  25186.81923  C =  24200.90891 [MHz]
  Nuclear repulsion =   40.374785267992422

  Charge       = 0
  Multiplicity = 1
  Electrons    = 18
  Nalpha       = 9
  Nbeta        = 9

  ==> Algorithm <==

  SCF Algorithm Type is DF.
  DIIS enabled.
  MOM disabled.
  Fractional occupation disabled.
  Guess Type is SAD.
  Energy threshold   = 1.00e-08
  Density threshold  = 1.00e-08
  Integral threshold = 0.00e+00

  ==> Primary Basis <==

  Basis Set: 6-31G*
    Blend: 6-31G*
    Number of shells: 20
    Number of basis function: 38
    Number of Cartesian functions: 38
    Spherical Harmonics?: false
    Max angular momentum: 2

  ==> DFT Potential <==

   => Composite Functional: WB97X-D <= 

    wB97X-D Hyb-GGA Exchange-Correlation Functional

    J.-D. Chai and M. Head-Gordon, Phys. Chem. Chem. Phys. 10, 6615 (2008)

    Deriv               =              1
    GGA                 =           TRUE
    Meta                =          FALSE

    Exchange Hybrid     =           TRUE
    MP2 Hybrid          =          FALSE

   => Exchange-Correlation Functionals <=

    1.0000   wB97D range-separated functional

   => Exact (HF) Exchange <=

    0.7780            HF,LR [omega = 0.2000]
    0.2220               HF 

   => Molecular Quadrature <=

    Radial Scheme          =       TREUTLER
    Pruning Scheme         =           FLAT
    Nuclear Scheme         =       TREUTLER

    BS radius alpha        =              1
    Pruning alpha          =              1
    Radial Points          =             75
    Spherical Points       =            302
    Total Points           =         131905
    Total Blocks           =           1070
    Max Points             =            256
    Max Functions          =             38

   => WB97X-D: Empirical Dispersion <=

    Chai and Head-Gordon Dispersion Correction
    Chai, J.-D.; Head-Gordon, M. (2010), J. Chem. Phys., 132: 6615-6620

        s6 =       1.000000

   => Loading Basis Set <=

    Name: (6-31G* AUX)
    Role: JKFIT
    Keyword: DF_BASIS_SCF
    atoms 1   entry O          line   221 file /home/bdw2292/miniconda3/envs/p4env/share/psi4/basis/cc-pvdz-jkfit.gbs 
    atoms 2   entry C          line   121 file /home/bdw2292/miniconda3/envs/p4env/share/psi4/basis/cc-pvdz-jkfit.gbs 
    atoms 3-6 entry H          line    51 file /home/bdw2292/miniconda3/envs/p4env/share/psi4/basis/cc-pvdz-jkfit.gbs 

  ==> Pre-Iterations <==

   -------------------------------------------------------
    Irrep   Nso     Nmo     Nalpha   Nbeta   Ndocc  Nsocc
   -------------------------------------------------------
     A         38      38       0       0       0       0
   -------------------------------------------------------
    Total      38      38       9       9       9       0
   -------------------------------------------------------

  ==> Integral Setup <==

  ==> DiskDFJK: Density-Fitted J/K Matrices <==

    J tasked:                  Yes
    K tasked:                  Yes
    wK tasked:                 Yes
    Omega:               2.000E-01
    OpenMP threads:              8
    Integrals threads:           8
    Memory [MiB]:            71385
    Algorithm:                Core
    Integral Cache:           NONE
    Schwarz Cutoff:          1E-12
    Fitting Condition:       1E-10

   => Auxiliary Basis Set <=

  Basis Set: (6-31G* AUX)
    Blend: CC-PVDZ-JKFIT
    Number of shells: 84
    Number of basis function: 262
    Number of Cartesian functions: 262
    Spherical Harmonics?: false
    Max angular momentum: 3

  Cached 100.0% of DFT collocation blocks in 0.137 [GiB].

  Minimum eigenvalue in the overlap matrix is 9.3900596944E-03.
  Using Symmetric Orthogonalization.

  SCF Guess: Superposition of Atomic Densities via on-the-fly atomic UHF.

  ==> Iterations <==

                           Total Energy        Delta E     RMS |[F,P]|

   @DF-RKS iter SAD:  -115.13620454969526   -1.15136e+02   0.00000e+00 
   @DF-RKS iter   1:  -115.56913353412307   -4.32929e-01   1.31704e-02 DIIS
   @DF-RKS iter   2:  -115.59163485766391   -2.25013e-02   1.27183e-02 DIIS
   @DF-RKS iter   3:  -115.67456285529454   -8.29280e-02   1.11893e-03 DIIS
   @DF-RKS iter   4:  -115.67525337675521   -6.90521e-04   3.74370e-04 DIIS
   @DF-RKS iter   5:  -115.67535020046833   -9.68237e-05   6.99779e-05 DIIS
   @DF-RKS iter   6:  -115.67535432813111   -4.12766e-06   7.19612e-06 DIIS
   @DF-RKS iter   7:  -115.67535442106407   -9.29330e-08   1.06477e-06 DIIS
   @DF-RKS iter   8:  -115.67535442351591   -2.45184e-09   2.35372e-07 DIIS
   @DF-RKS iter   9:  -115.67535442363349   -1.17581e-10   5.46052e-08 DIIS
   @DF-RKS iter  10:  -115.67535442363908   -5.58487e-12   1.01638e-08 DIIS
   @DF-RKS iter  11:  -115.67535442363953   -4.54747e-13   1.42776e-09 DIIS
  Energy and wave function converged.


  ==> Post-Iterations <==

    Orbital Energies [Eh]
    ---------------------

    Doubly Occupied:                                                      

       1A    -19.257398     2A    -10.334066     3A     -1.110826  
       4A     -0.772305     5A     -0.587712     6A     -0.523654  
       7A     -0.508686     8A     -0.410254     9A     -0.343806  

    Virtual:                                                              

      10A      0.164247    11A      0.222209    12A      0.255192  
      13A      0.258087    14A      0.289923    15A      0.631223  
      16A      0.657361    17A      0.668716    18A      0.883559  
      19A      0.950177    20A      0.962056    21A      1.001495  
      22A      1.045036    23A      1.063373    24A      1.115178  
      25A      1.213795    26A      1.551330    27A      1.575205  
      28A      1.682730    29A      1.836814    30A      2.156288  
      31A      2.184072    32A      2.283908    33A      2.434657  
      34A      2.461541    35A      2.547776    36A      2.893120  
      37A      3.808501    38A      4.317542  

    Final Occupation by Irrep:
              A 
    DOCC [     9 ]

  @DF-RKS Final Energy:  -115.67535442363953

   => Energetics <=

    Nuclear Repulsion Energy =             40.3747852679924222
    One-Electron Energy =                -237.1837743100287241
    Two-Electron Energy =                  91.7937281546592061
    DFT Exchange-Correlation Energy =     -10.6592550707728897
    Empirical Dispersion Energy =          -0.0008384654895559
    VV10 Nonlocal Energy =                  0.0000000000000000
    Total Energy =                       -115.6753544236395328

Computation Completed


Properties will be evaluated at   0.000000,   0.000000,   0.000000 [a0]

Properties computed using the SCF density matrix

  Nuclear Dipole Moment: [e a0]
     X:    -2.0877      Y:     0.2255      Z:     0.7621

  Electronic Dipole Moment: [e a0]
     X:     1.7130      Y:    -0.1052      Z:    -0.1853

  Dipole Moment: [e a0]
     X:    -0.3747      Y:     0.1203      Z:     0.5768     Total:     0.6983

  Dipole Moment: [D]
     X:    -0.9525      Y:     0.3057      Z:     1.4661     Total:     1.7748


*** tstop() called on node35.bme.utexas.edu at Mon Oct  5 15:32:24 2020
Module time:
	user time   =      23.18 seconds =       0.39 minutes
	system time =       1.63 seconds =       0.03 minutes
	total time  =          4 seconds =       0.07 minutes
Total time:
	user time   =      23.18 seconds =       0.39 minutes
	system time =       1.63 seconds =       0.03 minutes
	total time  =          4 seconds =       0.07 minutes

*** tstart() called on node35.bme.utexas.edu
*** at Mon Oct  5 15:32:24 2020


         ------------------------------------------------------------
                                   SCF GRAD                          
                          Rob Parrish, Justin Turney,                
                       Andy Simmonett, and Alex Sokolov              
         ------------------------------------------------------------

  ==> Geometry <==

    Molecular point group: c1
    Full point group: C1

    Geometry (in Angstrom), charge = 0, multiplicity = 1:

       Center              X                  Y                   Z               Mass       
    ------------   -----------------  -----------------  -----------------  -----------------
         O            0.686741494560    -0.020054614408    -0.032676635707    15.994914619570
         C           -0.728037505440     0.006524385592    -0.024729635707    12.000000000000
         H           -1.096602505440    -0.754402614408     0.676945364293     1.007825032230
         H           -1.087221505440    -0.149693614408    -1.050739635707     1.007825032230
         H           -1.044074505440     1.000881385592     0.322666364293     1.007825032230
         H            0.997430494560     0.143811385592     0.864181364293     1.007825032230

  Nuclear repulsion =   40.374785267992422

  ==> Basis Set <==

  Basis Set: 6-31G*
    Blend: 6-31G*
    Number of shells: 20
    Number of basis function: 38
    Number of Cartesian functions: 38
    Spherical Harmonics?: false
    Max angular momentum: 2

  ==> DFJKGrad: Density-Fitted SCF Gradients <==

    Gradient:                    1
    J tasked:                  Yes
    K tasked:                  Yes
    wK tasked:                 Yes
    Omega:               2.000E-01
    OpenMP threads:              8
    Integrals threads:           8
    Memory [MiB]:            71525
    Schwarz Cutoff:          0E+00
    Fitting Condition:       1E-10

   => Auxiliary Basis Set <=

  Basis Set: (6-31G* AUX)
    Blend: CC-PVDZ-JKFIT
    Number of shells: 84
    Number of basis function: 262
    Number of Cartesian functions: 262
    Spherical Harmonics?: false
    Max angular momentum: 3

  ==> DFT Potential <==

   => Composite Functional: WB97X-D <= 

    wB97X-D Hyb-GGA Exchange-Correlation Functional

    J.-D. Chai and M. Head-Gordon, Phys. Chem. Chem. Phys. 10, 6615 (2008)

    Deriv               =              1
    GGA                 =           TRUE
    Meta                =          FALSE

    Exchange Hybrid     =           TRUE
    MP2 Hybrid          =          FALSE

   => Exchange-Correlation Functionals <=

    1.0000   wB97D range-separated functional

   => Exact (HF) Exchange <=

    0.7780            HF,LR [omega = 0.2000]
    0.2220               HF 

   => Molecular Quadrature <=

    Radial Scheme          =       TREUTLER
    Pruning Scheme         =           FLAT
    Nuclear Scheme         =       TREUTLER

    BS radius alpha        =              1
    Pruning alpha          =              1
    Radial Points          =             75
    Spherical Points       =            302
    Total Points           =         131905
    Total Blocks           =           1070
    Max Points             =            256
    Max Functions          =             38


  -Total Gradient:
     Atom            X                  Y                   Z
    ------   -----------------  -----------------  -----------------
       1       -0.005246632269     0.003600209592     0.009140821051
       2       -0.012728212090    -0.008706890083    -0.011418125750
       3        0.008551988659     0.000870503777     0.005704714198
       4       -0.001994345931     0.002771486970    -0.005782393826
       5        0.009247795278     0.001587323805     0.001890553466
       6        0.001957513815     0.000024480079     0.000456112992


*** tstop() called on node35.bme.utexas.edu at Mon Oct  5 15:32:25 2020
Module time:
	user time   =       9.13 seconds =       0.15 minutes
	system time =       0.66 seconds =       0.01 minutes
	total time  =          1 seconds =       0.02 minutes
Total time:
	user time   =      32.33 seconds =       0.54 minutes
	system time =       2.29 seconds =       0.04 minutes
	total time  =          5 seconds =       0.08 minutes

			-----------------------------------------
			 OPTKING 2.0: for geometry optimizations 
			  - R.A. King,  Bethel University        
			-----------------------------------------

	Internal coordinates to be generated automatically.
	Detected frag 1 with atoms:  1 2 3 4 5 6
	---Fragment 1 Bond Connectivity---
	 1 : 2 6
	 2 : 1 3 4 5
	 3 : 2
	 4 : 2
	 5 : 2
	 6 : 1

	Assuming in current code that numbering for constraints corresponds to unified fragment.
	---Fragment 1 Geometry and Gradient---
	 O           1.2977533437       -0.0378977288       -0.0617498922
	 C          -1.3757914943        0.0123293019       -0.0467322387
	 H          -2.0722784038       -1.4256143296        1.2792413404
	 H          -2.0545508830       -0.2828799340       -1.9856101406
	 H          -1.9730148699        1.8913917028        0.6097510584
	 H           1.8848704639        0.2717641325        1.6330661012
	            -0.0052466323        0.0036002096        0.0091408211
	            -0.0127282121       -0.0087068901       -0.0114181258
	             0.0085519887        0.0008705038        0.0057047142
	            -0.0019943459        0.0027714870       -0.0057823938
	             0.0092477953        0.0015873238        0.0018905535
	             0.0019575138        0.0000244801        0.0004561130

	Previous optimization step data not found.  Starting new optimization.

	---Fragment 1 Intrafragment Coordinates---
	 - Coordinate -           - BOHR/RAD -       - ANG/DEG -
	 R(1,2)           =         2.674059	       1.415051
	 R(1,6)           =         1.820164	       0.963189
	 R(2,3)           =         2.076290	       1.098726
	 R(2,4)           =         2.075358	       1.098232
	 R(2,5)           =         2.078105	       1.099686
	 B(1,2,3)         =         1.902825	     109.023839
	 B(1,2,4)         =         1.895550	     108.607004
	 B(1,2,5)         =         1.881881	     107.823833
	 B(2,1,6)         =         1.890279	     108.305034
	 B(3,2,4)         =         1.969698	     112.855358
	 B(3,2,5)         =         1.905058	     109.151786
	 B(4,2,5)         =         1.906844	     109.254119
	 D(3,2,1,6)       =        -1.018361	     -58.347816
	 D(4,2,1,6)       =         3.112157	     178.313474
	 D(5,2,1,6)       =         1.047832	      60.036327

	Current energy   :      -115.6753544236

	Generating empirical Hessian (Schlegel '84) for each fragment.
	Taking RFO optimization step.
	Going to follow RFO solution 1.
	Using RFO vector 1.
	Norm of target step-size    0.17673
	Projected energy change by RFO approximation:        -0.0035263162

	Back-transformation to cartesian coordinates...
	Could not converge backtransformation.
	Using first guess instead.

	--- Internal Coordinate Step in ANG or DEG, aJ/ANG or AJ/DEG ---
	 ---------------------------------------------------------------------------
	   Coordinate                Previous        Force       Change         New 
	   ----------                --------       ------       ------       ------
	    1 R(1,2)          =      1.415051     0.027507     0.004999     1.420050
	    2 R(1,6)          =      0.963189    -0.008809    -0.000908     0.962282
	    3 R(2,3)          =      1.098726    -0.001508     0.002830     1.101555
	    4 R(2,4)          =      1.098232    -0.046555    -0.008192     1.090040
	    5 R(2,5)          =      1.099686     0.005464     0.004485     1.104171
	    6 B(1,2,3)        =    109.023839     0.000895     3.954368   112.978207
	    7 B(1,2,4)        =    108.607004    -0.000549    -3.128482   105.478522
	    8 B(1,2,5)        =    107.823833     0.001169     5.870949   113.694781
	    9 B(2,1,6)        =    108.305034    -0.000241    -1.098513   107.206521
	   10 B(3,2,4)        =    112.855358    -0.000725    -4.417787   108.437572
	   11 B(3,2,5)        =    109.151786    -0.000378    -0.958607   108.193180
	   12 B(4,2,5)        =    109.254119    -0.000318    -1.451230   107.802889
	   13 D(3,2,1,6)      =    -58.347816    -0.000106    -3.620919   -61.968735
	   14 D(4,2,1,6)      =    178.313474     0.000049     1.431389   179.744863
	   15 D(5,2,1,6)      =     60.036327     0.000056     1.804892    61.841219
	 ---------------------------------------------------------------------------
	Successfully symmetrized geometry.

  ==> Convergence Check <==

  Measures of convergence in internal coordinates in au.
  Criteria marked as inactive (o), active & met (*), and active & unmet ( ).
  --------------------------------------------------------------------------------------------- ~
   Step     Total Energy     Delta E     MAX Force     RMS Force      MAX Disp      RMS Disp    ~
  --------------------------------------------------------------------------------------------- ~
    Convergence Criteria             o    2.50e-03 *    1.70e-03 *    1.00e-02 *    6.70e-03 *  ~
  --------------------------------------------------------------------------------------------- ~
      1    -115.67535442   -1.16e+02 o    1.54e-02      6.68e-03      1.02e-01      4.58e-02    ~
  ---------------------------------------------------------------------------------------------

	Writing optimization data to binary file.
	Structure for next step:
	Cartesian Geometry (in Angstrom)
	    O     0.7072246348  -0.0280411194  -0.0496312427
	    C    -0.7108703421   0.0239102989   0.0037410783
	    H    -1.1452438227  -0.7495314426   0.6568349683
	    H    -1.0472624613  -0.1580802100  -1.0169976484
	    H    -1.1073734367   1.0046864312   0.3200594932
	    H     1.0317614043   0.1341223546   0.8416405341
			--------------------------
			 OPTKING Finished Execution 
			--------------------------

    Structure for next step:
    Molecular point group: c1
    Full point group: C1

    Geometry (in Angstrom), charge = 0, multiplicity = 1:

    O            0.691747094063    -0.030270996973    -0.051468951590
    C           -0.726347888388     0.021680421520     0.001903369627
    H           -1.160721370676    -0.751761323034     0.654997262176
    H           -1.062740008838    -0.160310088075    -1.018835361062
    H           -1.122850984541     1.002456557652     0.318221785806
    H            1.016283864932     0.131892477678     0.839802828726

gradient() will perform analytic gradient computation.

*** tstart() called on node35.bme.utexas.edu
*** at Mon Oct  5 15:32:25 2020

   => Loading Basis Set <=

    Name: 6-31G*
    Role: ORBITAL
    Keyword: BASIS
    atoms 1   entry O          line   145 file /home/bdw2292/miniconda3/envs/p4env/share/psi4/basis/6-31gs.gbs 
    atoms 2   entry C          line   111 file /home/bdw2292/miniconda3/envs/p4env/share/psi4/basis/6-31gs.gbs 
    atoms 3-6 entry H          line    44 file /home/bdw2292/miniconda3/envs/p4env/share/psi4/basis/6-31gs.gbs 


         ---------------------------------------------------------
                                   SCF
               by Justin Turney, Rob Parrish, Andy Simmonett
                          and Daniel G. A. Smith
                              RKS Reference
                        8 Threads,  95367 MiB Core
         ---------------------------------------------------------

  ==> Geometry <==

    Molecular point group: c1
    Full point group: C1

    Geometry (in Angstrom), charge = 0, multiplicity = 1:

       Center              X                  Y                   Z               Mass       
    ------------   -----------------  -----------------  -----------------  -----------------
         O            0.691747094063    -0.030270996973    -0.051468951590    15.994914619570
         C           -0.726347888388     0.021680421520     0.001903369627    12.000000000000
         H           -1.160721370676    -0.751761323034     0.654997262176     1.007825032230
         H           -1.062740008838    -0.160310088075    -1.018835361062     1.007825032230
         H           -1.122850984541     1.002456557652     0.318221785806     1.007825032230
         H            1.016283864932     0.131892477678     0.839802828726     1.007825032230

  Running in c1 symmetry.

  Rotational constants: A =      4.25320  B =      0.82566  C =      0.79653 [cm^-1]
  Rotational constants: A = 127507.87081  B =  24752.60712  C =  23879.36258 [MHz]
  Nuclear repulsion =   40.237157454786718

  Charge       = 0
  Multiplicity = 1
  Electrons    = 18
  Nalpha       = 9
  Nbeta        = 9

  ==> Algorithm <==

  SCF Algorithm Type is DF.
  DIIS enabled.
  MOM disabled.
  Fractional occupation disabled.
  Guess Type is READ.
  Energy threshold   = 1.00e-08
  Density threshold  = 1.00e-08
  Integral threshold = 0.00e+00

  ==> Primary Basis <==

  Basis Set: 6-31G*
    Blend: 6-31G*
    Number of shells: 20
    Number of basis function: 38
    Number of Cartesian functions: 38
    Spherical Harmonics?: false
    Max angular momentum: 2

  ==> DFT Potential <==

   => Composite Functional: WB97X-D <= 

    wB97X-D Hyb-GGA Exchange-Correlation Functional

    J.-D. Chai and M. Head-Gordon, Phys. Chem. Chem. Phys. 10, 6615 (2008)

    Deriv               =              1
    GGA                 =           TRUE
    Meta                =          FALSE

    Exchange Hybrid     =           TRUE
    MP2 Hybrid          =          FALSE

   => Exchange-Correlation Functionals <=

    1.0000   wB97D range-separated functional

   => Exact (HF) Exchange <=

    0.7780            HF,LR [omega = 0.2000]
    0.2220               HF 

   => Molecular Quadrature <=

    Radial Scheme          =       TREUTLER
    Pruning Scheme         =           FLAT
    Nuclear Scheme         =       TREUTLER

    BS radius alpha        =              1
    Pruning alpha          =              1
    Radial Points          =             75
    Spherical Points       =            302
    Total Points           =         131922
    Total Blocks           =           1065
    Max Points             =            256
    Max Functions          =             38

   => WB97X-D: Empirical Dispersion <=

    Chai and Head-Gordon Dispersion Correction
    Chai, J.-D.; Head-Gordon, M. (2010), J. Chem. Phys., 132: 6615-6620

        s6 =       1.000000

   => Loading Basis Set <=

    Name: (6-31G* AUX)
    Role: JKFIT
    Keyword: DF_BASIS_SCF
    atoms 1   entry O          line   221 file /home/bdw2292/miniconda3/envs/p4env/share/psi4/basis/cc-pvdz-jkfit.gbs 
    atoms 2   entry C          line   121 file /home/bdw2292/miniconda3/envs/p4env/share/psi4/basis/cc-pvdz-jkfit.gbs 
    atoms 3-6 entry H          line    51 file /home/bdw2292/miniconda3/envs/p4env/share/psi4/basis/cc-pvdz-jkfit.gbs 

   => Loading Basis Set <=

    Name: 6-31G*
    Role: ORBITAL
    Keyword: BASIS
    atoms 1   entry O          line   145 file /home/bdw2292/miniconda3/envs/p4env/share/psi4/basis/6-31gs.gbs 
    atoms 2   entry C          line   111 file /home/bdw2292/miniconda3/envs/p4env/share/psi4/basis/6-31gs.gbs 
    atoms 3-6 entry H          line    44 file /home/bdw2292/miniconda3/envs/p4env/share/psi4/basis/6-31gs.gbs 

  Reading orbitals from file 180, no projection.

  ==> Pre-Iterations <==

   -------------------------------------------------------
    Irrep   Nso     Nmo     Nalpha   Nbeta   Ndocc  Nsocc
   -------------------------------------------------------
     A         38      38       0       0       0       0
   -------------------------------------------------------
    Total      38      38       9       9       9       0
   -------------------------------------------------------

  ==> Integral Setup <==

  ==> DiskDFJK: Density-Fitted J/K Matrices <==

    J tasked:                  Yes
    K tasked:                  Yes
    wK tasked:                 Yes
    Omega:               2.000E-01
    OpenMP threads:              8
    Integrals threads:           8
    Memory [MiB]:            71385
    Algorithm:                Core
    Integral Cache:           NONE
    Schwarz Cutoff:          1E-12
    Fitting Condition:       1E-10

   => Auxiliary Basis Set <=

  Basis Set: (6-31G* AUX)
    Blend: CC-PVDZ-JKFIT
    Number of shells: 84
    Number of basis function: 262
    Number of Cartesian functions: 262
    Spherical Harmonics?: false
    Max angular momentum: 3

  Cached 100.0% of DFT collocation blocks in 0.136 [GiB].

  Minimum eigenvalue in the overlap matrix is 9.8294742543E-03.
  Using Symmetric Orthogonalization.

  SCF Guess: Orbitals guess was supplied from a previous computation.

  ==> Iterations <==

                           Total Energy        Delta E     RMS |[F,P]|

   @DF-RKS iter   0:  -115.67620456437209   -1.15676e+02   1.79101e-03 
   @DF-RKS iter   1:  -115.67687749163495   -6.72927e-04   3.96547e-04 DIIS
   @DF-RKS iter   2:  -115.67690288090745   -2.53893e-05   3.95033e-04 DIIS
   @DF-RKS iter   3:  -115.67698050162095   -7.76207e-05   3.32838e-05 DIIS
   @DF-RKS iter   4:  -115.67698173298490   -1.23136e-06   8.15120e-06 DIIS
   @DF-RKS iter   5:  -115.67698180296981   -6.99849e-08   2.15182e-06 DIIS
   @DF-RKS iter   6:  -115.67698180725949   -4.28969e-09   6.96502e-07 DIIS
   @DF-RKS iter   7:  -115.67698180775987   -5.00378e-10   8.91915e-08 DIIS
   @DF-RKS iter   8:  -115.67698180777684   -1.69678e-11   1.56552e-08 DIIS
   @DF-RKS iter   9:  -115.67698180777752   -6.82121e-13   2.97562e-09 DIIS
  Energy and wave function converged.


  ==> Post-Iterations <==

    Orbital Energies [Eh]
    ---------------------

    Doubly Occupied:                                                      

       1A    -19.263524     2A    -10.333994     3A     -1.112640  
       4A     -0.774651     5A     -0.590849     6A     -0.519922  
       7A     -0.503337     8A     -0.415835     9A     -0.349683  

    Virtual:                                                              

      10A      0.167299    11A      0.218755    12A      0.251337  
      13A      0.260124    14A      0.292714    15A      0.626792  
      16A      0.656370    17A      0.668275    18A      0.885782  
      19A      0.946411    20A      0.968175    21A      1.000650  
      22A      1.048955    23A      1.071565    24A      1.111315  
      25A      1.203732    26A      1.552089    27A      1.588662  
      28A      1.665941    29A      1.830843    30A      2.123745  
      31A      2.207930    32A      2.218081    33A      2.433503  
      34A      2.497436    35A      2.547173    36A      2.887712  
      37A      3.800222    38A      4.316038  

    Final Occupation by Irrep:
              A 
    DOCC [     9 ]

  @DF-RKS Final Energy:  -115.67698180777752

   => Energetics <=

    Nuclear Repulsion Energy =             40.2371574547867183
    One-Electron Energy =                -236.8830176664710621
    Two-Electron Energy =                  91.6249179369009283
    DFT Exchange-Correlation Energy =     -10.6551961488780123
    Empirical Dispersion Energy =          -0.0008433841160835
    VV10 Nonlocal Energy =                  0.0000000000000000
    Total Energy =                       -115.6769818077775085

Computation Completed


Properties will be evaluated at   0.000000,   0.000000,   0.000000 [a0]

Properties computed using the SCF density matrix

  Nuclear Dipole Moment: [e a0]
     X:    -2.1810      Y:     0.2082      Z:     0.7443

  Electronic Dipole Moment: [e a0]
     X:     1.8256      Y:    -0.0856      Z:    -0.1603

  Dipole Moment: [e a0]
     X:    -0.3554      Y:     0.1226      Z:     0.5839     Total:     0.6945

  Dipole Moment: [D]
     X:    -0.9034      Y:     0.3116      Z:     1.4842     Total:     1.7653


*** tstop() called on node35.bme.utexas.edu at Mon Oct  5 15:32:27 2020
Module time:
	user time   =      15.35 seconds =       0.26 minutes
	system time =       0.96 seconds =       0.02 minutes
	total time  =          2 seconds =       0.03 minutes
Total time:
	user time   =      48.23 seconds =       0.80 minutes
	system time =       3.30 seconds =       0.06 minutes
	total time  =          7 seconds =       0.12 minutes

*** tstart() called on node35.bme.utexas.edu
*** at Mon Oct  5 15:32:27 2020


         ------------------------------------------------------------
                                   SCF GRAD                          
                          Rob Parrish, Justin Turney,                
                       Andy Simmonett, and Alex Sokolov              
         ------------------------------------------------------------

  ==> Geometry <==

    Molecular point group: c1
    Full point group: C1

    Geometry (in Angstrom), charge = 0, multiplicity = 1:

       Center              X                  Y                   Z               Mass       
    ------------   -----------------  -----------------  -----------------  -----------------
         O            0.691747094063    -0.030270996973    -0.051468951590    15.994914619570
         C           -0.726347888388     0.021680421520     0.001903369627    12.000000000000
         H           -1.160721370676    -0.751761323034     0.654997262176     1.007825032230
         H           -1.062740008838    -0.160310088075    -1.018835361062     1.007825032230
         H           -1.122850984541     1.002456557652     0.318221785806     1.007825032230
         H            1.016283864932     0.131892477678     0.839802828726     1.007825032230

  Nuclear repulsion =   40.237157454786718

  ==> Basis Set <==

  Basis Set: 6-31G*
    Blend: 6-31G*
    Number of shells: 20
    Number of basis function: 38
    Number of Cartesian functions: 38
    Spherical Harmonics?: false
    Max angular momentum: 2

  ==> DFJKGrad: Density-Fitted SCF Gradients <==

    Gradient:                    1
    J tasked:                  Yes
    K tasked:                  Yes
    wK tasked:                 Yes
    Omega:               2.000E-01
    OpenMP threads:              8
    Integrals threads:           8
    Memory [MiB]:            71525
    Schwarz Cutoff:          0E+00
    Fitting Condition:       1E-10

   => Auxiliary Basis Set <=

  Basis Set: (6-31G* AUX)
    Blend: CC-PVDZ-JKFIT
    Number of shells: 84
    Number of basis function: 262
    Number of Cartesian functions: 262
    Spherical Harmonics?: false
    Max angular momentum: 3

  ==> DFT Potential <==

   => Composite Functional: WB97X-D <= 

    wB97X-D Hyb-GGA Exchange-Correlation Functional

    J.-D. Chai and M. Head-Gordon, Phys. Chem. Chem. Phys. 10, 6615 (2008)

    Deriv               =              1
    GGA                 =           TRUE
    Meta                =          FALSE

    Exchange Hybrid     =           TRUE
    MP2 Hybrid          =          FALSE

   => Exchange-Correlation Functionals <=

    1.0000   wB97D range-separated functional

   => Exact (HF) Exchange <=

    0.7780            HF,LR [omega = 0.2000]
    0.2220               HF 

   => Molecular Quadrature <=

    Radial Scheme          =       TREUTLER
    Pruning Scheme         =           FLAT
    Nuclear Scheme         =       TREUTLER

    BS radius alpha        =              1
    Pruning alpha          =              1
    Radial Points          =             75
    Spherical Points       =            302
    Total Points           =         131922
    Total Blocks           =           1065
    Max Points             =            256
    Max Functions          =             38


  -Total Gradient:
     Atom            X                  Y                   Z
    ------   -----------------  -----------------  -----------------
       1        0.007801909817    -0.001549142748    -0.002712688472
       2       -0.003926492615    -0.000203524764     0.002044517129
       3       -0.001572287145    -0.000313021865     0.000650735324
       4        0.002395920030     0.000684348219     0.000851388957
       5       -0.003415182237     0.001542170184     0.000197666055
       6       -0.001510429064    -0.000148058888    -0.000992416652


*** tstop() called on node35.bme.utexas.edu at Mon Oct  5 15:32:28 2020
Module time:
	user time   =       8.90 seconds =       0.15 minutes
	system time =       0.65 seconds =       0.01 minutes
	total time  =          1 seconds =       0.02 minutes
Total time:
	user time   =      57.14 seconds =       0.95 minutes
	system time =       3.95 seconds =       0.07 minutes
	total time  =          8 seconds =       0.13 minutes

			-----------------------------------------
			 OPTKING 2.0: for geometry optimizations 
			  - R.A. King,  Bethel University        
			-----------------------------------------

	Previous internal coordinate definitions found.
	---Fragment 1 Geometry and Gradient---
	 O           1.3072125559       -0.0572038938       -0.0972622225
	 C          -1.3725985809        0.0409700590        0.0035968473
	 H          -2.1934454985       -1.4206230122        1.2377654384
	 H          -2.0082875593       -0.3029421616       -1.9253197993
	 H          -2.1218808405        1.8943683466        0.6013520223
	 H           1.9204981704        0.2492406608        1.5869973457
	             0.0078019098       -0.0015491427       -0.0027126885
	            -0.0039264926       -0.0002035248        0.0020445171
	            -0.0015722871       -0.0003130219        0.0006507353
	             0.0023959200        0.0006843482        0.0008513890
	            -0.0034151822        0.0015421702        0.0001976661
	            -0.0015104291       -0.0001480589       -0.0009924167

	---Fragment 1 Intrafragment Coordinates---
	 - Coordinate -           - BOHR/RAD -       - ANG/DEG -
	 R(1,2)           =         2.683505	       1.420050
	 R(1,6)           =         1.818449	       0.962282
	 R(2,3)           =         2.081638	       1.101555
	 R(2,4)           =         2.059878	       1.090040
	 R(2,5)           =         2.086581	       1.104171
	 B(1,2,3)         =         1.971842	     112.978207
	 B(1,2,4)         =         1.840948	     105.478522
	 B(1,2,5)         =         1.984348	     113.694781
	 B(2,1,6)         =         1.871107	     107.206521
	 B(3,2,4)         =         1.892593	     108.437572
	 B(3,2,5)         =         1.888327	     108.193180
	 B(4,2,5)         =         1.881515	     107.802889
	 D(3,2,1,6)       =        -1.081558	     -61.968735
	 D(4,2,1,6)       =         3.137140	     179.744863
	 D(5,2,1,6)       =         1.079333	      61.841219

	Current energy   :      -115.6769818078

	Energy change for the previous step:
		Projected    :        -0.0035263162
		Actual       :        -0.0016273841

	Performing BFGS update.
	Previous computed or guess Hessian on step 1.
	Steps to be used in Hessian update: 1
	Taking RFO optimization step.
	Going to follow RFO solution 1.
	Using RFO vector 1.
	Norm of target step-size    0.03711
	Projected energy change by RFO approximation:        -0.0003105202

	Back-transformation to cartesian coordinates...
	Successfully converged to displaced geometry.
	First geometry is closer to target in internal coordinates, so am using that one.
	First geometry has RMS(Delta(q)) = 1.02e-04

	--- Internal Coordinate Step in ANG or DEG, aJ/ANG or AJ/DEG ---
	 ---------------------------------------------------------------------------
	   Coordinate                Previous        Force       Change         New 
	   ----------                --------       ------       ------       ------
	    1 R(1,2)          =      1.420050    -0.054022    -0.006486     1.413564
	    2 R(1,6)          =      0.962282     0.011879     0.001079     0.963361
	    3 R(2,3)          =      1.101555    -0.009957    -0.002032     1.099523
	    4 R(2,4)          =      1.090040     0.013633     0.001862     1.091902
	    5 R(2,5)          =      1.104171    -0.021696    -0.003770     1.100401
	    6 B(1,2,3)        =    112.978207    -0.000129    -0.431234   112.546973
	    7 B(1,2,4)        =    105.478522     0.000324     1.243688   106.722210
	    8 B(1,2,5)        =    113.694781    -0.000314    -1.093358   112.601423
	    9 B(2,1,6)        =    107.206521     0.000146     0.520205   107.726726
	   10 B(3,2,4)        =    108.437572    -0.000041    -0.198140   108.239431
	   11 B(3,2,5)        =    108.193180     0.000123     0.262867   108.456047
	   12 B(4,2,5)        =    107.802889     0.000056     0.287354   108.090243
	   13 D(3,2,1,6)      =    -61.968735     0.000021     0.409225   -61.559510
	   14 D(4,2,1,6)      =    179.744863     0.000002     0.102302   179.847165
	   15 D(5,2,1,6)      =     61.841219    -0.000023    -0.435869    61.405350
	 ---------------------------------------------------------------------------
	Successfully symmetrized geometry.

  ==> Convergence Check <==

  Measures of convergence in internal coordinates in au.
  Criteria marked as inactive (o), active & met (*), and active & unmet ( ).
  ---------------------------------------------------------------------------------------------
   Step     Total Energy     Delta E     MAX Force     RMS Force      MAX Disp      RMS Disp   
  ---------------------------------------------------------------------------------------------
    Convergence Criteria             o    2.50e-03 *    1.70e-03 *    1.00e-02 *    6.70e-03 *
  ---------------------------------------------------------------------------------------------
      2    -115.67698181   -1.63e-03 o    6.56e-03      2.64e-03      2.17e-02      9.58e-03    ~
  ---------------------------------------------------------------------------------------------

	Writing optimization data to binary file.
	Structure for next step:
	Cartesian Geometry (in Angstrom)
	    O     0.6864171910  -0.0267975653  -0.0460796940
	    C    -0.7257423924   0.0198669856  -0.0037763000
	    H    -1.1536540329  -0.7524323149   0.6515076277
	    H    -1.0767468550  -0.1626128223  -1.0214926202
	    H    -1.1070080984   1.0005134815   0.3184848515
	    H     1.0121049036   0.1351492833   0.8459770658
			--------------------------
			 OPTKING Finished Execution 
			--------------------------

    Structure for next step:
    Molecular point group: c1
    Full point group: C1

    Geometry (in Angstrom), charge = 0, multiplicity = 1:

    O            0.688703570897    -0.027800588280    -0.046652267666
    C           -0.723456018007     0.018863962812    -0.004348873495
    H           -1.151367660211    -0.753435340737     0.650935056841
    H           -1.074460482065    -0.163615845868    -1.022065197632
    H           -1.104721725568     0.999510462560     0.317912279270
    H            1.014391284811     0.134146260915     0.845404495645

gradient() will perform analytic gradient computation.

*** tstart() called on node35.bme.utexas.edu
*** at Mon Oct  5 15:32:28 2020

   => Loading Basis Set <=

    Name: 6-31G*
    Role: ORBITAL
    Keyword: BASIS
    atoms 1   entry O          line   145 file /home/bdw2292/miniconda3/envs/p4env/share/psi4/basis/6-31gs.gbs 
    atoms 2   entry C          line   111 file /home/bdw2292/miniconda3/envs/p4env/share/psi4/basis/6-31gs.gbs 
    atoms 3-6 entry H          line    44 file /home/bdw2292/miniconda3/envs/p4env/share/psi4/basis/6-31gs.gbs 


         ---------------------------------------------------------
                                   SCF
               by Justin Turney, Rob Parrish, Andy Simmonett
                          and Daniel G. A. Smith
                              RKS Reference
                        8 Threads,  95367 MiB Core
         ---------------------------------------------------------

  ==> Geometry <==

    Molecular point group: c1
    Full point group: C1

    Geometry (in Angstrom), charge = 0, multiplicity = 1:

       Center              X                  Y                   Z               Mass       
    ------------   -----------------  -----------------  -----------------  -----------------
         O            0.688703570897    -0.027800588280    -0.046652267666    15.994914619570
         C           -0.723456018007     0.018863962812    -0.004348873495    12.000000000000
         H           -1.151367660211    -0.753435340737     0.650935056841     1.007825032230
         H           -1.074460482065    -0.163615845868    -1.022065197632     1.007825032230
         H           -1.104721725568     0.999510462560     0.317912279270     1.007825032230
         H            1.014391284811     0.134146260915     0.845404495645     1.007825032230

  Running in c1 symmetry.

  Rotational constants: A =      4.25740  B =      0.83218  C =      0.80251 [cm^-1]
  Rotational constants: A = 127633.69601  B =  24947.99226  C =  24058.70885 [MHz]
  Nuclear repulsion =   40.345676819382057

  Charge       = 0
  Multiplicity = 1
  Electrons    = 18
  Nalpha       = 9
  Nbeta        = 9

  ==> Algorithm <==

  SCF Algorithm Type is DF.
  DIIS enabled.
  MOM disabled.
  Fractional occupation disabled.
  Guess Type is READ.
  Energy threshold   = 1.00e-08
  Density threshold  = 1.00e-08
  Integral threshold = 0.00e+00

  ==> Primary Basis <==

  Basis Set: 6-31G*
    Blend: 6-31G*
    Number of shells: 20
    Number of basis function: 38
    Number of Cartesian functions: 38
    Spherical Harmonics?: false
    Max angular momentum: 2

  ==> DFT Potential <==

   => Composite Functional: WB97X-D <= 

    wB97X-D Hyb-GGA Exchange-Correlation Functional

    J.-D. Chai and M. Head-Gordon, Phys. Chem. Chem. Phys. 10, 6615 (2008)

    Deriv               =              1
    GGA                 =           TRUE
    Meta                =          FALSE

    Exchange Hybrid     =           TRUE
    MP2 Hybrid          =          FALSE

   => Exchange-Correlation Functionals <=

    1.0000   wB97D range-separated functional

   => Exact (HF) Exchange <=

    0.7780            HF,LR [omega = 0.2000]
    0.2220               HF 

   => Molecular Quadrature <=

    Radial Scheme          =       TREUTLER
    Pruning Scheme         =           FLAT
    Nuclear Scheme         =       TREUTLER

    BS radius alpha        =              1
    Pruning alpha          =              1
    Radial Points          =             75
    Spherical Points       =            302
    Total Points           =         131920
    Total Blocks           =           1060
    Max Points             =            256
    Max Functions          =             38

   => WB97X-D: Empirical Dispersion <=

    Chai and Head-Gordon Dispersion Correction
    Chai, J.-D.; Head-Gordon, M. (2010), J. Chem. Phys., 132: 6615-6620

        s6 =       1.000000

   => Loading Basis Set <=

    Name: (6-31G* AUX)
    Role: JKFIT
    Keyword: DF_BASIS_SCF
    atoms 1   entry O          line   221 file /home/bdw2292/miniconda3/envs/p4env/share/psi4/basis/cc-pvdz-jkfit.gbs 
    atoms 2   entry C          line   121 file /home/bdw2292/miniconda3/envs/p4env/share/psi4/basis/cc-pvdz-jkfit.gbs 
    atoms 3-6 entry H          line    51 file /home/bdw2292/miniconda3/envs/p4env/share/psi4/basis/cc-pvdz-jkfit.gbs 

   => Loading Basis Set <=

    Name: 6-31G*
    Role: ORBITAL
    Keyword: BASIS
    atoms 1   entry O          line   145 file /home/bdw2292/miniconda3/envs/p4env/share/psi4/basis/6-31gs.gbs 
    atoms 2   entry C          line   111 file /home/bdw2292/miniconda3/envs/p4env/share/psi4/basis/6-31gs.gbs 
    atoms 3-6 entry H          line    44 file /home/bdw2292/miniconda3/envs/p4env/share/psi4/basis/6-31gs.gbs 

  Reading orbitals from file 180, no projection.

  ==> Pre-Iterations <==

   -------------------------------------------------------
    Irrep   Nso     Nmo     Nalpha   Nbeta   Ndocc  Nsocc
   -------------------------------------------------------
     A         38      38       0       0       0       0
   -------------------------------------------------------
    Total      38      38       9       9       9       0
   -------------------------------------------------------

  ==> Integral Setup <==

  ==> DiskDFJK: Density-Fitted J/K Matrices <==

    J tasked:                  Yes
    K tasked:                  Yes
    wK tasked:                 Yes
    Omega:               2.000E-01
    OpenMP threads:              8
    Integrals threads:           8
    Memory [MiB]:            71385
    Algorithm:                Core
    Integral Cache:           NONE
    Schwarz Cutoff:          1E-12
    Fitting Condition:       1E-10

   => Auxiliary Basis Set <=

  Basis Set: (6-31G* AUX)
    Blend: CC-PVDZ-JKFIT
    Number of shells: 84
    Number of basis function: 262
    Number of Cartesian functions: 262
    Spherical Harmonics?: false
    Max angular momentum: 3

  Cached 100.0% of DFT collocation blocks in 0.136 [GiB].

  Minimum eigenvalue in the overlap matrix is 9.6949677322E-03.
  Using Symmetric Orthogonalization.

  SCF Guess: Orbitals guess was supplied from a previous computation.

  ==> Iterations <==

                           Total Energy        Delta E     RMS |[F,P]|

   @DF-RKS iter   0:  -115.68106516017394   -1.15681e+02   5.80461e-04 
   @DF-RKS iter   1:  -115.67716923858865    3.89592e-03   8.82536e-05 DIIS
   @DF-RKS iter   2:  -115.67717294032823   -3.70174e-06   5.25178e-05 DIIS
   @DF-RKS iter   3:  -115.67717453919067   -1.59886e-06   1.48959e-05 DIIS
   @DF-RKS iter   4:  -115.67717466945417   -1.30264e-07   4.24988e-06 DIIS
   @DF-RKS iter   5:  -115.67717468354063   -1.40865e-08   1.40713e-06 DIIS
   @DF-RKS iter   6:  -115.67717468509861   -1.55798e-09   1.23687e-07 DIIS
   @DF-RKS iter   7:  -115.67717468513683   -3.82272e-11   2.01436e-08 DIIS
   @DF-RKS iter   8:  -115.67717468513759   -7.53175e-13   5.10013e-09 DIIS
  Energy and wave function converged.


  ==> Post-Iterations <==

    Orbital Energies [Eh]
    ---------------------

    Doubly Occupied:                                                      

       1A    -19.262579     2A    -10.333159     3A     -1.113660  
       4A     -0.774523     5A     -0.591239     6A     -0.521391  
       7A     -0.505424     8A     -0.413882     9A     -0.348649  

    Virtual:                                                              

      10A      0.167089    11A      0.220091    12A      0.252860  
      13A      0.260805    14A      0.293838    15A      0.629409  
      16A      0.657500    17A      0.667350    18A      0.884159  
      19A      0.948843    20A      0.968077    21A      1.002156  
      22A      1.047814    23A      1.070027    24A      1.112401  
      25A      1.207318    26A      1.551602    27A      1.585949  
      28A      1.672242    29A      1.831152    30A      2.135740  
      31A      2.207232    32A      2.223880    33A      2.443411  
      34A      2.497288    35A      2.546259    36A      2.890176  
      37A      3.804544    38A      4.316817  

    Final Occupation by Irrep:
              A 
    DOCC [     9 ]

  @DF-RKS Final Energy:  -115.67717468513759

   => Energetics <=

    Nuclear Repulsion Energy =             40.3456768193820565
    One-Electron Energy =                -237.0980918474637349
    Two-Electron Energy =                  91.7346529988391808
    DFT Exchange-Correlation Energy =     -10.6585749249680841
    Empirical Dispersion Energy =          -0.0008377309270017
    VV10 Nonlocal Energy =                  0.0000000000000000
    Total Energy =                       -115.6771746851375866

Computation Completed


Properties will be evaluated at   0.000000,   0.000000,   0.000000 [a0]

Properties computed using the SCF density matrix

  Nuclear Dipole Moment: [e a0]
     X:    -2.1680      Y:     0.2029      Z:     0.7424

  Electronic Dipole Moment: [e a0]
     X:     1.8159      Y:    -0.0817      Z:    -0.1598

  Dipole Moment: [e a0]
     X:    -0.3521      Y:     0.1212      Z:     0.5827     Total:     0.6915

  Dipole Moment: [D]
     X:    -0.8950      Y:     0.3080      Z:     1.4810     Total:     1.7576


*** tstop() called on node35.bme.utexas.edu at Mon Oct  5 15:32:31 2020
Module time:
	user time   =      14.80 seconds =       0.25 minutes
	system time =       1.01 seconds =       0.02 minutes
	total time  =          3 seconds =       0.05 minutes
Total time:
	user time   =      72.17 seconds =       1.20 minutes
	system time =       4.99 seconds =       0.08 minutes
	total time  =         11 seconds =       0.18 minutes

*** tstart() called on node35.bme.utexas.edu
*** at Mon Oct  5 15:32:31 2020


         ------------------------------------------------------------
                                   SCF GRAD                          
                          Rob Parrish, Justin Turney,                
                       Andy Simmonett, and Alex Sokolov              
         ------------------------------------------------------------

  ==> Geometry <==

    Molecular point group: c1
    Full point group: C1

    Geometry (in Angstrom), charge = 0, multiplicity = 1:

       Center              X                  Y                   Z               Mass       
    ------------   -----------------  -----------------  -----------------  -----------------
         O            0.688703570897    -0.027800588280    -0.046652267666    15.994914619570
         C           -0.723456018007     0.018863962812    -0.004348873495    12.000000000000
         H           -1.151367660211    -0.753435340737     0.650935056841     1.007825032230
         H           -1.074460482065    -0.163615845868    -1.022065197632     1.007825032230
         H           -1.104721725568     0.999510462560     0.317912279270     1.007825032230
         H            1.014391284811     0.134146260915     0.845404495645     1.007825032230

  Nuclear repulsion =   40.345676819382057

  ==> Basis Set <==

  Basis Set: 6-31G*
    Blend: 6-31G*
    Number of shells: 20
    Number of basis function: 38
    Number of Cartesian functions: 38
    Spherical Harmonics?: false
    Max angular momentum: 2

  ==> DFJKGrad: Density-Fitted SCF Gradients <==

    Gradient:                    1
    J tasked:                  Yes
    K tasked:                  Yes
    wK tasked:                 Yes
    Omega:               2.000E-01
    OpenMP threads:              8
    Integrals threads:           8
    Memory [MiB]:            71525
    Schwarz Cutoff:          0E+00
    Fitting Condition:       1E-10

   => Auxiliary Basis Set <=

  Basis Set: (6-31G* AUX)
    Blend: CC-PVDZ-JKFIT
    Number of shells: 84
    Number of basis function: 262
    Number of Cartesian functions: 262
    Spherical Harmonics?: false
    Max angular momentum: 3

  ==> DFT Potential <==

   => Composite Functional: WB97X-D <= 

    wB97X-D Hyb-GGA Exchange-Correlation Functional

    J.-D. Chai and M. Head-Gordon, Phys. Chem. Chem. Phys. 10, 6615 (2008)

    Deriv               =              1
    GGA                 =           TRUE
    Meta                =          FALSE

    Exchange Hybrid     =           TRUE
    MP2 Hybrid          =          FALSE

   => Exchange-Correlation Functionals <=

    1.0000   wB97D range-separated functional

   => Exact (HF) Exchange <=

    0.7780            HF,LR [omega = 0.2000]
    0.2220               HF 

   => Molecular Quadrature <=

    Radial Scheme          =       TREUTLER
    Pruning Scheme         =           FLAT
    Nuclear Scheme         =       TREUTLER

    BS radius alpha        =              1
    Pruning alpha          =              1
    Radial Points          =             75
    Spherical Points       =            302
    Total Points           =         131920
    Total Blocks           =           1060
    Max Points             =            256
    Max Functions          =             38


  -Total Gradient:
     Atom            X                  Y                   Z
    ------   -----------------  -----------------  -----------------
       1        0.002118506583    -0.000193386429    -0.000342602692
       2       -0.002342366349    -0.000437669272     0.000004982567
       3        0.000077912740     0.000348804198    -0.000102813802
       4        0.000170876768     0.000177952853     0.000226915686
       5       -0.000262700673     0.000064449716     0.000036765996
       6       -0.000022776241     0.000039893359     0.000157286362


*** tstop() called on node35.bme.utexas.edu at Mon Oct  5 15:32:32 2020
Module time:
	user time   =       9.22 seconds =       0.15 minutes
	system time =       0.50 seconds =       0.01 minutes
	total time  =          1 seconds =       0.02 minutes
Total time:
	user time   =      81.40 seconds =       1.36 minutes
	system time =       5.49 seconds =       0.09 minutes
	total time  =         12 seconds =       0.20 minutes

			-----------------------------------------
			 OPTKING 2.0: for geometry optimizations 
			  - R.A. King,  Bethel University        
			-----------------------------------------

	Previous internal coordinate definitions found.
	---Fragment 1 Geometry and Gradient---
	 O           1.3014611306       -0.0525354980       -0.0881600090
	 C          -1.3671337378        0.0356477234       -0.0082181799
	 H          -2.1757695475       -1.4237864472        1.2300889829
	 H          -2.0304360437       -0.3091891385       -1.9314233059
	 H          -2.0876215062        1.8888010338        0.6007671397
	 H           1.9169217123        0.2534996939        1.5975829620
	             0.0021185066       -0.0001933864       -0.0003426027
	            -0.0023423663       -0.0004376693        0.0000049826
	             0.0000779127        0.0003488042       -0.0001028138
	             0.0001708768        0.0001779529        0.0002269157
	            -0.0002627007        0.0000644497        0.0000367660
	            -0.0000227762        0.0000398934        0.0001572864

	---Fragment 1 Intrafragment Coordinates---
	 - Coordinate -           - BOHR/RAD -       - ANG/DEG -
	 R(1,2)           =         2.671248	       1.413564
	 R(1,6)           =         1.820489	       0.963361
	 R(2,3)           =         2.077798	       1.099523
	 R(2,4)           =         2.063395	       1.091902
	 R(2,5)           =         2.079457	       1.100401
	 B(1,2,3)         =         1.964315	     112.546973
	 B(1,2,4)         =         1.862654	     106.722210
	 B(1,2,5)         =         1.965266	     112.601423
	 B(2,1,6)         =         1.880186	     107.726726
	 B(3,2,4)         =         1.889134	     108.239431
	 B(3,2,5)         =         1.892915	     108.456047
	 B(4,2,5)         =         1.886531	     108.090243
	 D(3,2,1,6)       =        -1.074416	     -61.559510
	 D(4,2,1,6)       =         3.138925	     179.847165
	 D(5,2,1,6)       =         1.071726	      61.405350

	Current energy   :      -115.6771746851

	Energy change for the previous step:
		Projected    :        -0.0003105202
		Actual       :        -0.0001928774

	Performing BFGS update.
	Previous computed or guess Hessian on step 1.
	Steps to be used in Hessian update: 2 1
	Taking RFO optimization step.
	Going to follow RFO solution 1.
	Using RFO vector 1.
	Norm of target step-size    0.00787
	Projected energy change by RFO approximation:        -0.0000218246

	Back-transformation to cartesian coordinates...
	Could not converge backtransformation.
	Using first guess instead.

	--- Internal Coordinate Step in ANG or DEG, aJ/ANG or AJ/DEG ---
	 ---------------------------------------------------------------------------
	   Coordinate                Previous        Force       Change         New 
	   ----------                --------       ------       ------       ------
	    1 R(1,2)          =      1.413564    -0.018072    -0.003084     1.410479
	    2 R(1,6)          =      0.963361    -0.001299    -0.000156     0.963205
	    3 R(2,3)          =      1.099523     0.002890     0.000568     1.100091
	    4 R(2,4)          =      1.091902     0.002590     0.000467     1.092368
	    5 R(2,5)          =      1.100401    -0.001203    -0.000310     1.100092
	    6 B(1,2,3)        =    112.546973    -0.000002     0.035315   112.582288
	    7 B(1,2,4)        =    106.722210     0.000014     0.050928   106.773139
	    8 B(1,2,5)        =    112.601423    -0.000018    -0.020200   112.581224
	    9 B(2,1,6)        =    107.726726     0.000004     0.018156   107.744882
	   10 B(3,2,4)        =    108.239431    -0.000013    -0.163013   108.076419
	   11 B(3,2,5)        =    108.456047     0.000012     0.059216   108.515263
	   12 B(4,2,5)        =    108.090243     0.000006     0.029267   108.119510
	   13 D(3,2,1,6)      =    -61.559510    -0.000001     0.032794   -61.526716
	   14 D(4,2,1,6)      =    179.847165     0.000001     0.179669   180.026834
	   15 D(5,2,1,6)      =     61.405350    -0.000000     0.122931    61.528281
	 ---------------------------------------------------------------------------
	Successfully symmetrized geometry.

  ==> Convergence Check <==

  Measures of convergence in internal coordinates in au.
  Criteria marked as inactive (o), active & met (*), and active & unmet ( ).
  ---------------------------------------------------------------------------------------------
   Step     Total Energy     Delta E     MAX Force     RMS Force      MAX Disp      RMS Disp   
  ---------------------------------------------------------------------------------------------
    Convergence Criteria             o    2.50e-03 *    1.70e-03 *    1.00e-02 *    6.70e-03 *
  ---------------------------------------------------------------------------------------------
      3    -115.67717469   -1.93e-04 o    2.19e-03 *    5.91e-04 *    5.83e-03 *    2.03e-03 *  ~
  ---------------------------------------------------------------------------------------------


  **** Optimization is complete! (in 3 steps) ****

  ==> Optimization Summary <==

  Measures of convergence in internal coordinates in au.
  --------------------------------------------------------------------------------------------------------------- ~
   Step         Total Energy             Delta E       MAX Force       RMS Force        MAX Disp        RMS Disp  ~
  --------------------------------------------------------------------------------------------------------------- ~
      1    -115.675354423640   -115.675354423640      0.01536714      0.00667845      0.10246738      0.04584108  ~
      2    -115.676981807778     -0.001627384138      0.00655704      0.00263982      0.02170645      0.00958085  ~
      3    -115.677174685138     -0.000192877360      0.00219357      0.00059117      0.00582863      0.00203164  ~
  --------------------------------------------------------------------------------------------------------------- ~

	Writing optimization data to binary file.
	Final energy is   -115.6771746851376
	Final (previous) structure:
	Cartesian Geometry (in Angstrom)
	    O     0.6887035682  -0.0278005882  -0.0466522675
	    C    -0.7234560152   0.0188639627  -0.0043488735
	    H    -1.1513676557  -0.7534353378   0.6509350543
	    H    -1.0744604778  -0.1636158452  -1.0220651936
	    H    -1.1047217212   0.9995104586   0.3179122780
	    H     1.0143912808   0.1341462604   0.8454044923
	Saving final (previous) structure.
			--------------------------
			 OPTKING Finished Execution 
			--------------------------

    Final optimized geometry and variables:
    Molecular point group: c1
    Full point group: C1

    Geometry (in Angstrom), charge = 0, multiplicity = 1:

    O            0.688703570897    -0.027800588280    -0.046652267666
    C           -0.723456018007     0.018863962812    -0.004348873495
    H           -1.151367660211    -0.753435340737     0.650935056841
    H           -1.074460482065    -0.163615845868    -1.022065197632
    H           -1.104721725568     0.999510462560     0.317912279270
    H            1.014391284811     0.134146260915     0.845404495645

	Removing binary optimization data file.
	Cleaning optimization helper files.

    Psi4 stopped on: Monday, 05 October 2020 03:32PM
    Psi4 wall time for execution: 0:00:11.89

*** Psi4 exiting successfully. Buy a developer a beer!
