
    -----------------------------------------------------------------------
          Psi4: An Open-Source Ab Initio Electronic Structure Package
                               Psi4 1.3.2 release

                         Git: Rev {HEAD} ecbda83 


    R. M. Parrish, L. A. Burns, D. G. A. Smith, A. C. Simmonett,
    A. E. DePrince III, E. G. Hohenstein, U. Bozkaya, A. Yu. Sokolov,
    R. Di Remigio, R. M. Richard, J. F. Gonthier, A. M. James,
    H. R. McAlexander, A. Kumar, M. Saitow, X. Wang, B. P. Pritchard,
    P. Verma, H. F. Schaefer III, K. Patkowski, R. A. King, E. F. Valeev,
    F. A. Evangelista, J. M. Turney, T. D. Crawford, and C. D. Sherrill,
    J. Chem. Theory Comput. 13(7) pp 3185--3197 (2017).
    (doi: 10.1021/acs.jctc.7b00174)


                         Additional Contributions by
    P. Kraus, H. Kruse, M. H. Lechner, M. C. Schieber, R. A. Shaw,
    A. Alenaizan, R. Galvelis, Z. L. Glick, S. Lehtola, and J. P. Misiewicz

    -----------------------------------------------------------------------


    Psi4 started on: Monday, 05 October 2020 03:30PM

    Process ID: 57674
    Host:       node35.bme.utexas.edu
    PSIDATADIR: /home/bdw2292/miniconda3/envs/p4env/share/psi4
    Memory:     500.0 MiB
    Threads:    1
    
  ==> Input File <==

--------------------------------------------------------------------------
molecule { 
0 1
 O    0.672649    0.011467    0.006065
 C   -0.742987    0.039829    0.013327
 H   -1.105502   -0.720871    0.717892
 H   -1.101933   -0.119175   -1.012505
 H   -1.070145    1.031659    0.357620
 H    0.999618    0.866791    0.304100
}
set optking { 
  frozen_dihedral = ("
  ")
}
set {
  geom_maxiter 3
  g_convergence GAU_LOOSE
}
memory 100GB
set_num_threads(8)
psi4_io.set_default_path("/scratch/bdw2292/Psi4-methanol")
for _ in range(1):
  try:
    optimize('wb97x-d/6-31G*')
    break
  except OptimizationConvergenceError:
    try:
      set opt_coordinates cartesian
      optimize('wb97x-d/6-31G*')
      break
    except OptimizationConvergenceError:
      pass
clean()
--------------------------------------------------------------------------

  Memory set to  93.132 GiB by Python driver.
  Threads set to 8 by Python driver.
gradient() will perform analytic gradient computation.

*** tstart() called on node35.bme.utexas.edu
*** at Mon Oct  5 15:30:42 2020

   => Loading Basis Set <=

    Name: 6-31G*
    Role: ORBITAL
    Keyword: BASIS
    atoms 1   entry O          line   145 file /home/bdw2292/miniconda3/envs/p4env/share/psi4/basis/6-31gs.gbs 
    atoms 2   entry C          line   111 file /home/bdw2292/miniconda3/envs/p4env/share/psi4/basis/6-31gs.gbs 
    atoms 3-6 entry H          line    44 file /home/bdw2292/miniconda3/envs/p4env/share/psi4/basis/6-31gs.gbs 


         ---------------------------------------------------------
                                   SCF
               by Justin Turney, Rob Parrish, Andy Simmonett
                          and Daniel G. A. Smith
                              RKS Reference
                        8 Threads,  95367 MiB Core
         ---------------------------------------------------------

  ==> Geometry <==

    Molecular point group: c1
    Full point group: C1

    Geometry (in Angstrom), charge = 0, multiplicity = 1:

       Center              X                  Y                   Z               Mass       
    ------------   -----------------  -----------------  -----------------  -----------------
         O            0.686783289852    -0.042490289206    -0.013509988371    15.994914619570
         C           -0.728852710148    -0.014128289206    -0.006247988371    12.000000000000
         H           -1.091367710148    -0.774828289206     0.698317011629     1.007825032230
         H           -1.087798710148    -0.173132289206    -1.032079988371     1.007825032230
         H           -1.056010710148     0.977701710794     0.338045011629     1.007825032230
         H            1.013752289852     0.812833710794     0.284525011629     1.007825032230

  Running in c1 symmetry.

  Rotational constants: A =      4.16896  B =      0.83535  C =      0.80886 [cm^-1]
  Rotational constants: A = 124982.28184  B =  25043.24241  C =  24248.95209 [MHz]
  Nuclear repulsion =   40.357566855370024

  Charge       = 0
  Multiplicity = 1
  Electrons    = 18
  Nalpha       = 9
  Nbeta        = 9

  ==> Algorithm <==

  SCF Algorithm Type is DF.
  DIIS enabled.
  MOM disabled.
  Fractional occupation disabled.
  Guess Type is SAD.
  Energy threshold   = 1.00e-08
  Density threshold  = 1.00e-08
  Integral threshold = 0.00e+00

  ==> Primary Basis <==

  Basis Set: 6-31G*
    Blend: 6-31G*
    Number of shells: 20
    Number of basis function: 38
    Number of Cartesian functions: 38
    Spherical Harmonics?: false
    Max angular momentum: 2

  ==> DFT Potential <==

   => Composite Functional: WB97X-D <= 

    wB97X-D Hyb-GGA Exchange-Correlation Functional

    J.-D. Chai and M. Head-Gordon, Phys. Chem. Chem. Phys. 10, 6615 (2008)

    Deriv               =              1
    GGA                 =           TRUE
    Meta                =          FALSE

    Exchange Hybrid     =           TRUE
    MP2 Hybrid          =          FALSE

   => Exchange-Correlation Functionals <=

    1.0000   wB97D range-separated functional

   => Exact (HF) Exchange <=

    0.7780            HF,LR [omega = 0.2000]
    0.2220               HF 

   => Molecular Quadrature <=

    Radial Scheme          =       TREUTLER
    Pruning Scheme         =           FLAT
    Nuclear Scheme         =       TREUTLER

    BS radius alpha        =              1
    Pruning alpha          =              1
    Radial Points          =             75
    Spherical Points       =            302
    Total Points           =         131912
    Total Blocks           =           1047
    Max Points             =            256
    Max Functions          =             38

   => WB97X-D: Empirical Dispersion <=

    Chai and Head-Gordon Dispersion Correction
    Chai, J.-D.; Head-Gordon, M. (2010), J. Chem. Phys., 132: 6615-6620

        s6 =       1.000000

   => Loading Basis Set <=

    Name: (6-31G* AUX)
    Role: JKFIT
    Keyword: DF_BASIS_SCF
    atoms 1   entry O          line   221 file /home/bdw2292/miniconda3/envs/p4env/share/psi4/basis/cc-pvdz-jkfit.gbs 
    atoms 2   entry C          line   121 file /home/bdw2292/miniconda3/envs/p4env/share/psi4/basis/cc-pvdz-jkfit.gbs 
    atoms 3-6 entry H          line    51 file /home/bdw2292/miniconda3/envs/p4env/share/psi4/basis/cc-pvdz-jkfit.gbs 

  ==> Pre-Iterations <==

   -------------------------------------------------------
    Irrep   Nso     Nmo     Nalpha   Nbeta   Ndocc  Nsocc
   -------------------------------------------------------
     A         38      38       0       0       0       0
   -------------------------------------------------------
    Total      38      38       9       9       9       0
   -------------------------------------------------------

  ==> Integral Setup <==

  ==> DiskDFJK: Density-Fitted J/K Matrices <==

    J tasked:                  Yes
    K tasked:                  Yes
    wK tasked:                 Yes
    Omega:               2.000E-01
    OpenMP threads:              8
    Integrals threads:           8
    Memory [MiB]:            71385
    Algorithm:                Core
    Integral Cache:           NONE
    Schwarz Cutoff:          1E-12
    Fitting Condition:       1E-10

   => Auxiliary Basis Set <=

  Basis Set: (6-31G* AUX)
    Blend: CC-PVDZ-JKFIT
    Number of shells: 84
    Number of basis function: 262
    Number of Cartesian functions: 262
    Spherical Harmonics?: false
    Max angular momentum: 3

  Cached 100.0% of DFT collocation blocks in 0.137 [GiB].

  Minimum eigenvalue in the overlap matrix is 9.3017221318E-03.
  Using Symmetric Orthogonalization.

  SCF Guess: Superposition of Atomic Densities via on-the-fly atomic UHF.

  ==> Iterations <==

                           Total Energy        Delta E     RMS |[F,P]|

   @DF-RKS iter SAD:  -115.13586631391476   -1.15136e+02   0.00000e+00 
   @DF-RKS iter   1:  -115.56702433808351   -4.31158e-01   1.32089e-02 DIIS
   @DF-RKS iter   2:  -115.58926320493113   -2.22389e-02   1.27666e-02 DIIS
   @DF-RKS iter   3:  -115.67289586381783   -8.36327e-02   1.11793e-03 DIIS
   @DF-RKS iter   4:  -115.67358258970923   -6.86726e-04   3.71292e-04 DIIS
   @DF-RKS iter   5:  -115.67367729664615   -9.47069e-05   6.90387e-05 DIIS
   @DF-RKS iter   6:  -115.67368122948218   -3.93284e-06   6.62261e-06 DIIS
   @DF-RKS iter   7:  -115.67368130684761   -7.73654e-08   9.99754e-07 DIIS
   @DF-RKS iter   8:  -115.67368130895916   -2.11155e-09   2.20183e-07 DIIS
   @DF-RKS iter   9:  -115.67368130906962   -1.10461e-10   5.61863e-08 DIIS
   @DF-RKS iter  10:  -115.67368130907579   -6.16751e-12   1.02252e-08 DIIS
   @DF-RKS iter  11:  -115.67368130907587   -8.52651e-14   1.41890e-09 DIIS
  Energy and wave function converged.


  ==> Post-Iterations <==

    Orbital Energies [Eh]
    ---------------------

    Doubly Occupied:                                                      

       1A    -19.256642     2A    -10.333834     3A     -1.110082  
       4A     -0.772152     5A     -0.589127     6A     -0.525592  
       7A     -0.505066     8A     -0.407315     9A     -0.345263  

    Virtual:                                                              

      10A      0.158049    11A      0.219908    12A      0.250778  
      13A      0.263886    14A      0.302950    15A      0.631985  
      16A      0.652275    17A      0.664954    18A      0.907863  
      19A      0.945825    20A      0.959089    21A      0.993967  
      22A      1.039071    23A      1.067650    24A      1.110406  
      25A      1.238039    26A      1.554574    27A      1.570632  
      28A      1.638479    29A      1.846357    30A      2.166484  
      31A      2.244526    32A      2.263033    33A      2.366430  
      34A      2.462428    35A      2.601454    36A      2.892803  
      37A      3.814933    38A      4.320118  

    Final Occupation by Irrep:
              A 
    DOCC [     9 ]

  @DF-RKS Final Energy:  -115.67368130907587

   => Energetics <=

    Nuclear Repulsion Energy =             40.3575668553700240
    One-Electron Energy =                -237.1531606421007723
    Two-Electron Energy =                  91.7822462193684032
    DFT Exchange-Correlation Energy =     -10.6595383340136962
    Empirical Dispersion Energy =          -0.0007954076998152
    VV10 Nonlocal Energy =                  0.0000000000000000
    Total Energy =                       -115.6736813090758602

Computation Completed


Properties will be evaluated at   0.000000,   0.000000,   0.000000 [a0]

Properties computed using the SCF density matrix

  Nuclear Dipole Moment: [e a0]
     X:    -2.0792      Y:     0.7897      Z:     0.2707

  Electronic Dipole Moment: [e a0]
     X:     1.7191      Y:    -0.1801      Z:    -0.0594

  Dipole Moment: [e a0]
     X:    -0.3602      Y:     0.6096      Z:     0.2113     Total:     0.7389

  Dipole Moment: [D]
     X:    -0.9154      Y:     1.5493      Z:     0.5371     Total:     1.8780


*** tstop() called on node35.bme.utexas.edu at Mon Oct  5 15:30:46 2020
Module time:
	user time   =      23.07 seconds =       0.38 minutes
	system time =       1.69 seconds =       0.03 minutes
	total time  =          4 seconds =       0.07 minutes
Total time:
	user time   =      23.07 seconds =       0.38 minutes
	system time =       1.69 seconds =       0.03 minutes
	total time  =          4 seconds =       0.07 minutes

*** tstart() called on node35.bme.utexas.edu
*** at Mon Oct  5 15:30:46 2020


         ------------------------------------------------------------
                                   SCF GRAD                          
                          Rob Parrish, Justin Turney,                
                       Andy Simmonett, and Alex Sokolov              
         ------------------------------------------------------------

  ==> Geometry <==

    Molecular point group: c1
    Full point group: C1

    Geometry (in Angstrom), charge = 0, multiplicity = 1:

       Center              X                  Y                   Z               Mass       
    ------------   -----------------  -----------------  -----------------  -----------------
         O            0.686783289852    -0.042490289206    -0.013509988371    15.994914619570
         C           -0.728852710148    -0.014128289206    -0.006247988371    12.000000000000
         H           -1.091367710148    -0.774828289206     0.698317011629     1.007825032230
         H           -1.087798710148    -0.173132289206    -1.032079988371     1.007825032230
         H           -1.056010710148     0.977701710794     0.338045011629     1.007825032230
         H            1.013752289852     0.812833710794     0.284525011629     1.007825032230

  Nuclear repulsion =   40.357566855370024

  ==> Basis Set <==

  Basis Set: 6-31G*
    Blend: 6-31G*
    Number of shells: 20
    Number of basis function: 38
    Number of Cartesian functions: 38
    Spherical Harmonics?: false
    Max angular momentum: 2

  ==> DFJKGrad: Density-Fitted SCF Gradients <==

    Gradient:                    1
    J tasked:                  Yes
    K tasked:                  Yes
    wK tasked:                 Yes
    Omega:               2.000E-01
    OpenMP threads:              8
    Integrals threads:           8
    Memory [MiB]:            71525
    Schwarz Cutoff:          0E+00
    Fitting Condition:       1E-10

   => Auxiliary Basis Set <=

  Basis Set: (6-31G* AUX)
    Blend: CC-PVDZ-JKFIT
    Number of shells: 84
    Number of basis function: 262
    Number of Cartesian functions: 262
    Spherical Harmonics?: false
    Max angular momentum: 3

  ==> DFT Potential <==

   => Composite Functional: WB97X-D <= 

    wB97X-D Hyb-GGA Exchange-Correlation Functional

    J.-D. Chai and M. Head-Gordon, Phys. Chem. Chem. Phys. 10, 6615 (2008)

    Deriv               =              1
    GGA                 =           TRUE
    Meta                =          FALSE

    Exchange Hybrid     =           TRUE
    MP2 Hybrid          =          FALSE

   => Exchange-Correlation Functionals <=

    1.0000   wB97D range-separated functional

   => Exact (HF) Exchange <=

    0.7780            HF,LR [omega = 0.2000]
    0.2220               HF 

   => Molecular Quadrature <=

    Radial Scheme          =       TREUTLER
    Pruning Scheme         =           FLAT
    Nuclear Scheme         =       TREUTLER

    BS radius alpha        =              1
    Pruning alpha          =              1
    Radial Points          =             75
    Spherical Points       =            302
    Total Points           =         131912
    Total Blocks           =           1047
    Max Points             =            256
    Max Functions          =             38


  -Total Gradient:
     Atom            X                  Y                   Z
    ------   -----------------  -----------------  -----------------
       1       -0.006933233297     0.001421172258     0.000459342148
       2       -0.011010892477    -0.011216411704    -0.003903267497
       3        0.004463896271    -0.000305788137     0.005549587327
       4        0.004526169312     0.003193080790    -0.004528204709
       5        0.008105656893     0.003831285763     0.001354378864
       6        0.000823241977     0.002928091645     0.001016091687


*** tstop() called on node35.bme.utexas.edu at Mon Oct  5 15:30:47 2020
Module time:
	user time   =       9.41 seconds =       0.16 minutes
	system time =       0.62 seconds =       0.01 minutes
	total time  =          1 seconds =       0.02 minutes
Total time:
	user time   =      32.50 seconds =       0.54 minutes
	system time =       2.31 seconds =       0.04 minutes
	total time  =          5 seconds =       0.08 minutes

			-----------------------------------------
			 OPTKING 2.0: for geometry optimizations 
			  - R.A. King,  Bethel University        
			-----------------------------------------

	Internal coordinates to be generated automatically.
	Detected frag 1 with atoms:  1 2 3 4 5 6
	---Fragment 1 Bond Connectivity---
	 1 : 2 6
	 2 : 1 3 4 5
	 3 : 2
	 4 : 2
	 5 : 2
	 6 : 1

	Assuming in current code that numbering for constraints corresponds to unified fragment.
	---Fragment 1 Geometry and Gradient---
	 O           1.2978323254       -0.0802950096       -0.0255301780
	 C          -1.3773320080       -0.0266985972       -0.0118069869
	 H          -2.0623860743       -1.4642132609        1.3196279007
	 H          -2.0556416418       -0.3271726101       -1.9503485176
	 H          -1.9955710277        1.8475884658        0.6388124901
	 H           1.9157141869        1.5360330989        0.5376743478
	            -0.0069332333        0.0014211723        0.0004593421
	            -0.0110108925       -0.0112164117       -0.0039032675
	             0.0044638963       -0.0003057881        0.0055495873
	             0.0045261693        0.0031930808       -0.0045282047
	             0.0081056569        0.0038312858        0.0013543789
	             0.0008232420        0.0029280916        0.0010160917

	Previous optimization step data not found.  Starting new optimization.

	---Fragment 1 Intrafragment Coordinates---
	 - Coordinate -           - BOHR/RAD -       - ANG/DEG -
	 R(1,2)           =         2.675736	       1.415939
	 R(1,6)           =         1.819751	       0.962971
	 R(2,3)           =         2.075685	       1.098405
	 R(2,4)           =         2.075652	       1.098388
	 R(2,5)           =         2.078095	       1.099680
	 B(1,2,3)         =         1.895877	     108.625723
	 B(1,2,4)         =         1.895506	     108.604517
	 B(1,2,5)         =         1.893478	     108.488301
	 B(2,1,6)         =         1.896622	     108.668408
	 B(3,2,4)         =         1.972475	     113.014471
	 B(3,2,5)         =         1.902459	     109.002844
	 B(4,2,5)         =         1.902596	     109.010730
	 D(3,2,1,6)       =        -2.065758	    -118.359225
	 D(4,2,1,6)       =         2.065732	     118.357726
	 D(5,2,1,6)       =         0.000000	       0.000000

	Current energy   :      -115.6736813091

	Generating empirical Hessian (Schlegel '84) for each fragment.
	Taking RFO optimization step.
	Going to follow RFO solution 1.
	Using RFO vector 1.
	Norm of target step-size    0.14137
	Projected energy change by RFO approximation:        -0.0096222313

	Back-transformation to cartesian coordinates...
	Could not converge backtransformation.
	Using first guess instead.

	--- Internal Coordinate Step in ANG or DEG, aJ/ANG or AJ/DEG ---
	 ---------------------------------------------------------------------------
	   Coordinate                Previous        Force       Change         New 
	   ----------                --------       ------       ------       ------
	    1 R(1,2)          =      1.415939     0.050993     0.007753     1.423691
	    2 R(1,6)          =      0.962971    -0.026437    -0.002889     0.960082
	    3 R(2,3)          =      1.098405    -0.018818    -0.002638     1.095767
	    4 R(2,4)          =      1.098388    -0.018730    -0.002604     1.095784
	    5 R(2,5)          =      1.099680    -0.012327     0.000931     1.100611
	    6 B(1,2,3)        =    108.625723     0.000287     1.030117   109.655840
	    7 B(1,2,4)        =    108.604517     0.000292     1.056723   109.661240
	    8 B(1,2,5)        =    108.488301     0.001053     5.371891   113.860192
	    9 B(2,1,6)        =    108.668408     0.000037     0.181566   108.849974
	   10 B(3,2,4)        =    113.014471    -0.000772    -4.595284   108.419188
	   11 B(3,2,5)        =    109.002844    -0.000387    -1.461124   107.541719
	   12 B(4,2,5)        =    109.010730    -0.000388    -1.467959   107.542771
	   13 D(3,2,1,6)      =   -118.359225    -0.000067    -2.149456  -120.508681
	   14 D(4,2,1,6)      =    118.357726     0.000067     2.192710   120.550436
	   15 D(5,2,1,6)      =      0.000000    -0.000000     0.018246     0.018246
	 ---------------------------------------------------------------------------
	Successfully symmetrized geometry.

  ==> Convergence Check <==

  Measures of convergence in internal coordinates in au.
  Criteria marked as inactive (o), active & met (*), and active & unmet ( ).
  --------------------------------------------------------------------------------------------- ~
   Step     Total Energy     Delta E     MAX Force     RMS Force      MAX Disp      RMS Disp    ~
  --------------------------------------------------------------------------------------------- ~
    Convergence Criteria             o    2.50e-03 *    1.70e-03 *    1.00e-02 *    6.70e-03 *  ~
  --------------------------------------------------------------------------------------------- ~
      1    -115.67368131   -1.16e+02 o    1.38e-02      5.58e-03      9.38e-02      3.69e-02    ~
  ---------------------------------------------------------------------------------------------

	Writing optimization data to binary file.
	Structure for next step:
	Cartesian Geometry (in Angstrom)
	    O     0.7110926343  -0.0446096508  -0.0142431002
	    C    -0.7116017503   0.0064763914   0.0008575593
	    H    -1.1010882900  -0.7669513911   0.6722852780
	    H    -1.0980514122  -0.1831760227  -1.0068283433
	    H    -1.1188736462   0.9724804694   0.3359862996
	    H     1.0550282125   0.8017364655   0.2809913753
			--------------------------
			 OPTKING Finished Execution 
			--------------------------

    Structure for next step:
    Molecular point group: c1
    Full point group: C1

    Geometry (in Angstrom), charge = 0, multiplicity = 1:

    O            0.693795809860    -0.050689894658    -0.016338827500
    C           -0.728898580315     0.000396147735    -0.001238167868
    H           -1.118385121563    -0.773031637812     0.670189553396
    H           -1.115348243737    -0.189256267048    -1.008924074507
    H           -1.136170477822     0.966400229536     0.333890573754
    H            1.037731389398     0.795656224959     0.278895649217

gradient() will perform analytic gradient computation.

*** tstart() called on node35.bme.utexas.edu
*** at Mon Oct  5 15:30:48 2020

   => Loading Basis Set <=

    Name: 6-31G*
    Role: ORBITAL
    Keyword: BASIS
    atoms 1   entry O          line   145 file /home/bdw2292/miniconda3/envs/p4env/share/psi4/basis/6-31gs.gbs 
    atoms 2   entry C          line   111 file /home/bdw2292/miniconda3/envs/p4env/share/psi4/basis/6-31gs.gbs 
    atoms 3-6 entry H          line    44 file /home/bdw2292/miniconda3/envs/p4env/share/psi4/basis/6-31gs.gbs 


         ---------------------------------------------------------
                                   SCF
               by Justin Turney, Rob Parrish, Andy Simmonett
                          and Daniel G. A. Smith
                              RKS Reference
                        8 Threads,  95367 MiB Core
         ---------------------------------------------------------

  ==> Geometry <==

    Molecular point group: c1
    Full point group: C1

    Geometry (in Angstrom), charge = 0, multiplicity = 1:

       Center              X                  Y                   Z               Mass       
    ------------   -----------------  -----------------  -----------------  -----------------
         O            0.693795809860    -0.050689894658    -0.016338827500    15.994914619570
         C           -0.728898580315     0.000396147735    -0.001238167868    12.000000000000
         H           -1.118385121563    -0.773031637812     0.670189553396     1.007825032230
         H           -1.115348243737    -0.189256267048    -1.008924074507     1.007825032230
         H           -1.136170477822     0.966400229536     0.333890573754     1.007825032230
         H            1.037731389398     0.795656224959     0.278895649217     1.007825032230

  Running in c1 symmetry.

  Rotational constants: A =      4.29175  B =      0.81944  C =      0.79088 [cm^-1]
  Rotational constants: A = 128663.45720  B =  24566.12507  C =  23709.84945 [MHz]
  Nuclear repulsion =   40.171205098412905

  Charge       = 0
  Multiplicity = 1
  Electrons    = 18
  Nalpha       = 9
  Nbeta        = 9

  ==> Algorithm <==

  SCF Algorithm Type is DF.
  DIIS enabled.
  MOM disabled.
  Fractional occupation disabled.
  Guess Type is READ.
  Energy threshold   = 1.00e-08
  Density threshold  = 1.00e-08
  Integral threshold = 0.00e+00

  ==> Primary Basis <==

  Basis Set: 6-31G*
    Blend: 6-31G*
    Number of shells: 20
    Number of basis function: 38
    Number of Cartesian functions: 38
    Spherical Harmonics?: false
    Max angular momentum: 2

  ==> DFT Potential <==

   => Composite Functional: WB97X-D <= 

    wB97X-D Hyb-GGA Exchange-Correlation Functional

    J.-D. Chai and M. Head-Gordon, Phys. Chem. Chem. Phys. 10, 6615 (2008)

    Deriv               =              1
    GGA                 =           TRUE
    Meta                =          FALSE

    Exchange Hybrid     =           TRUE
    MP2 Hybrid          =          FALSE

   => Exchange-Correlation Functionals <=

    1.0000   wB97D range-separated functional

   => Exact (HF) Exchange <=

    0.7780            HF,LR [omega = 0.2000]
    0.2220               HF 

   => Molecular Quadrature <=

    Radial Scheme          =       TREUTLER
    Pruning Scheme         =           FLAT
    Nuclear Scheme         =       TREUTLER

    BS radius alpha        =              1
    Pruning alpha          =              1
    Radial Points          =             75
    Spherical Points       =            302
    Total Points           =         131922
    Total Blocks           =           1059
    Max Points             =            256
    Max Functions          =             38

   => WB97X-D: Empirical Dispersion <=

    Chai and Head-Gordon Dispersion Correction
    Chai, J.-D.; Head-Gordon, M. (2010), J. Chem. Phys., 132: 6615-6620

        s6 =       1.000000

   => Loading Basis Set <=

    Name: (6-31G* AUX)
    Role: JKFIT
    Keyword: DF_BASIS_SCF
    atoms 1   entry O          line   221 file /home/bdw2292/miniconda3/envs/p4env/share/psi4/basis/cc-pvdz-jkfit.gbs 
    atoms 2   entry C          line   121 file /home/bdw2292/miniconda3/envs/p4env/share/psi4/basis/cc-pvdz-jkfit.gbs 
    atoms 3-6 entry H          line    51 file /home/bdw2292/miniconda3/envs/p4env/share/psi4/basis/cc-pvdz-jkfit.gbs 

   => Loading Basis Set <=

    Name: 6-31G*
    Role: ORBITAL
    Keyword: BASIS
    atoms 1   entry O          line   145 file /home/bdw2292/miniconda3/envs/p4env/share/psi4/basis/6-31gs.gbs 
    atoms 2   entry C          line   111 file /home/bdw2292/miniconda3/envs/p4env/share/psi4/basis/6-31gs.gbs 
    atoms 3-6 entry H          line    44 file /home/bdw2292/miniconda3/envs/p4env/share/psi4/basis/6-31gs.gbs 

  Reading orbitals from file 180, no projection.

  ==> Pre-Iterations <==

   -------------------------------------------------------
    Irrep   Nso     Nmo     Nalpha   Nbeta   Ndocc  Nsocc
   -------------------------------------------------------
     A         38      38       0       0       0       0
   -------------------------------------------------------
    Total      38      38       9       9       9       0
   -------------------------------------------------------

  ==> Integral Setup <==

  ==> DiskDFJK: Density-Fitted J/K Matrices <==

    J tasked:                  Yes
    K tasked:                  Yes
    wK tasked:                 Yes
    Omega:               2.000E-01
    OpenMP threads:              8
    Integrals threads:           8
    Memory [MiB]:            71385
    Algorithm:                Core
    Integral Cache:           NONE
    Schwarz Cutoff:          1E-12
    Fitting Condition:       1E-10

   => Auxiliary Basis Set <=

  Basis Set: (6-31G* AUX)
    Blend: CC-PVDZ-JKFIT
    Number of shells: 84
    Number of basis function: 262
    Number of Cartesian functions: 262
    Spherical Harmonics?: false
    Max angular momentum: 3

  Cached 100.0% of DFT collocation blocks in 0.137 [GiB].

  Minimum eigenvalue in the overlap matrix is 9.9010051220E-03.
  Using Symmetric Orthogonalization.

  SCF Guess: Orbitals guess was supplied from a previous computation.

  ==> Iterations <==

                           Total Energy        Delta E     RMS |[F,P]|

   @DF-RKS iter   0:  -115.67441194914062   -1.15674e+02   1.10649e-03 
   @DF-RKS iter   1:  -115.67473988491359   -3.27936e-04   2.97882e-04 DIIS
   @DF-RKS iter   2:  -115.67475577812060   -1.58932e-05   2.94385e-04 DIIS
   @DF-RKS iter   3:  -115.67479876538036   -4.29873e-05   2.48986e-05 DIIS
   @DF-RKS iter   4:  -115.67479942342753   -6.58047e-07   6.13165e-06 DIIS
   @DF-RKS iter   5:  -115.67479947068240   -4.72549e-08   8.00731e-07 DIIS
   @DF-RKS iter   6:  -115.67479947197168   -1.28928e-09   1.32609e-07 DIIS
   @DF-RKS iter   7:  -115.67479947199820   -2.65175e-11   5.47287e-08 DIIS
   @DF-RKS iter   8:  -115.67479947200044   -2.24532e-12   1.00396e-08 DIIS
   @DF-RKS iter   9:  -115.67479947200052   -7.10543e-14   1.18037e-09 DIIS
  Energy and wave function converged.


  ==> Post-Iterations <==

    Orbital Energies [Eh]
    ---------------------

    Doubly Occupied:                                                      

       1A    -19.260584     2A    -10.333895     3A     -1.109543  
       4A     -0.775445     5A     -0.590831     6A     -0.518930  
       7A     -0.504478     8A     -0.413235     9A     -0.346594  

    Virtual:                                                              

      10A      0.162882    11A      0.218383    12A      0.246293  
      13A      0.263116    14A      0.304266    15A      0.628550  
      16A      0.656300    17A      0.656627    18A      0.908554  
      19A      0.951980    20A      0.955767    21A      1.000207  
      22A      1.047187    23A      1.064520    24A      1.112346  
      25A      1.248341    26A      1.553450    27A      1.569641  
      28A      1.622989    29A      1.844560    30A      2.140660  
      31A      2.195228    32A      2.263609    33A      2.375919  
      34A      2.468419    35A      2.615187    36A      2.886384  
      37A      3.804213    38A      4.319569  

    Final Occupation by Irrep:
              A 
    DOCC [     9 ]

  @DF-RKS Final Energy:  -115.67479947200052

   => Energetics <=

    Nuclear Repulsion Energy =             40.1712050984129050
    One-Electron Energy =                -236.7679455926802063
    Two-Electron Energy =                  91.5789217071633175
    DFT Exchange-Correlation Energy =     -10.6561762432364322
    Empirical Dispersion Energy =          -0.0008044416600995
    VV10 Nonlocal Energy =                  0.0000000000000000
    Total Energy =                       -115.6747994720005011

Computation Completed


Properties will be evaluated at   0.000000,   0.000000,   0.000000 [a0]

Properties computed using the SCF density matrix

  Nuclear Dipole Moment: [e a0]
     X:    -2.1830      Y:     0.7495      Z:     0.2568

  Electronic Dipole Moment: [e a0]
     X:     1.8273      Y:    -0.1386      Z:    -0.0449

  Dipole Moment: [e a0]
     X:    -0.3557      Y:     0.6109      Z:     0.2119     Total:     0.7380

  Dipole Moment: [D]
     X:    -0.9041      Y:     1.5527      Z:     0.5387     Total:     1.8758


*** tstop() called on node35.bme.utexas.edu at Mon Oct  5 15:30:50 2020
Module time:
	user time   =      15.19 seconds =       0.25 minutes
	system time =       0.91 seconds =       0.02 minutes
	total time  =          2 seconds =       0.03 minutes
Total time:
	user time   =      48.97 seconds =       0.82 minutes
	system time =       3.34 seconds =       0.06 minutes
	total time  =          8 seconds =       0.13 minutes

*** tstart() called on node35.bme.utexas.edu
*** at Mon Oct  5 15:30:50 2020


         ------------------------------------------------------------
                                   SCF GRAD                          
                          Rob Parrish, Justin Turney,                
                       Andy Simmonett, and Alex Sokolov              
         ------------------------------------------------------------

  ==> Geometry <==

    Molecular point group: c1
    Full point group: C1

    Geometry (in Angstrom), charge = 0, multiplicity = 1:

       Center              X                  Y                   Z               Mass       
    ------------   -----------------  -----------------  -----------------  -----------------
         O            0.693795809860    -0.050689894658    -0.016338827500    15.994914619570
         C           -0.728898580315     0.000396147735    -0.001238167868    12.000000000000
         H           -1.118385121563    -0.773031637812     0.670189553396     1.007825032230
         H           -1.115348243737    -0.189256267048    -1.008924074507     1.007825032230
         H           -1.136170477822     0.966400229536     0.333890573754     1.007825032230
         H            1.037731389398     0.795656224959     0.278895649217     1.007825032230

  Nuclear repulsion =   40.171205098412905

  ==> Basis Set <==

  Basis Set: 6-31G*
    Blend: 6-31G*
    Number of shells: 20
    Number of basis function: 38
    Number of Cartesian functions: 38
    Spherical Harmonics?: false
    Max angular momentum: 2

  ==> DFJKGrad: Density-Fitted SCF Gradients <==

    Gradient:                    1
    J tasked:                  Yes
    K tasked:                  Yes
    wK tasked:                 Yes
    Omega:               2.000E-01
    OpenMP threads:              8
    Integrals threads:           8
    Memory [MiB]:            71525
    Schwarz Cutoff:          0E+00
    Fitting Condition:       1E-10

   => Auxiliary Basis Set <=

  Basis Set: (6-31G* AUX)
    Blend: CC-PVDZ-JKFIT
    Number of shells: 84
    Number of basis function: 262
    Number of Cartesian functions: 262
    Spherical Harmonics?: false
    Max angular momentum: 3

  ==> DFT Potential <==

   => Composite Functional: WB97X-D <= 

    wB97X-D Hyb-GGA Exchange-Correlation Functional

    J.-D. Chai and M. Head-Gordon, Phys. Chem. Chem. Phys. 10, 6615 (2008)

    Deriv               =              1
    GGA                 =           TRUE
    Meta                =          FALSE

    Exchange Hybrid     =           TRUE
    MP2 Hybrid          =          FALSE

   => Exchange-Correlation Functionals <=

    1.0000   wB97D range-separated functional

   => Exact (HF) Exchange <=

    0.7780            HF,LR [omega = 0.2000]
    0.2220               HF 

   => Molecular Quadrature <=

    Radial Scheme          =       TREUTLER
    Pruning Scheme         =           FLAT
    Nuclear Scheme         =       TREUTLER

    BS radius alpha        =              1
    Pruning alpha          =              1
    Radial Points          =             75
    Spherical Points       =            302
    Total Points           =         131922
    Total Blocks           =           1059
    Max Points             =            256
    Max Functions          =             38


  -Total Gradient:
     Atom            X                  Y                   Z
    ------   -----------------  -----------------  -----------------
       1        0.006702846013    -0.000469204862    -0.000138585850
       2       -0.003936059236    -0.000884670820    -0.000322921097
       3        0.000024146815     0.000666320938    -0.000069756006
       4        0.000005646782     0.000476216223     0.000459387050
       5       -0.003384275309     0.001018984166     0.000350898200
       6        0.000475793591    -0.000911269510    -0.000316696196


*** tstop() called on node35.bme.utexas.edu at Mon Oct  5 15:30:51 2020
Module time:
	user time   =       9.32 seconds =       0.16 minutes
	system time =       0.60 seconds =       0.01 minutes
	total time  =          1 seconds =       0.02 minutes
Total time:
	user time   =      58.30 seconds =       0.97 minutes
	system time =       3.94 seconds =       0.07 minutes
	total time  =          9 seconds =       0.15 minutes

			-----------------------------------------
			 OPTKING 2.0: for geometry optimizations 
			  - R.A. King,  Bethel University        
			-----------------------------------------

	Previous internal coordinate definitions found.
	---Fragment 1 Geometry and Gradient---
	 O           1.3110840676       -0.0957900182       -0.0308759092
	 C          -1.3774186900        0.0007486107       -0.0023397982
	 H          -2.1134415825       -1.4608180818        1.2664747081
	 H          -2.1077027152       -0.3576425122       -1.9065901822
	 H          -2.1470510349        1.8262317614        0.6309617403
	 H           1.9610281178        1.5035723552        0.5270363946
	             0.0067028460       -0.0004692049       -0.0001385859
	            -0.0039360592       -0.0008846708       -0.0003229211
	             0.0000241468        0.0006663209       -0.0000697560
	             0.0000056468        0.0004762162        0.0004593870
	            -0.0033842753        0.0010189842        0.0003508982
	             0.0004757936       -0.0009112695       -0.0003166962

	---Fragment 1 Intrafragment Coordinates---
	 - Coordinate -           - BOHR/RAD -       - ANG/DEG -
	 R(1,2)           =         2.690387	       1.423691
	 R(1,6)           =         1.814291	       0.960082
	 R(2,3)           =         2.070700	       1.095767
	 R(2,4)           =         2.070731	       1.095784
	 R(2,5)           =         2.079854	       1.100611
	 B(1,2,3)         =         1.913855	     109.655840
	 B(1,2,4)         =         1.913950	     109.661240
	 B(1,2,5)         =         1.987235	     113.860192
	 B(2,1,6)         =         1.899790	     108.849974
	 B(3,2,4)         =         1.892272	     108.419188
	 B(3,2,5)         =         1.876957	     107.541719
	 B(4,2,5)         =         1.876975	     107.542771
	 D(3,2,1,6)       =        -2.103273	    -120.508681
	 D(4,2,1,6)       =         2.104002	     120.550436
	 D(5,2,1,6)       =         0.000318	       0.018246

	Current energy   :      -115.6747994720

	Energy change for the previous step:
		Projected    :        -0.0096222313
		Actual       :        -0.0011181629
	Energy ratio indicates iffy step: Trust radius decreased to 1.250e-01.


	Performing BFGS update.
	Previous computed or guess Hessian on step 1.
	Steps to be used in Hessian update: 1
	Taking RFO optimization step.
	Going to follow RFO solution 1.
	Using RFO vector 1.
	Norm of target step-size    0.02707
	Projected energy change by RFO approximation:        -0.0002465390

	Back-transformation to cartesian coordinates...
	Successfully converged to displaced geometry.

	--- Internal Coordinate Step in ANG or DEG, aJ/ANG or AJ/DEG ---
	 ---------------------------------------------------------------------------
	   Coordinate                Previous        Force       Change         New 
	   ----------                --------       ------       ------       ------
	    1 R(1,2)          =      1.423691    -0.059950    -0.007182     1.416509
	    2 R(1,6)          =      0.960082     0.006003     0.000447     0.960529
	    3 R(2,3)          =      1.095767     0.004439     0.000450     1.096217
	    4 R(2,4)          =      1.095784     0.004321     0.000429     1.096213
	    5 R(2,5)          =      1.100611    -0.018711    -0.003481     1.097130
	    6 B(1,2,3)        =    109.655840     0.000039     0.206670   109.862510
	    7 B(1,2,4)        =    109.661240     0.000037     0.198899   109.860139
	    8 B(1,2,5)        =    113.860192    -0.000304    -1.029088   112.831104
	    9 B(2,1,6)        =    108.849974    -0.000114    -0.439742   108.410232
	   10 B(3,2,4)        =    108.419188     0.000005    -0.098275   108.320913
	   11 B(3,2,5)        =    107.541719     0.000117     0.378121   107.919840
	   12 B(4,2,5)        =    107.542771     0.000117     0.376470   107.919242
	   13 D(3,2,1,6)      =   -120.508681     0.000006     0.070484  -120.438197
	   14 D(4,2,1,6)      =    120.550436    -0.000006    -0.056472   120.493964
	   15 D(5,2,1,6)      =      0.018246     0.000000     0.010850     0.029096
	 ---------------------------------------------------------------------------
	Successfully symmetrized geometry.

  ==> Convergence Check <==

  Measures of convergence in internal coordinates in au.
  Criteria marked as inactive (o), active & met (*), and active & unmet ( ).
  ---------------------------------------------------------------------------------------------
   Step     Total Energy     Delta E     MAX Force     RMS Force      MAX Disp      RMS Disp   
  ---------------------------------------------------------------------------------------------
    Convergence Criteria             o    2.50e-03 *    1.70e-03 *    1.00e-02 *    6.70e-03 *
  ---------------------------------------------------------------------------------------------
      2    -115.67479947   -1.12e-03 o    7.28e-03      2.35e-03      1.80e-02      6.97e-03    ~
  ---------------------------------------------------------------------------------------------

	Writing optimization data to binary file.
	Structure for next step:
	Cartesian Geometry (in Angstrom)
	    O     0.6862193535  -0.0621155977  -0.0203737605
	    C    -0.7287100722   0.0018382591  -0.0008118747
	    H    -1.1270159800  -0.7666403710   0.6718576421
	    H    -1.1237661720  -0.1822988644  -1.0066487864
	    H    -1.1062330181   0.9749313556   0.3372140467
	    H     1.0322306739   0.7837600182   0.2752374384
			--------------------------
			 OPTKING Finished Execution 
			--------------------------

    Structure for next step:
    Molecular point group: c1
    Full point group: C1

    Geometry (in Angstrom), charge = 0, multiplicity = 1:

    O            0.689700158013    -0.057263757042    -0.018631874621
    C           -0.725229273206     0.006690099996     0.000930011307
    H           -1.123535182548    -0.761788533196     0.673599530705
    H           -1.120285374533    -0.177447024275    -1.004906904407
    H           -1.102752220615     0.979783200238     0.338955933997
    H            1.035711479790     0.788611862109     0.276979325418

gradient() will perform analytic gradient computation.

*** tstart() called on node35.bme.utexas.edu
*** at Mon Oct  5 15:30:51 2020

   => Loading Basis Set <=

    Name: 6-31G*
    Role: ORBITAL
    Keyword: BASIS
    atoms 1   entry O          line   145 file /home/bdw2292/miniconda3/envs/p4env/share/psi4/basis/6-31gs.gbs 
    atoms 2   entry C          line   111 file /home/bdw2292/miniconda3/envs/p4env/share/psi4/basis/6-31gs.gbs 
    atoms 3-6 entry H          line    44 file /home/bdw2292/miniconda3/envs/p4env/share/psi4/basis/6-31gs.gbs 


         ---------------------------------------------------------
                                   SCF
               by Justin Turney, Rob Parrish, Andy Simmonett
                          and Daniel G. A. Smith
                              RKS Reference
                        8 Threads,  95367 MiB Core
         ---------------------------------------------------------

  ==> Geometry <==

    Molecular point group: c1
    Full point group: C1

    Geometry (in Angstrom), charge = 0, multiplicity = 1:

       Center              X                  Y                   Z               Mass       
    ------------   -----------------  -----------------  -----------------  -----------------
         O            0.689700158013    -0.057263757042    -0.018631874621    15.994914619570
         C           -0.725229273206     0.006690099996     0.000930011307    12.000000000000
         H           -1.123535182548    -0.761788533196     0.673599530705     1.007825032230
         H           -1.120285374533    -0.177447024275    -1.004906904407     1.007825032230
         H           -1.102752220615     0.979783200238     0.338955933997     1.007825032230
         H            1.035711479790     0.788611862109     0.276979325418     1.007825032230

  Running in c1 symmetry.

  Rotational constants: A =      4.28235  B =      0.82812  C =      0.79858 [cm^-1]
  Rotational constants: A = 128381.48473  B =  24826.32569  C =  23940.77531 [MHz]
  Nuclear repulsion =   40.306854068467167

  Charge       = 0
  Multiplicity = 1
  Electrons    = 18
  Nalpha       = 9
  Nbeta        = 9

  ==> Algorithm <==

  SCF Algorithm Type is DF.
  DIIS enabled.
  MOM disabled.
  Fractional occupation disabled.
  Guess Type is READ.
  Energy threshold   = 1.00e-08
  Density threshold  = 1.00e-08
  Integral threshold = 0.00e+00

  ==> Primary Basis <==

  Basis Set: 6-31G*
    Blend: 6-31G*
    Number of shells: 20
    Number of basis function: 38
    Number of Cartesian functions: 38
    Spherical Harmonics?: false
    Max angular momentum: 2

  ==> DFT Potential <==

   => Composite Functional: WB97X-D <= 

    wB97X-D Hyb-GGA Exchange-Correlation Functional

    J.-D. Chai and M. Head-Gordon, Phys. Chem. Chem. Phys. 10, 6615 (2008)

    Deriv               =              1
    GGA                 =           TRUE
    Meta                =          FALSE

    Exchange Hybrid     =           TRUE
    MP2 Hybrid          =          FALSE

   => Exchange-Correlation Functionals <=

    1.0000   wB97D range-separated functional

   => Exact (HF) Exchange <=

    0.7780            HF,LR [omega = 0.2000]
    0.2220               HF 

   => Molecular Quadrature <=

    Radial Scheme          =       TREUTLER
    Pruning Scheme         =           FLAT
    Nuclear Scheme         =       TREUTLER

    BS radius alpha        =              1
    Pruning alpha          =              1
    Radial Points          =             75
    Spherical Points       =            302
    Total Points           =         131918
    Total Blocks           =           1055
    Max Points             =            256
    Max Functions          =             38

   => WB97X-D: Empirical Dispersion <=

    Chai and Head-Gordon Dispersion Correction
    Chai, J.-D.; Head-Gordon, M. (2010), J. Chem. Phys., 132: 6615-6620

        s6 =       1.000000

   => Loading Basis Set <=

    Name: (6-31G* AUX)
    Role: JKFIT
    Keyword: DF_BASIS_SCF
    atoms 1   entry O          line   221 file /home/bdw2292/miniconda3/envs/p4env/share/psi4/basis/cc-pvdz-jkfit.gbs 
    atoms 2   entry C          line   121 file /home/bdw2292/miniconda3/envs/p4env/share/psi4/basis/cc-pvdz-jkfit.gbs 
    atoms 3-6 entry H          line    51 file /home/bdw2292/miniconda3/envs/p4env/share/psi4/basis/cc-pvdz-jkfit.gbs 

   => Loading Basis Set <=

    Name: 6-31G*
    Role: ORBITAL
    Keyword: BASIS
    atoms 1   entry O          line   145 file /home/bdw2292/miniconda3/envs/p4env/share/psi4/basis/6-31gs.gbs 
    atoms 2   entry C          line   111 file /home/bdw2292/miniconda3/envs/p4env/share/psi4/basis/6-31gs.gbs 
    atoms 3-6 entry H          line    44 file /home/bdw2292/miniconda3/envs/p4env/share/psi4/basis/6-31gs.gbs 

  Reading orbitals from file 180, no projection.

  ==> Pre-Iterations <==

   -------------------------------------------------------
    Irrep   Nso     Nmo     Nalpha   Nbeta   Ndocc  Nsocc
   -------------------------------------------------------
     A         38      38       0       0       0       0
   -------------------------------------------------------
    Total      38      38       9       9       9       0
   -------------------------------------------------------

  ==> Integral Setup <==

  ==> DiskDFJK: Density-Fitted J/K Matrices <==

    J tasked:                  Yes
    K tasked:                  Yes
    wK tasked:                 Yes
    Omega:               2.000E-01
    OpenMP threads:              8
    Integrals threads:           8
    Memory [MiB]:            71385
    Algorithm:                Core
    Integral Cache:           NONE
    Schwarz Cutoff:          1E-12
    Fitting Condition:       1E-10

   => Auxiliary Basis Set <=

  Basis Set: (6-31G* AUX)
    Blend: CC-PVDZ-JKFIT
    Number of shells: 84
    Number of basis function: 262
    Number of Cartesian functions: 262
    Spherical Harmonics?: false
    Max angular momentum: 3

  Cached 100.0% of DFT collocation blocks in 0.137 [GiB].

  Minimum eigenvalue in the overlap matrix is 9.7108842813E-03.
  Using Symmetric Orthogonalization.

  SCF Guess: Orbitals guess was supplied from a previous computation.

  ==> Iterations <==

                           Total Energy        Delta E     RMS |[F,P]|

   @DF-RKS iter   0:  -115.67842044587624   -1.15678e+02   5.11276e-04 
   @DF-RKS iter   1:  -115.67491548181084    3.50496e-03   8.89601e-05 DIIS
   @DF-RKS iter   2:  -115.67492309895032   -7.61714e-06   4.34093e-05 DIIS
   @DF-RKS iter   3:  -115.67492440287108   -1.30392e-06   1.31066e-05 DIIS
   @DF-RKS iter   4:  -115.67492458228456   -1.79413e-07   3.81926e-06 DIIS
   @DF-RKS iter   5:  -115.67492459322533   -1.09408e-08   1.54804e-06 DIIS
   @DF-RKS iter   6:  -115.67492459471742   -1.49210e-09   2.82702e-07 DIIS
   @DF-RKS iter   7:  -115.67492459482835   -1.10930e-10   2.74191e-08 DIIS
   @DF-RKS iter   8:  -115.67492459482995   -1.59162e-12   6.27942e-09 DIIS
  Energy and wave function converged.


  ==> Post-Iterations <==

    Orbital Energies [Eh]
    ---------------------

    Doubly Occupied:                                                      

       1A    -19.260378     2A    -10.333093     3A     -1.111949  
       4A     -0.774877     5A     -0.592041     6A     -0.519516  
       7A     -0.506476     8A     -0.412861     9A     -0.346271  

    Virtual:                                                              

      10A      0.161943    11A      0.219458    12A      0.249202  
      13A      0.263197    14A      0.305570    15A      0.630813  
      16A      0.656608    17A      0.657056    18A      0.908168  
      19A      0.952651    20A      0.955224    21A      1.000109  
      22A      1.044937    23A      1.064882    24A      1.113505  
      25A      1.248313    26A      1.552096    27A      1.570348  
      28A      1.625787    29A      1.843021    30A      2.154027  
      31A      2.202783    32A      2.262890    33A      2.382340  
      34A      2.475759    35A      2.611998    36A      2.890038  
      37A      3.808245    38A      4.319663  

    Final Occupation by Irrep:
              A 
    DOCC [     9 ]

  @DF-RKS Final Energy:  -115.67492459482995

   => Energetics <=

    Nuclear Repulsion Energy =             40.3068540684671675
    One-Electron Energy =                -237.0292542862842993
    Two-Electron Energy =                  91.7080915912910655
    DFT Exchange-Correlation Energy =     -10.6598195587397271
    Empirical Dispersion Energy =          -0.0007964095641672
    VV10 Nonlocal Energy =                  0.0000000000000000
    Total Energy =                       -115.6749245948299603

Computation Completed


Properties will be evaluated at   0.000000,   0.000000,   0.000000 [a0]

Properties computed using the SCF density matrix

  Nuclear Dipole Moment: [e a0]
     X:    -2.1630      Y:     0.7770      Z:     0.2667

  Electronic Dipole Moment: [e a0]
     X:     1.8182      Y:    -0.1606      Z:    -0.0525

  Dipole Moment: [e a0]
     X:    -0.3448      Y:     0.6164      Z:     0.2142     Total:     0.7381

  Dipole Moment: [D]
     X:    -0.8765      Y:     1.5667      Z:     0.5445     Total:     1.8760


*** tstop() called on node35.bme.utexas.edu at Mon Oct  5 15:30:53 2020
Module time:
	user time   =      14.81 seconds =       0.25 minutes
	system time =       0.78 seconds =       0.01 minutes
	total time  =          2 seconds =       0.03 minutes
Total time:
	user time   =      73.33 seconds =       1.22 minutes
	system time =       4.75 seconds =       0.08 minutes
	total time  =         11 seconds =       0.18 minutes

*** tstart() called on node35.bme.utexas.edu
*** at Mon Oct  5 15:30:53 2020


         ------------------------------------------------------------
                                   SCF GRAD                          
                          Rob Parrish, Justin Turney,                
                       Andy Simmonett, and Alex Sokolov              
         ------------------------------------------------------------

  ==> Geometry <==

    Molecular point group: c1
    Full point group: C1

    Geometry (in Angstrom), charge = 0, multiplicity = 1:

       Center              X                  Y                   Z               Mass       
    ------------   -----------------  -----------------  -----------------  -----------------
         O            0.689700158013    -0.057263757042    -0.018631874621    15.994914619570
         C           -0.725229273206     0.006690099996     0.000930011307    12.000000000000
         H           -1.123535182548    -0.761788533196     0.673599530705     1.007825032230
         H           -1.120285374533    -0.177447024275    -1.004906904407     1.007825032230
         H           -1.102752220615     0.979783200238     0.338955933997     1.007825032230
         H            1.035711479790     0.788611862109     0.276979325418     1.007825032230

  Nuclear repulsion =   40.306854068467167

  ==> Basis Set <==

  Basis Set: 6-31G*
    Blend: 6-31G*
    Number of shells: 20
    Number of basis function: 38
    Number of Cartesian functions: 38
    Spherical Harmonics?: false
    Max angular momentum: 2

  ==> DFJKGrad: Density-Fitted SCF Gradients <==

    Gradient:                    1
    J tasked:                  Yes
    K tasked:                  Yes
    wK tasked:                 Yes
    Omega:               2.000E-01
    OpenMP threads:              8
    Integrals threads:           8
    Memory [MiB]:            71525
    Schwarz Cutoff:          0E+00
    Fitting Condition:       1E-10

   => Auxiliary Basis Set <=

  Basis Set: (6-31G* AUX)
    Blend: CC-PVDZ-JKFIT
    Number of shells: 84
    Number of basis function: 262
    Number of Cartesian functions: 262
    Spherical Harmonics?: false
    Max angular momentum: 3

  ==> DFT Potential <==

   => Composite Functional: WB97X-D <= 

    wB97X-D Hyb-GGA Exchange-Correlation Functional

    J.-D. Chai and M. Head-Gordon, Phys. Chem. Chem. Phys. 10, 6615 (2008)

    Deriv               =              1
    GGA                 =           TRUE
    Meta                =          FALSE

    Exchange Hybrid     =           TRUE
    MP2 Hybrid          =          FALSE

   => Exchange-Correlation Functionals <=

    1.0000   wB97D range-separated functional

   => Exact (HF) Exchange <=

    0.7780            HF,LR [omega = 0.2000]
    0.2220               HF 

   => Molecular Quadrature <=

    Radial Scheme          =       TREUTLER
    Pruning Scheme         =           FLAT
    Nuclear Scheme         =       TREUTLER

    BS radius alpha        =              1
    Pruning alpha          =              1
    Radial Points          =             75
    Spherical Points       =            302
    Total Points           =         131918
    Total Blocks           =           1055
    Max Points             =            256
    Max Functions          =             38


  -Total Gradient:
     Atom            X                  Y                   Z
    ------   -----------------  -----------------  -----------------
       1        0.001526887021    -0.000531815533    -0.000176411998
       2       -0.001466873662    -0.000011958722    -0.000010587270
       3        0.000249444878     0.000312487571    -0.000197173491
       4        0.000245221333     0.000124226122     0.000348282718
       5       -0.000289081696    -0.000048174491    -0.000016944931
       6       -0.000343845781     0.000069157080     0.000020724550


*** tstop() called on node35.bme.utexas.edu at Mon Oct  5 15:30:55 2020
Module time:
	user time   =       9.58 seconds =       0.16 minutes
	system time =       0.61 seconds =       0.01 minutes
	total time  =          2 seconds =       0.03 minutes
Total time:
	user time   =      82.92 seconds =       1.38 minutes
	system time =       5.36 seconds =       0.09 minutes
	total time  =         13 seconds =       0.22 minutes

			-----------------------------------------
			 OPTKING 2.0: for geometry optimizations 
			  - R.A. King,  Bethel University        
			-----------------------------------------

	Previous internal coordinate definitions found.
	---Fragment 1 Geometry and Gradient---
	 O           1.3033444073       -0.1082128177       -0.0352091402
	 C          -1.3704847045        0.0126424567        0.0017574667
	 H          -2.1231737873       -1.4395716933        1.2729186313
	 H          -2.1170325402       -0.3353262777       -1.8989988309
	 H          -2.0838996812        1.8515219108        0.6405338839
	 H           1.9572110418        1.4902604387        0.5234150675
	             0.0015268870       -0.0005318155       -0.0001764120
	            -0.0014668737       -0.0000119587       -0.0000105873
	             0.0002494449        0.0003124876       -0.0001971735
	             0.0002452213        0.0001242261        0.0003482827
	            -0.0002890817       -0.0000481745       -0.0000169449
	            -0.0003438458        0.0000691571        0.0000207246

	---Fragment 1 Intrafragment Coordinates---
	 - Coordinate -           - BOHR/RAD -       - ANG/DEG -
	 R(1,2)           =         2.676814	       1.416509
	 R(1,6)           =         1.815136	       0.960529
	 R(2,3)           =         2.071550	       1.096217
	 R(2,4)           =         2.071543	       1.096213
	 R(2,5)           =         2.073276	       1.097130
	 B(1,2,3)         =         1.917463	     109.862510
	 B(1,2,4)         =         1.917421	     109.860139
	 B(1,2,5)         =         1.969274	     112.831104
	 B(2,1,6)         =         1.892115	     108.410232
	 B(3,2,4)         =         1.890557	     108.320913
	 B(3,2,5)         =         1.883557	     107.919840
	 B(4,2,5)         =         1.883546	     107.919242
	 D(3,2,1,6)       =        -2.102043	    -120.438197
	 D(4,2,1,6)       =         2.103016	     120.493964
	 D(5,2,1,6)       =         0.000508	       0.029096

	Current energy   :      -115.6749245948

	Energy change for the previous step:
		Projected    :        -0.0002465390
		Actual       :        -0.0001251228

	Performing BFGS update.
	Previous computed or guess Hessian on step 1.
	Steps to be used in Hessian update: 2 1
	Taking RFO optimization step.
	Going to follow RFO solution 1.
	Using RFO vector 1.
	Norm of target step-size    0.00658
	Projected energy change by RFO approximation:         0.0000003027

	Back-transformation to cartesian coordinates...
	Could not converge backtransformation.
	Using first guess instead.

	--- Internal Coordinate Step in ANG or DEG, aJ/ANG or AJ/DEG ---
	 ---------------------------------------------------------------------------
	   Coordinate                Previous        Force       Change         New 
	   ----------                --------       ------       ------       ------
	    1 R(1,2)          =      1.416509    -0.010219    -0.001692     1.414817
	    2 R(1,6)          =      0.960529     0.000468     0.000025     0.960554
	    3 R(2,3)          =      1.096217     0.003658     0.000710     1.096927
	    4 R(2,4)          =      1.096213     0.003648     0.000708     1.096921
	    5 R(2,5)          =      1.097130    -0.000558    -0.000232     1.096898
	    6 B(1,2,3)        =    109.862510     0.000014     0.090981   109.953491
	    7 B(1,2,4)        =    109.860139     0.000013     0.088468   109.948607
	    8 B(1,2,5)        =    112.831104    -0.000032    -0.105658   112.725446
	    9 B(2,1,6)        =    108.410232     0.000044     0.220393   108.630624
	   10 B(3,2,4)        =    108.320913    -0.000011    -0.122318   108.198594
	   11 B(3,2,5)        =    107.919840     0.000008     0.021703   107.941544
	   12 B(4,2,5)        =    107.919242     0.000008     0.021650   107.940891
	   13 D(3,2,1,6)      =   -120.438197     0.000000     0.014135  -120.424062
	   14 D(4,2,1,6)      =    120.493964    -0.000000     0.054009   120.547972
	   15 D(5,2,1,6)      =      0.029096     0.000000     0.034984     0.064080
	 ---------------------------------------------------------------------------
	Successfully symmetrized geometry.

  ==> Convergence Check <==

  Measures of convergence in internal coordinates in au.
  Criteria marked as inactive (o), active & met (*), and active & unmet ( ).
  ---------------------------------------------------------------------------------------------
   Step     Total Energy     Delta E     MAX Force     RMS Force      MAX Disp      RMS Disp   
  ---------------------------------------------------------------------------------------------
    Convergence Criteria             o    2.50e-03 *    1.70e-03 *    1.00e-02 *    6.70e-03 *
  ---------------------------------------------------------------------------------------------
      3    -115.67492459   -1.25e-04 o    1.24e-03 *    4.12e-04 *    3.85e-03 *    1.70e-03 *  ~
  ---------------------------------------------------------------------------------------------


  **** Optimization is complete! (in 3 steps) ****

  ==> Optimization Summary <==

  Measures of convergence in internal coordinates in au.
  --------------------------------------------------------------------------------------------------------------- ~
   Step         Total Energy             Delta E       MAX Force       RMS Force        MAX Disp        RMS Disp  ~
  --------------------------------------------------------------------------------------------------------------- ~
      1    -115.673681309076   -115.673681309076      0.01384242      0.00557552      0.09375718      0.03685265  ~
      2    -115.674799472001     -0.001118162925      0.00727662      0.00235070      0.01796097      0.00696817  ~
      3    -115.674924594830     -0.000125122829      0.00124037      0.00041245      0.00384658      0.00169860  ~
  --------------------------------------------------------------------------------------------------------------- ~

	Writing optimization data to binary file.
	Final energy is   -115.6749245948299
	Final (previous) structure:
	Cartesian Geometry (in Angstrom)
	    O     0.6897001553  -0.0572637568  -0.0186318745
	    C    -0.7252292704   0.0066901000   0.0009300113
	    H    -1.1235351781  -0.7617885302   0.6735995281
	    H    -1.1202853701  -0.1774470236  -1.0049069005
	    H    -1.1027522163   0.9797831964   0.3389559327
	    H     1.0357114757   0.7886118590   0.2769793243
	Saving final (previous) structure.
			--------------------------
			 OPTKING Finished Execution 
			--------------------------

    Final optimized geometry and variables:
    Molecular point group: c1
    Full point group: C1

    Geometry (in Angstrom), charge = 0, multiplicity = 1:

    O            0.689700158013    -0.057263757042    -0.018631874621
    C           -0.725229273206     0.006690099996     0.000930011307
    H           -1.123535182548    -0.761788533196     0.673599530705
    H           -1.120285374533    -0.177447024275    -1.004906904407
    H           -1.102752220615     0.979783200238     0.338955933997
    H            1.035711479790     0.788611862109     0.276979325418

	Removing binary optimization data file.
	Cleaning optimization helper files.

    Psi4 stopped on: Monday, 05 October 2020 03:30PM
    Psi4 wall time for execution: 0:00:12.31

*** Psi4 exiting successfully. Buy a developer a beer!
