 Entering Gaussian System, Link 0=/opt/g09gh/gaussian/g09/g09
 Input=methanol-opt-2_2-1-242.com
 Output=methanol-opt-2_2-1-242.log
 Initial command:
 /opt/g09gh/gaussian/g09/l1.exe /scratch/bdw2292/Gau-methanol/Gau-7252.inp -scrdir=/scratch/bdw2292/Gau-methanol/
 Entering Link 1 = /opt/g09gh/gaussian/g09/l1.exe PID=      7253.
  
 Copyright (c) 1988,1990,1992,1993,1995,1998,2003,2009, Gaussian, Inc.
                  All Rights Reserved.
  
 This is part of the Gaussian(R) 09 program.  It is based on
 the Gaussian(R) 03 system (copyright 2003, Gaussian, Inc.),
 the Gaussian(R) 98 system (copyright 1998, Gaussian, Inc.),
 the Gaussian(R) 94 system (copyright 1995, Gaussian, Inc.),
 the Gaussian 92(TM) system (copyright 1992, Gaussian, Inc.),
 the Gaussian 90(TM) system (copyright 1990, Gaussian, Inc.),
 the Gaussian 88(TM) system (copyright 1988, Gaussian, Inc.),
 the Gaussian 86(TM) system (copyright 1986, Carnegie Mellon
 University), and the Gaussian 82(TM) system (copyright 1983,
 Carnegie Mellon University). Gaussian is a federally registered
 trademark of Gaussian, Inc.
  
 This software contains proprietary and confidential information,
 including trade secrets, belonging to Gaussian, Inc.
  
 This software is provided under written license and may be
 used, copied, transmitted, or stored only in accord with that
 written license.
  
 The following legend is applicable only to US Government
 contracts under FAR:
  
                    RESTRICTED RIGHTS LEGEND
  
 Use, reproduction and disclosure by the US Government is
 subject to restrictions as set forth in subparagraphs (a)
 and (c) of the Commercial Computer Software - Restricted
 Rights clause in FAR 52.227-19.
  
 Gaussian, Inc.
 340 Quinnipiac St., Bldg. 40, Wallingford CT 06492
  
  
 ---------------------------------------------------------------
 Warning -- This program may not be used in any manner that
 competes with the business of Gaussian, Inc. or will provide
 assistance to any competitor of Gaussian, Inc.  The licensee
 of this program is prohibited from giving any competitor of
 Gaussian, Inc. access to this program.  By using this program,
 the user acknowledges that Gaussian, Inc. is engaged in the
 business of creating and licensing software in the field of
 computational chemistry and represents and warrants to the
 licensee that it is not a competitor of Gaussian, Inc. and that
 it will not use this program in any manner prohibited above.
 ---------------------------------------------------------------
  

 Cite this work as:
 Gaussian 09, Revision A.02,
 M. J. Frisch, G. W. Trucks, H. B. Schlegel, G. E. Scuseria, 
 M. A. Robb, J. R. Cheeseman, G. Scalmani, V. Barone, B. Mennucci, 
 G. A. Petersson, H. Nakatsuji, M. Caricato, X. Li, H. P. Hratchian, 
 A. F. Izmaylov, J. Bloino, G. Zheng, J. L. Sonnenberg, M. Hada, 
 M. Ehara, K. Toyota, R. Fukuda, J. Hasegawa, M. Ishida, T. Nakajima, 
 Y. Honda, O. Kitao, H. Nakai, T. Vreven, J. A. Montgomery, Jr., 
 J. E. Peralta, F. Ogliaro, M. Bearpark, J. J. Heyd, E. Brothers, 
 K. N. Kudin, V. N. Staroverov, R. Kobayashi, J. Normand, 
 K. Raghavachari, A. Rendell, J. C. Burant, S. S. Iyengar, J. Tomasi, 
 M. Cossi, N. Rega, J. M. Millam, M. Klene, J. E. Knox, J. B. Cross, 
 V. Bakken, C. Adamo, J. Jaramillo, R. Gomperts, R. E. Stratmann, 
 O. Yazyev, A. J. Austin, R. Cammi, C. Pomelli, J. W. Ochterski, 
 R. L. Martin, K. Morokuma, V. G. Zakrzewski, G. A. Voth, 
 P. Salvador, J. J. Dannenberg, S. Dapprich, A. D. Daniels, 
 O. Farkas, J. B. Foresman, J. V. Ortiz, J. Cioslowski, 
 and D. J. Fox, Gaussian, Inc., Wallingford CT, 2009.
 
 ******************************************
 Gaussian 09:  EM64L-G09RevA.02 11-Jun-2009
                 8-Jan-2021 
 ******************************************
 %RWF=/scratch/bdw2292/Gau-methanol/,200GB
 %Nosave
 %Chk=methanol-opt-2_2-1-242.chk
 %Mem=100GB
 %Nproc=8
 Will use up to    8 processors via shared memory.
 ------------------------------------------------------------------
 #P opt=(ModRedundant,maxcycle=2,Loose) wB97XD/6-31G* MaxDisk=200GB
 ------------------------------------------------------------------
 1/6=2,7=-1,14=-1,18=120,19=15,26=3,38=1/1,3;
 2/9=110,12=2,17=6,18=5,40=1/2;
 3/5=1,6=6,7=1,11=2,16=1,25=1,30=1,71=1,74=-58/1,2,3;
 4//1;
 5/5=2,38=5/2;
 6/7=2,8=2,9=2,10=2,28=1/1;
 7//1,2,3,16;
 1/6=2,7=-1,14=-1,18=20,19=15/3(2);
 2/9=110/2;
 99//99;
 2/9=110/2;
 3/5=1,6=6,7=1,11=2,16=1,25=1,30=1,71=1,74=-58/1,2,3;
 4/5=5,16=3/1;
 5/5=2,38=5/2;
 7//1,2,3,16;
 1/6=2,7=-1,14=-1,18=20,19=15/3(-5);
 2/9=110/2;
 6/7=2,8=2,9=2,10=2,19=2,28=1/1;
 99/9=1/99;
 Leave Link    1 at Fri Jan  8 13:43:27 2021, MaxMem=13421772800 cpu:       0.4
 (Enter /opt/g09gh/gaussian/g09/l101.exe)
 -------------------------------------------------------------
 methanol Rotatable Bond Optimization on node37.bme.utexas.edu
 -------------------------------------------------------------
 Symbolic Z-matrix:
 Charge =  0 Multiplicity = 1
 O                    -0.75865  -0.12214   0.00002 
 C                     0.67963   0.01099  -0.00001 
 H                     1.10071  -0.43348  -0.89024 
 H                     1.10077  -0.43321   0.89033 
 H                     1.00106   1.04926  -0.00012 
 H                    -1.21114   0.72861  -0.00008 
 
 NAtoms=      6 NQM=      6 NQMF=      0 NMic=      0 NMicF=      0 NTot=      6.
 The following ModRedundant input section has been read:
 D    6    1    2    3 F                                                       
 D    6    1    2    4 F                                                       
 D    6    1    2    5 F                                                       
                    Isotopes and Nuclear Properties:
 (Nuclear quadrupole moments (NQMom) in fm**2, nuclear magnetic moments (NMagM)
  in nuclear magnetons)

  Atom         1           2           3           4           5           6
 IAtWgt=          16          12           1           1           1           1
 AtmWgt=  15.9949146  12.0000000   1.0078250   1.0078250   1.0078250   1.0078250
 NucSpn=           0           0           1           1           1           1
 AtZEff=   0.0000000   0.0000000   0.0000000   0.0000000   0.0000000   0.0000000
 NQMom=    0.0000000   0.0000000   0.0000000   0.0000000   0.0000000   0.0000000
 NMagM=    0.0000000   0.0000000   2.7928460   2.7928460   2.7928460   2.7928460
 Leave Link  101 at Fri Jan  8 13:43:28 2021, MaxMem=13421772800 cpu:       1.0
 (Enter /opt/g09gh/gaussian/g09/l103.exe)

 GradGradGradGradGradGradGradGradGradGradGradGradGradGradGradGradGradGrad
 Berny optimization.
 Initialization pass.
                           ----------------------------
                           !    Initial Parameters    !
                           ! (Angstroms and Degrees)  !
 --------------------------                            --------------------------
 ! Name  Definition              Value          Derivative Info.                !
 --------------------------------------------------------------------------------
 ! R1    R(1,2)                  1.4444         estimate D2E/DX2                !
 ! R2    R(1,6)                  0.9636         estimate D2E/DX2                !
 ! R3    R(2,3)                  1.0804         estimate D2E/DX2                !
 ! R4    R(2,4)                  1.0805         estimate D2E/DX2                !
 ! R5    R(2,5)                  1.0869         estimate D2E/DX2                !
 ! A1    A(2,1,6)              112.7189         estimate D2E/DX2                !
 ! A2    A(1,2,3)              110.4977         estimate D2E/DX2                !
 ! A3    A(1,2,4)              110.5003         estimate D2E/DX2                !
 ! A4    A(1,2,5)              112.4899         estimate D2E/DX2                !
 ! A5    A(3,2,4)              110.9732         estimate D2E/DX2                !
 ! A6    A(3,2,5)              106.1191         estimate D2E/DX2                !
 ! A7    A(4,2,5)              106.1138         estimate D2E/DX2                !
 ! D1    D(6,1,2,3)           -118.3954         Frozen                          !
 ! D2    D(6,1,2,4)            118.3928         Frozen                          !
 ! D3    D(6,1,2,5)              0.0012         Frozen                          !
 --------------------------------------------------------------------------------
 Trust Radius=3.00D-01 FncErr=1.00D-07 GrdErr=1.00D-06
 Number of steps in this run=   2 maximum allowed number of steps= 100.
 GradGradGradGradGradGradGradGradGradGradGradGradGradGradGradGradGradGrad

 Leave Link  103 at Fri Jan  8 13:43:28 2021, MaxMem=13421772800 cpu:       0.1
 (Enter /opt/g09gh/gaussian/g09/l202.exe)
                          Input orientation:                          
 ---------------------------------------------------------------------
 Center     Atomic      Atomic             Coordinates (Angstroms)
 Number     Number       Type             X           Y           Z
 ---------------------------------------------------------------------
      1          8           0       -0.758650   -0.122140    0.000020
      2          6           0        0.679630    0.010990   -0.000010
      3          1           0        1.100710   -0.433480   -0.890240
      4          1           0        1.100770   -0.433210    0.890330
      5          1           0        1.001060    1.049260   -0.000120
      6          1           0       -1.211140    0.728610   -0.000080
 ---------------------------------------------------------------------
                    Distance matrix (angstroms):
                    1          2          3          4          5
     1  O    0.000000
     2  C    1.444428   0.000000
     3  H    2.084878   1.080450   0.000000
     4  H    2.084912   1.080453   1.780570   0.000000
     5  H    2.113944   1.086886   1.732271   1.732213   0.000000
     6  H    0.963599   2.022372   2.736328   2.736345   2.235318
                    6
     6  H    0.000000
 Stoichiometry    CH4O
 Framework group  C1[X(CH4O)]
 Deg. of freedom    12
 Full point group                 C1      NOp   1
 Largest Abelian subgroup         C1      NOp   1
 Largest concise Abelian subgroup C1      NOp   1
                         Standard orientation:                         
 ---------------------------------------------------------------------
 Center     Atomic      Atomic             Coordinates (Angstroms)
 Number     Number       Type             X           Y           Z
 ---------------------------------------------------------------------
      1          8           0       -0.758649   -0.122138    0.000021
      2          6           0        0.679631    0.010988   -0.000009
      3          1           0        1.100710   -0.433483   -0.890239
      4          1           0        1.100770   -0.433213    0.890331
      5          1           0        1.001064    1.049257   -0.000119
      6          1           0       -1.211137    0.728614   -0.000079
 ---------------------------------------------------------------------
 Rotational constants (GHZ):    132.8162379     23.8548919     23.1874040
 Leave Link  202 at Fri Jan  8 13:43:28 2021, MaxMem=13421772800 cpu:       0.0
 (Enter /opt/g09gh/gaussian/g09/l301.exe)
 Standard basis: 6-31G(d) (6D, 7F)
 Ernie: Thresh=  0.10000D-02 Tol=  0.10000D-05 Strict=F.
 There are    38 symmetry adapted basis functions of A   symmetry.
 Integral buffers will be    131072 words long.
 Raffenetti 2 integral format.
 Two-electron integral symmetry is turned on.
    38 basis functions,    72 primitive gaussians,    38 cartesian basis functions
     9 alpha electrons        9 beta electrons
       nuclear repulsion energy        39.9423464920 Hartrees.
 IExCor= 4639 DFT=T Ex+Corr=wB97XD ExCW=0 ScaHFX=  1.000000
 ScaDFX=  1.000000  1.000000  1.000000  1.000000 ScalE2=  1.000000  1.000000
 IRadAn=      0 IRanWt=     -1 IRanGd=            0 ICorTp=0
  HFx wShort=  0.000000 wLong=  0.200000 cFull=  0.222036 cShort=  0.000000 cLong=  0.777964
  DFx wShort=  0.000000 wLong=  0.200000 cFull=  0.000000 cShort=  0.000000 cLong=  1.000000
 NAtoms=    6 NActive=    6 NUniq=    6 SFac= 7.50D-01 NAtFMM=   80 NAOKFM=F Big=F
 R6Disp: Dispersion energy =        -0.0007928409 Hartrees.
 Nuclear repulsion after empirical dispersion term =       39.9415536511 Hartrees.
 Leave Link  301 at Fri Jan  8 13:43:28 2021, MaxMem=13421772800 cpu:       0.5
 (Enter /opt/g09gh/gaussian/g09/l302.exe)
 NPDir=0 NMtPBC=     1 NCelOv=     1 NCel=       1 NClECP=     1 NCelD=      1
         NCelK=      1 NCelE2=     1 NClLst=     1 CellRange=     0.0.
 One-electron integrals computed using PRISM.
 NBasis=    38 RedAO= T  NBF=    38
 NBsUse=    38 1.00D-06 NBFU=    38
 Precomputing XC quadrature grid using
 IXCGrd= 2 IRadAn=           0 IRanWt=          -1 IRanGd=           0 AccXCQ= 1.00D-10.
 NRdTot=     369 NPtTot=       46428 NUsed=       49102 NTot=       49134
 NSgBfM=    38    38    38    38    38 NAtAll=     6     6.
 Leave Link  302 at Fri Jan  8 13:43:28 2021, MaxMem=13421772800 cpu:       1.2
 (Enter /opt/g09gh/gaussian/g09/l303.exe)
 DipDrv:  MaxL=1.
 Leave Link  303 at Fri Jan  8 13:43:28 2021, MaxMem=13421772800 cpu:       0.3
 (Enter /opt/g09gh/gaussian/g09/l401.exe)
 Harris functional with IExCor= 4639 diagonalized for initial guess.
 ExpMin= 1.61D-01 ExpMax= 5.48D+03 ExpMxC= 8.25D+02 IAcc=1 IRadAn=         1 AccDes= 0.00D+00
 HarFok:  IExCor= 4639 AccDes= 0.00D+00 IRadAn=         1 IDoV= 1
 ScaDFX=  1.000000  1.000000  1.000000  1.000000
 FoFCou: FMM=F IPFlag=           0 FMFlag=      100000 FMFlg1=           0
         NFxFlg=           0 DoJE=T BraDBF=F KetDBF=T FulRan=T
         Omega=  0.000000  0.000000  1.000000  0.000000  0.000000 ICntrl=     500 IOpCl=  0
         NMat0=    1 NMatS0=    1 NMatT0=    0 NMatD0=    1 NMtDS0=    0 NMtDT0=    0
         I1Cent=           4 NGrid=           0.
 Petite list used in FoFCou.
 Harris En= -110.931269384947    
 Initial guess orbital symmetries:
       Occupied  (A) (A) (A) (A) (A) (A) (A) (A) (A)
       Virtual   (A) (A) (A) (A) (A) (A) (A) (A) (A) (A) (A) (A)
                 (A) (A) (A) (A) (A) (A) (A) (A) (A) (A) (A) (A)
                 (A) (A) (A) (A) (A)
 The electronic state of the initial guess is 1-A.
 Leave Link  401 at Fri Jan  8 13:43:28 2021, MaxMem=13421772800 cpu:       1.4
 (Enter /opt/g09gh/gaussian/g09/l502.exe)
 Closed shell SCF:
 Requested convergence on RMS density matrix=1.00D-08 within 128 cycles.
 Requested convergence on MAX density matrix=1.00D-06.
 Requested convergence on             energy=1.00D-06.
 No special actions if energy rises.
 Using DIIS extrapolation, IDIIS=  1040.
 Integral symmetry usage will be decided dynamically.
        49035 words used for storage of precomputed grid.
 IEnd=       72111 IEndB=       72111 NGot= 13421772800 MDV= 13421718812
 LenX= 13421718812 LenY= 13421716927
 Fock matrices will be formed incrementally for  20 cycles.
 Integral accuracy reduced to 1.0D-05 until final iterations.

 Cycle   1  Pass 0  IDiag  1:
 FoFJK:  IHMeth= 1 ICntrl=     0 DoSepK=T KAlg= 1 I1Cent= 0 FoldK=F
 FoFCou: FMM=F IPFlag=           0 FMFlag=      100000 FMFlg1=           0
         NFxFlg=           0 DoJE=T BraDBF=F KetDBF=F FulRan=T
         Omega=  0.000000  0.000000  1.000000  0.000000  0.000000 ICntrl=     500 IOpCl=  0
         NMat0=    1 NMatS0=    1 NMatT0=    0 NMatD0=    1 NMtDS0=    0 NMtDT0=    0
         I1Cent=           0 NGrid=           0.
 Symmetry not used in FoFCou.
 E= -115.652066649741    
 DIIS: error= 5.03D-02 at cycle   1 NSaved=   1.
 NSaved= 1 IEnMin= 1 EnMin= -115.652066649741     IErMin= 1 ErrMin= 5.03D-02
 ErrMax= 5.03D-02 EMaxC= 1.00D-01 BMatC= 8.10D-02 BMatP= 8.10D-02
 IDIUse=3 WtCom= 4.97D-01 WtEn= 5.03D-01
 Coeff-Com:  0.100D+01
 Coeff-En:   0.100D+01
 Coeff:      0.100D+01
 Gap=     0.535 Goal=   None    Shift=    0.000
 GapD=    0.535 DampG=2.000 DampE=0.500 DampFc=1.0000 IDamp=-1.
 RMSDP=4.74D-03 MaxDP=4.31D-02              OVMax= 4.70D-02

 Cycle   2  Pass 0  IDiag  1:
 RMSU=  3.34D-03    CP:  1.01D+00
 FoFJK:  IHMeth= 1 ICntrl=     0 DoSepK=T KAlg= 1 I1Cent= 0 FoldK=F
 E= -115.665521377526     Delta-E=       -0.013454727785 Rises=F Damp=F
 DIIS: error= 1.28D-02 at cycle   2 NSaved=   2.
 NSaved= 2 IEnMin= 2 EnMin= -115.665521377526     IErMin= 2 ErrMin= 1.28D-02
 ErrMax= 1.28D-02 EMaxC= 1.00D-01 BMatC= 1.07D-02 BMatP= 8.10D-02
 IDIUse=3 WtCom= 8.72D-01 WtEn= 1.28D-01
 Coeff-Com:  0.194D+00 0.806D+00
 Coeff-En:   0.532D-01 0.947D+00
 Coeff:      0.176D+00 0.824D+00
 Gap=     0.503 Goal=   None    Shift=    0.000
 RMSDP=2.70D-03 MaxDP=3.53D-02 DE=-1.35D-02 OVMax= 3.33D-02

 Cycle   3  Pass 0  IDiag  1:
 RMSU=  1.53D-03    CP:  1.01D+00  6.58D-01
 FoFJK:  IHMeth= 1 ICntrl=     0 DoSepK=T KAlg= 1 I1Cent= 0 FoldK=F
 E= -115.669195409878     Delta-E=       -0.003674032352 Rises=F Damp=F
 DIIS: error= 1.05D-02 at cycle   3 NSaved=   3.
 NSaved= 3 IEnMin= 3 EnMin= -115.669195409878     IErMin= 3 ErrMin= 1.05D-02
 ErrMax= 1.05D-02 EMaxC= 1.00D-01 BMatC= 5.66D-03 BMatP= 1.07D-02
 IDIUse=3 WtCom= 8.95D-01 WtEn= 1.05D-01
 Coeff-Com:  0.738D-02 0.422D+00 0.571D+00
 Coeff-En:   0.000D+00 0.341D+00 0.659D+00
 Coeff:      0.660D-02 0.413D+00 0.580D+00
 Gap=     0.513 Goal=   None    Shift=    0.000
 RMSDP=1.22D-03 MaxDP=1.56D-02 DE=-3.67D-03 OVMax= 1.41D-02

 Cycle   4  Pass 0  IDiag  1:
 RMSU=  1.86D-04    CP:  1.01D+00  8.11D-01  5.59D-01
 FoFJK:  IHMeth= 1 ICntrl=     0 DoSepK=T KAlg= 1 I1Cent= 0 FoldK=F
 E= -115.673132351610     Delta-E=       -0.003936941732 Rises=F Damp=F
 DIIS: error= 5.72D-04 at cycle   4 NSaved=   4.
 NSaved= 4 IEnMin= 4 EnMin= -115.673132351610     IErMin= 4 ErrMin= 5.72D-04
 ErrMax= 5.72D-04 EMaxC= 1.00D-01 BMatC= 1.72D-05 BMatP= 5.66D-03
 IDIUse=3 WtCom= 9.94D-01 WtEn= 5.72D-03
 Coeff-Com:  0.162D-02 0.934D-01 0.152D+00 0.753D+00
 Coeff-En:   0.000D+00 0.000D+00 0.000D+00 0.100D+01
 Coeff:      0.161D-02 0.928D-01 0.151D+00 0.754D+00
 Gap=     0.510 Goal=   None    Shift=    0.000
 RMSDP=9.51D-05 MaxDP=1.08D-03 DE=-3.94D-03 OVMax= 1.23D-03

 Cycle   5  Pass 0  IDiag  1:
 RMSU=  5.53D-05    CP:  1.01D+00  8.12D-01  5.81D-01  8.91D-01
 FoFJK:  IHMeth= 1 ICntrl=     0 DoSepK=T KAlg= 1 I1Cent= 0 FoldK=F
 E= -115.673145676423     Delta-E=       -0.000013324813 Rises=F Damp=F
 DIIS: error= 1.72D-04 at cycle   5 NSaved=   5.
 NSaved= 5 IEnMin= 5 EnMin= -115.673145676423     IErMin= 5 ErrMin= 1.72D-04
 ErrMax= 1.72D-04 EMaxC= 1.00D-01 BMatC= 1.01D-06 BMatP= 1.72D-05
 IDIUse=3 WtCom= 9.98D-01 WtEn= 1.72D-03
 Coeff-Com: -0.357D-03 0.110D-02 0.951D-02 0.210D+00 0.780D+00
 Coeff-En:   0.000D+00 0.000D+00 0.000D+00 0.000D+00 0.100D+01
 Coeff:     -0.356D-03 0.109D-02 0.949D-02 0.210D+00 0.780D+00
 Gap=     0.510 Goal=   None    Shift=    0.000
 RMSDP=2.70D-05 MaxDP=2.89D-04 DE=-1.33D-05 OVMax= 2.68D-04

 Cycle   6  Pass 0  IDiag  1:
 RMSU=  1.11D-05    CP:  1.01D+00  8.13D-01  5.84D-01  9.65D-01  9.78D-01
 FoFJK:  IHMeth= 1 ICntrl=     0 DoSepK=T KAlg= 1 I1Cent= 0 FoldK=F
 E= -115.673146625916     Delta-E=       -0.000000949493 Rises=F Damp=F
 DIIS: error= 2.65D-05 at cycle   6 NSaved=   6.
 NSaved= 6 IEnMin= 6 EnMin= -115.673146625916     IErMin= 6 ErrMin= 2.65D-05
 ErrMax= 2.65D-05 EMaxC= 1.00D-01 BMatC= 3.37D-08 BMatP= 1.01D-06
 IDIUse=1 WtCom= 1.00D+00 WtEn= 0.00D+00
 Coeff-Com: -0.847D-04-0.903D-02-0.133D-01-0.338D-01 0.106D+00 0.950D+00
 Coeff:     -0.847D-04-0.903D-02-0.133D-01-0.338D-01 0.106D+00 0.950D+00
 Gap=     0.510 Goal=   None    Shift=    0.000
 RMSDP=1.03D-05 MaxDP=7.81D-05 DE=-9.49D-07 OVMax= 9.25D-05

 Cycle   7  Pass 0  IDiag  1:
 RMSU=  2.46D-06    CP:  1.01D+00  8.14D-01  5.85D-01  9.83D-01  1.07D+00
                    CP:  1.10D+00
 FoFJK:  IHMeth= 1 ICntrl=     0 DoSepK=T KAlg= 1 I1Cent= 0 FoldK=F
 E= -115.673146682460     Delta-E=       -0.000000056544 Rises=F Damp=F
 DIIS: error= 2.35D-06 at cycle   7 NSaved=   7.
 NSaved= 7 IEnMin= 7 EnMin= -115.673146682460     IErMin= 7 ErrMin= 2.35D-06
 ErrMax= 2.35D-06 EMaxC= 1.00D-01 BMatC= 4.39D-10 BMatP= 3.37D-08
 IDIUse=1 WtCom= 1.00D+00 WtEn= 0.00D+00
 Coeff-Com:  0.139D-04 0.752D-03 0.958D-03 0.569D-04-0.299D-01-0.769D-01
 Coeff-Com:  0.110D+01
 Coeff:      0.139D-04 0.752D-03 0.958D-03 0.569D-04-0.299D-01-0.769D-01
 Coeff:      0.110D+01
 Gap=     0.510 Goal=   None    Shift=    0.000
 RMSDP=1.79D-06 MaxDP=1.45D-05 DE=-5.65D-08 OVMax= 1.90D-05

 Initial convergence to 1.0D-05 achieved.  Increase integral accuracy.
 Cycle   8  Pass 1  IDiag  1:
 FoFJK:  IHMeth= 1 ICntrl=     0 DoSepK=T KAlg= 1 I1Cent= 0 FoldK=F
 E= -115.672840521916     Delta-E=        0.000306160544 Rises=F Damp=F
 DIIS: error= 1.07D-04 at cycle   1 NSaved=   1.
 NSaved= 1 IEnMin= 1 EnMin= -115.672840521916     IErMin= 1 ErrMin= 1.07D-04
 ErrMax= 1.07D-04 EMaxC= 1.00D-01 BMatC= 8.19D-07 BMatP= 8.19D-07
 IDIUse=3 WtCom= 9.99D-01 WtEn= 1.07D-03
 Coeff-Com:  0.100D+01
 Coeff-En:   0.100D+01
 Coeff:      0.100D+01
 Gap=     0.510 Goal=   None    Shift=    0.000
 RMSDP=1.79D-06 MaxDP=1.45D-05 DE= 3.06D-04 OVMax= 2.46D-04

 Cycle   9  Pass 1  IDiag  1:
 RMSU=  1.59D-05    CP:  1.00D+00
 FoFJK:  IHMeth= 1 ICntrl=     0 DoSepK=T KAlg= 1 I1Cent= 0 FoldK=F
 E= -115.672841277040     Delta-E=       -0.000000755123 Rises=F Damp=F
 DIIS: error= 3.51D-05 at cycle   2 NSaved=   2.
 NSaved= 2 IEnMin= 2 EnMin= -115.672841277040     IErMin= 2 ErrMin= 3.51D-05
 ErrMax= 3.51D-05 EMaxC= 1.00D-01 BMatC= 5.09D-08 BMatP= 8.19D-07
 IDIUse=1 WtCom= 1.00D+00 WtEn= 0.00D+00
 Coeff-Com:  0.265D-01 0.973D+00
 Coeff:      0.265D-01 0.973D+00
 Gap=     0.510 Goal=   None    Shift=    0.000
 RMSDP=8.32D-06 MaxDP=9.04D-05 DE=-7.55D-07 OVMax= 8.91D-05

 Cycle  10  Pass 1  IDiag  1:
 RMSU=  5.87D-06    CP:  1.00D+00  9.82D-01
 FoFJK:  IHMeth= 1 ICntrl=     0 DoSepK=T KAlg= 1 I1Cent= 0 FoldK=F
 E= -115.672841296891     Delta-E=       -0.000000019851 Rises=F Damp=F
 DIIS: error= 3.10D-05 at cycle   3 NSaved=   3.
 NSaved= 3 IEnMin= 3 EnMin= -115.672841296891     IErMin= 3 ErrMin= 3.10D-05
 ErrMax= 3.10D-05 EMaxC= 1.00D-01 BMatC= 4.12D-08 BMatP= 5.09D-08
 IDIUse=1 WtCom= 1.00D+00 WtEn= 0.00D+00
 Coeff-Com: -0.464D-01 0.488D+00 0.559D+00
 Coeff:     -0.464D-01 0.488D+00 0.559D+00
 Gap=     0.510 Goal=   None    Shift=    0.000
 RMSDP=3.21D-06 MaxDP=4.39D-05 DE=-1.99D-08 OVMax= 3.78D-05

 Cycle  11  Pass 1  IDiag  1:
 RMSU=  1.13D-06    CP:  1.00D+00  1.04D+00  7.00D-01
 FoFJK:  IHMeth= 1 ICntrl=     0 DoSepK=T KAlg= 1 I1Cent= 0 FoldK=F
 E= -115.672841325563     Delta-E=       -0.000000028672 Rises=F Damp=F
 DIIS: error= 4.28D-06 at cycle   4 NSaved=   4.
 NSaved= 4 IEnMin= 4 EnMin= -115.672841325563     IErMin= 4 ErrMin= 4.28D-06
 ErrMax= 4.28D-06 EMaxC= 1.00D-01 BMatC= 3.65D-10 BMatP= 4.12D-08
 IDIUse=1 WtCom= 1.00D+00 WtEn= 0.00D+00
 Coeff-Com: -0.929D-02 0.590D-01 0.956D-01 0.855D+00
 Coeff:     -0.929D-02 0.590D-01 0.956D-01 0.855D+00
 Gap=     0.510 Goal=   None    Shift=    0.000
 RMSDP=5.88D-07 MaxDP=7.97D-06 DE=-2.87D-08 OVMax= 8.99D-06

 Cycle  12  Pass 1  IDiag  1:
 RMSU=  3.75D-07    CP:  1.00D+00  1.04D+00  7.28D-01  1.06D+00
 FoFJK:  IHMeth= 1 ICntrl=     0 DoSepK=T KAlg= 1 I1Cent= 0 FoldK=F
 E= -115.672841325925     Delta-E=       -0.000000000363 Rises=F Damp=F
 DIIS: error= 1.13D-06 at cycle   5 NSaved=   5.
 NSaved= 5 IEnMin= 5 EnMin= -115.672841325925     IErMin= 5 ErrMin= 1.13D-06
 ErrMax= 1.13D-06 EMaxC= 1.00D-01 BMatC= 8.52D-11 BMatP= 3.65D-10
 IDIUse=1 WtCom= 1.00D+00 WtEn= 0.00D+00
 Coeff-Com:  0.149D-02-0.348D-01-0.335D-01 0.292D+00 0.775D+00
 Coeff:      0.149D-02-0.348D-01-0.335D-01 0.292D+00 0.775D+00
 Gap=     0.510 Goal=   None    Shift=    0.000
 RMSDP=2.28D-07 MaxDP=2.83D-06 DE=-3.63D-10 OVMax= 4.26D-06

 Cycle  13  Pass 1  IDiag  1:
 RMSU=  8.38D-08    CP:  1.00D+00  1.04D+00  7.39D-01  1.16D+00  8.54D-01
 FoFJK:  IHMeth= 1 ICntrl=     0 DoSepK=T KAlg= 1 I1Cent= 0 FoldK=F
 E= -115.672841326012     Delta-E=       -0.000000000087 Rises=F Damp=F
 DIIS: error= 2.25D-07 at cycle   6 NSaved=   6.
 NSaved= 6 IEnMin= 6 EnMin= -115.672841326012     IErMin= 6 ErrMin= 2.25D-07
 ErrMax= 2.25D-07 EMaxC= 1.00D-01 BMatC= 1.05D-12 BMatP= 8.52D-11
 IDIUse=1 WtCom= 1.00D+00 WtEn= 0.00D+00
 Coeff-Com:  0.619D-03-0.632D-02-0.692D-02-0.132D-01 0.740D-01 0.952D+00
 Coeff:      0.619D-03-0.632D-02-0.692D-02-0.132D-01 0.740D-01 0.952D+00
 Gap=     0.510 Goal=   None    Shift=    0.000
 RMSDP=5.21D-08 MaxDP=3.91D-07 DE=-8.72D-11 OVMax= 6.99D-07

 Cycle  14  Pass 1  IDiag  1:
 RMSU=  1.63D-08    CP:  1.00D+00  1.04D+00  7.41D-01  1.17D+00  9.10D-01
                    CP:  1.15D+00
 FoFJK:  IHMeth= 1 ICntrl=     0 DoSepK=T KAlg= 1 I1Cent= 0 FoldK=F
 E= -115.672841326014     Delta-E=       -0.000000000002 Rises=F Damp=F
 DIIS: error= 2.16D-08 at cycle   7 NSaved=   7.
 NSaved= 7 IEnMin= 7 EnMin= -115.672841326014     IErMin= 7 ErrMin= 2.16D-08
 ErrMax= 2.16D-08 EMaxC= 1.00D-01 BMatC= 2.66D-14 BMatP= 1.05D-12
 IDIUse=1 WtCom= 1.00D+00 WtEn= 0.00D+00
 Coeff-Com: -0.416D-04 0.962D-03 0.956D-03-0.752D-02-0.244D-01-0.141D-01
 Coeff-Com:  0.104D+01
 Coeff:     -0.416D-04 0.962D-03 0.956D-03-0.752D-02-0.244D-01-0.141D-01
 Coeff:      0.104D+01
 Gap=     0.510 Goal=   None    Shift=    0.000
 RMSDP=1.39D-08 MaxDP=1.11D-07 DE=-1.76D-12 OVMax= 2.03D-07

 Cycle  15  Pass 1  IDiag  1:
 RMSU=  3.54D-09    CP:  1.00D+00  1.04D+00  7.42D-01  1.17D+00  9.18D-01
                    CP:  1.23D+00  1.27D+00
 FoFJK:  IHMeth= 1 ICntrl=     0 DoSepK=T KAlg= 1 I1Cent= 0 FoldK=F
 E= -115.672841326014     Delta-E=        0.000000000000 Rises=F Damp=F
 DIIS: error= 5.40D-09 at cycle   8 NSaved=   8.
 NSaved= 8 IEnMin= 8 EnMin= -115.672841326014     IErMin= 8 ErrMin= 5.40D-09
 ErrMax= 5.40D-09 EMaxC= 1.00D-01 BMatC= 1.74D-15 BMatP= 2.66D-14
 IDIUse=1 WtCom= 1.00D+00 WtEn= 0.00D+00
 Coeff-Com: -0.210D-04 0.219D-03 0.159D-03 0.101D-02-0.254D-02-0.423D-01
 Coeff-Com: -0.463D-02 0.105D+01
 Coeff:     -0.210D-04 0.219D-03 0.159D-03 0.101D-02-0.254D-02-0.423D-01
 Coeff:     -0.463D-02 0.105D+01
 Gap=     0.510 Goal=   None    Shift=    0.000
 RMSDP=3.70D-09 MaxDP=3.37D-08 DE=-2.84D-13 OVMax= 5.62D-08

 SCF Done:  E(RwB97XD) =  -115.672841326     A.U. after   15 cycles
             Convg  =    0.3700D-08             -V/T =  2.0086
 KE= 1.146831115890D+02 PE=-3.510257715213D+02 EE= 8.072826495520D+01
 Leave Link  502 at Fri Jan  8 13:43:31 2021, MaxMem=13421772800 cpu:      21.3
 (Enter /opt/g09gh/gaussian/g09/l601.exe)
 Copying SCF densities to generalized density rwf, IOpCl= 0 IROHF=0.

 **********************************************************************

            Population analysis using the SCF density.

 **********************************************************************

 Orbital symmetries:
       Occupied  (A) (A) (A) (A) (A) (A) (A) (A) (A)
       Virtual   (A) (A) (A) (A) (A) (A) (A) (A) (A) (A) (A) (A)
                 (A) (A) (A) (A) (A) (A) (A) (A) (A) (A) (A) (A)
                 (A) (A) (A) (A) (A)
 The electronic state is 1-A.
 Alpha  occ. eigenvalues --  -19.25787 -10.33128  -1.09871  -0.78095  -0.58713
 Alpha  occ. eigenvalues --   -0.52221  -0.50267  -0.40607  -0.34748
 Alpha virt. eigenvalues --    0.16277   0.21808   0.24878   0.26968   0.29838
 Alpha virt. eigenvalues --    0.62340   0.64449   0.65923   0.91193   0.95682
 Alpha virt. eigenvalues --    0.96888   1.01732   1.05063   1.07017   1.11004
 Alpha virt. eigenvalues --    1.24440   1.55274   1.57190   1.63854   1.85583
 Alpha virt. eigenvalues --    2.11539   2.22524   2.24509   2.32189   2.46646
 Alpha virt. eigenvalues --    2.63794   2.87280   3.80094   4.33067
          Condensed to atoms (all electrons):
              1          2          3          4          5          6
     1  O    8.256412   0.250753  -0.039292  -0.039289  -0.023160   0.247071
     2  C    0.250753   4.874771   0.385039   0.385032   0.373885  -0.023991
     3  H   -0.039292   0.385039   0.561184  -0.042300  -0.037563   0.003353
     4  H   -0.039289   0.385032  -0.042300   0.561200  -0.037572   0.003353
     5  H   -0.023160   0.373885  -0.037563  -0.037572   0.587703  -0.010934
     6  H    0.247071  -0.023991   0.003353   0.003353  -0.010934   0.369959
 Mulliken atomic charges:
              1
     1  O   -0.652495
     2  C   -0.245489
     3  H    0.169580
     4  H    0.169575
     5  H    0.147641
     6  H    0.411188
 Sum of Mulliken atomic charges =   0.00000
 Mulliken charges with hydrogens summed into heavy atoms:
              1
     1  O   -0.241307
     2  C    0.241307
 Sum of Mulliken charges with hydrogens summed into heavy atoms =   0.00000
 Electronic spatial extent (au):  <R**2>=             84.9219
 Charge=              0.0000 electrons
 Dipole moment (field-independent basis, Debye):
    X=              0.8218    Y=              1.6872    Z=             -0.0002  Tot=              1.8767
 Quadrupole moment (field-independent basis, Debye-Ang):
   XX=            -12.0040   YY=            -12.1436   ZZ=            -13.3167
   XY=             -2.2070   XZ=              0.0003   YZ=              0.0000
 Traceless Quadrupole moment (field-independent basis, Debye-Ang):
   XX=              0.4841   YY=              0.3445   ZZ=             -0.8286
   XY=             -2.2070   XZ=              0.0003   YZ=              0.0000
 Octapole moment (field-independent basis, Debye-Ang**2):
  XXX=             -4.8760  YYY=              1.7022  ZZZ=              0.0001  XYY=             -1.9946
  XXY=              2.7384  XXZ=             -0.0002  XZZ=             -0.2017  YZZ=             -0.2435
  YYZ=             -0.0003  XYZ=              0.0003
 Hexadecapole moment (field-independent basis, Debye-Ang**3):
 XXXX=            -59.7290 YYYY=            -18.7381 ZZZZ=            -18.0300 XXXY=             -3.9740
 XXXZ=              0.0007 YYYX=             -1.4821 YYYZ=              0.0000 ZZZX=              0.0004
 ZZZY=              0.0001 XXYY=            -12.3248 XXZZ=            -13.3752 YYZZ=             -6.3508
 XXYZ=             -0.0001 YYXZ=             -0.0001 ZZXY=             -0.9413
 N-N= 3.994155365109D+01 E-N=-3.510257716204D+02  KE= 1.146831115890D+02
 No NMR shielding tensors so no spin-rotation constants.
 Leave Link  601 at Fri Jan  8 13:43:31 2021, MaxMem=13421772800 cpu:       0.9
 (Enter /opt/g09gh/gaussian/g09/l701.exe)
 Compute integral first derivatives.
 ... and contract with generalized density number  0.
 R6Disp: Adding dispersion energy 1st derivatives to the gradient.
 Leave Link  701 at Fri Jan  8 13:43:31 2021, MaxMem=13421772800 cpu:       0.9
 (Enter /opt/g09gh/gaussian/g09/l702.exe)
 L702 exits ... SP integral derivatives will be done elsewhere.
 Leave Link  702 at Fri Jan  8 13:43:31 2021, MaxMem=13421772800 cpu:       0.3
 (Enter /opt/g09gh/gaussian/g09/l703.exe)
 Compute integral first derivatives, UseDBF=F ICtDFT=           0.
 Integral derivatives from FoFDir, PRISM(SPDF).
 Calling FoFJK, ICntrl=      2127 FMM=F ISym2X=0 I1Cent= 0 IOpClX= 0 NMat=1 NMatS=1 NMatT=0.
 FoFJK:  IHMeth= 1 ICntrl=  2127 DoSepK=T KAlg= 1 I1Cent= 0 FoldK=F
 FoFCou: FMM=F IPFlag=           0 FMFlag=      100000 FMFlg1=         800
         NFxFlg=           0 DoJE=F BraDBF=F KetDBF=F FulRan=T
         Omega=  0.000000  0.000000  1.000000  0.000000  0.000000 ICntrl=    2527 IOpCl=  0
         NMat0=    1 NMatS0=    1 NMatT0=    0 NMatD0=    1 NMtDS0=    0 NMtDT0=    0
         I1Cent=           0 NGrid=           0.
 Symmetry not used in FoFCou.
 Leave Link  703 at Fri Jan  8 13:43:32 2021, MaxMem=13421772800 cpu:       2.4
 (Enter /opt/g09gh/gaussian/g09/l716.exe)
 Dipole        = 3.23313278D-01 6.63804505D-01-8.14778006D-05
 ***** Axes restored to original set *****
 -------------------------------------------------------------------
 Center     Atomic                   Forces (Hartrees/Bohr)
 Number     Number              X              Y              Z
 -------------------------------------------------------------------
      1        8           0.014488016   -0.006866977    0.000002700
      2        6          -0.026540608    0.015280010    0.000001780
      3        1           0.001530344   -0.008926080   -0.006670733
      4        1           0.001524696   -0.008930630    0.006672594
      5        1          -0.000624745    0.008385716   -0.000006463
      6        1           0.009622298    0.001057961    0.000000122
 -------------------------------------------------------------------
 Cartesian Forces:  Max     0.026540608 RMS     0.009464785
 Leave Link  716 at Fri Jan  8 13:43:32 2021, MaxMem=13421772800 cpu:       0.3
 (Enter /opt/g09gh/gaussian/g09/l103.exe)

 GradGradGradGradGradGradGradGradGradGradGradGradGradGradGradGradGradGrad
 Berny optimization.
 Internal  Forces:  Max     0.023478824 RMS     0.008956577
 Search for a local minimum.
 Step number   1 out of a maximum of    2
 All quantities printed in internal units (Hartrees-Bohrs-Radians)
 RMS Force = .97337D-02 SwitMx=.10000D-02 MixMth= 1
 Mixed Optimization -- RFO/linear search
 Second derivative matrix not updated -- first step.
 The second derivative matrix:
                          R1        R2        R3        R4        R5
           R1           0.38984
           R2           0.00000   0.54706
           R3           0.00000   0.00000   0.35940
           R4           0.00000   0.00000   0.00000   0.35940
           R5           0.00000   0.00000   0.00000   0.00000   0.35175
           A1           0.00000   0.00000   0.00000   0.00000   0.00000
           A2           0.00000   0.00000   0.00000   0.00000   0.00000
           A3           0.00000   0.00000   0.00000   0.00000   0.00000
           A4           0.00000   0.00000   0.00000   0.00000   0.00000
           A5           0.00000   0.00000   0.00000   0.00000   0.00000
           A6           0.00000   0.00000   0.00000   0.00000   0.00000
           A7           0.00000   0.00000   0.00000   0.00000   0.00000
           D1           0.00000   0.00000   0.00000   0.00000   0.00000
           D2           0.00000   0.00000   0.00000   0.00000   0.00000
           D3           0.00000   0.00000   0.00000   0.00000   0.00000
                          A1        A2        A3        A4        A5
           A1           0.16000
           A2           0.00000   0.16000
           A3           0.00000   0.00000   0.16000
           A4           0.00000   0.00000   0.00000   0.16000
           A5           0.00000   0.00000   0.00000   0.00000   0.16000
           A6           0.00000   0.00000   0.00000   0.00000   0.00000
           A7           0.00000   0.00000   0.00000   0.00000   0.00000
           D1           0.00000   0.00000   0.00000   0.00000   0.00000
           D2           0.00000   0.00000   0.00000   0.00000   0.00000
           D3           0.00000   0.00000   0.00000   0.00000   0.00000
                          A6        A7        D1        D2        D3
           A6           0.16000
           A7           0.00000   0.16000
           D1           0.00000   0.00000   0.01104
           D2           0.00000   0.00000   0.00000   0.01104
           D3           0.00000   0.00000   0.00000   0.00000   0.01104
     Eigenvalues ---    0.16000   0.16000   0.16000   0.16000   0.35175
     Eigenvalues ---    0.35940   0.35940   0.38984   0.547061000.00000
     Eigenvalues --- 1000.000001000.000001000.000001000.000001000.00000
 RFO step:  Lambda=-4.07578029D-03 EMin= 1.60000000D-01
 Linear search not attempted -- first point.
 Iteration  1 RMS(Cart)=  0.05689522 RMS(Int)=  0.00164108
 Iteration  2 RMS(Cart)=  0.00134859 RMS(Int)=  0.00009442
 Iteration  3 RMS(Cart)=  0.00000030 RMS(Int)=  0.00009442
 Iteration  1 RMS(Cart)=  0.00000198 RMS(Int)=  0.00000273
 Iteration  2 RMS(Cart)=  0.00000120 RMS(Int)=  0.00000304
 Iteration  3 RMS(Cart)=  0.00000073 RMS(Int)=  0.00000347
 Variable       Old X    -DE/DX   Delta X   Delta X   Delta X     New X
                                 (Linear)    (Quad)   (Total)
    R1        2.72957  -0.02348   0.00000  -0.05960  -0.05960   2.66997
    R2        1.82094  -0.00357   0.00000  -0.00648  -0.00648   1.81446
    R3        2.04175   0.00977   0.00000   0.02687   0.02687   2.06862
    R4        2.04176   0.00977   0.00000   0.02687   0.02687   2.06863
    R5        2.05392   0.00782   0.00000   0.02198   0.02198   2.07590
    A1        1.96732  -0.01640   0.00000  -0.09995  -0.09995   1.86736
    A2        1.92855  -0.00390   0.00000  -0.01650  -0.01664   1.91190
    A3        1.92859  -0.00391   0.00000  -0.01656  -0.01671   1.91188
    A4        1.96332  -0.00076   0.00000  -0.01917  -0.01932   1.94400
    A5        1.93685  -0.00153   0.00000   0.01797   0.01784   1.95469
    A6        1.85213   0.00538   0.00000   0.01865   0.01849   1.87062
    A7        1.85204   0.00539   0.00000   0.01869   0.01853   1.87056
    D1       -2.06639  -0.00367   0.00000   0.00000   0.00000  -2.06639
    D2        2.06634   0.00367   0.00000   0.00000   0.00000   2.06635
    D3        0.00002   0.00000   0.00000   0.00000   0.00000   0.00002
         Item               Value     Threshold  Converged?
 Maximum Force            0.023479     0.002500     NO 
 RMS     Force            0.009734     0.001667     NO 
 Maximum Displacement     0.169695     0.010000     NO 
 RMS     Displacement     0.057502     0.006667     NO 
 Predicted change in Energy=-2.073296D-03
 GradGradGradGradGradGradGradGradGradGradGradGradGradGradGradGradGradGrad

 Leave Link  103 at Fri Jan  8 13:43:32 2021, MaxMem=13421772800 cpu:       0.0
 (Enter /opt/g09gh/gaussian/g09/l202.exe)
                          Input orientation:                          
 ---------------------------------------------------------------------
 Center     Atomic      Atomic             Coordinates (Angstroms)
 Number     Number       Type             X           Y           Z
 ---------------------------------------------------------------------
      1          8           0       -0.740894   -0.145585    0.000034
      2          6           0        0.663323    0.010697   -0.000018
      3          1           0        1.081521   -0.436483   -0.907452
      4          1           0        1.081534   -0.436219    0.907544
      5          1           0        0.948238    1.071625   -0.000138
      6          1           0       -1.121341    0.735996   -0.000070
 ---------------------------------------------------------------------
                    Distance matrix (angstroms):
                    1          2          3          4          5
     1  O    0.000000
     2  C    1.412888   0.000000
     3  H    2.056538   1.094667   0.000000
     4  H    2.056523   1.094670   1.814996   0.000000
     5  H    2.082010   1.098518   1.765041   1.765007   0.000000
     6  H    0.960169   1.926417   2.655306   2.655279   2.096617
                    6
     6  H    0.000000
 Stoichiometry    CH4O
 Framework group  C1[X(CH4O)]
 Deg. of freedom    12
 Full point group                 C1      NOp   1
 Largest Abelian subgroup         C1      NOp   1
 Largest concise Abelian subgroup C1      NOp   1
                         Standard orientation:                         
 ---------------------------------------------------------------------
 Center     Atomic      Atomic             Coordinates (Angstroms)
 Number     Number       Type             X           Y           Z
 ---------------------------------------------------------------------
      1          8           0       -0.745412   -0.124139    0.000031
      2          6           0        0.661187    0.009019   -0.000020
      3          1           0        1.071970   -0.444982   -0.907455
      4          1           0        1.071988   -0.444719    0.907541
      5          1           0        0.963519    1.065114   -0.000141
      6          1           0       -1.111302    0.763583   -0.000072
 ---------------------------------------------------------------------
 Rotational constants (GHZ):    127.0140453     25.0196719     24.2292728
 Leave Link  202 at Fri Jan  8 13:43:32 2021, MaxMem=13421772800 cpu:       0.0
 (Enter /opt/g09gh/gaussian/g09/l301.exe)
 Standard basis: 6-31G(d) (6D, 7F)
 Ernie: Thresh=  0.10000D-02 Tol=  0.10000D-05 Strict=F.
 There are    38 symmetry adapted basis functions of A   symmetry.
 Integral buffers will be    131072 words long.
 Raffenetti 2 integral format.
 Two-electron integral symmetry is turned on.
    38 basis functions,    72 primitive gaussians,    38 cartesian basis functions
     9 alpha electrons        9 beta electrons
       nuclear repulsion energy        40.4187447798 Hartrees.
 IExCor= 4639 DFT=T Ex+Corr=wB97XD ExCW=0 ScaHFX=  1.000000
 ScaDFX=  1.000000  1.000000  1.000000  1.000000 ScalE2=  1.000000  1.000000
 IRadAn=      0 IRanWt=     -1 IRanGd=            0 ICorTp=0
  HFx wShort=  0.000000 wLong=  0.200000 cFull=  0.222036 cShort=  0.000000 cLong=  0.777964
  DFx wShort=  0.000000 wLong=  0.200000 cFull=  0.000000 cShort=  0.000000 cLong=  1.000000
 NAtoms=    6 NActive=    6 NUniq=    6 SFac= 7.50D-01 NAtFMM=   80 NAOKFM=F Big=F
 R6Disp: Dispersion energy =        -0.0007951400 Hartrees.
 Nuclear repulsion after empirical dispersion term =       40.4179496398 Hartrees.
 Leave Link  301 at Fri Jan  8 13:43:32 2021, MaxMem=13421772800 cpu:       0.5
 (Enter /opt/g09gh/gaussian/g09/l302.exe)
 NPDir=0 NMtPBC=     1 NCelOv=     1 NCel=       1 NClECP=     1 NCelD=      1
         NCelK=      1 NCelE2=     1 NClLst=     1 CellRange=     0.0.
 One-electron integrals computed using PRISM.
 NBasis=    38 RedAO= T  NBF=    38
 NBsUse=    38 1.00D-06 NBFU=    38
 Precomputing XC quadrature grid using
 IXCGrd= 2 IRadAn=           0 IRanWt=          -1 IRanGd=           0 AccXCQ= 1.00D-10.
 NRdTot=     369 NPtTot=       46428 NUsed=       49102 NTot=       49134
 NSgBfM=    38    38    38    38    38 NAtAll=     6     6.
 Leave Link  302 at Fri Jan  8 13:43:32 2021, MaxMem=13421772800 cpu:       1.1
 (Enter /opt/g09gh/gaussian/g09/l303.exe)
 DipDrv:  MaxL=1.
 Leave Link  303 at Fri Jan  8 13:43:32 2021, MaxMem=13421772800 cpu:       0.3
 (Enter /opt/g09gh/gaussian/g09/l401.exe)
 Initial guess read from the read-write file.
 B after Tr=     0.000000    0.000000    0.000000
         Rot=    1.000000    0.000000    0.000000    0.000000 Ang=   0.00 deg.
 Guess basis will be translated and rotated to current coordinates.
 Initial guess orbital symmetries:
       Occupied  (A) (A) (A) (A) (A) (A) (A) (A) (A)
       Virtual   (A) (A) (A) (A) (A) (A) (A) (A) (A) (A) (A) (A)
                 (A) (A) (A) (A) (A) (A) (A) (A) (A) (A) (A) (A)
                 (A) (A) (A) (A) (A)
 The electronic state of the initial guess is 1-A.
 Generating alternative initial guess.
 Harris functional with IExCor= 4639 diagonalized for initial guess.
 ExpMin= 1.61D-01 ExpMax= 5.48D+03 ExpMxC= 8.25D+02 IAcc=1 IRadAn=         1 AccDes= 0.00D+00
 HarFok:  IExCor= 4639 AccDes= 0.00D+00 IRadAn=         1 IDoV= 1
 ScaDFX=  1.000000  1.000000  1.000000  1.000000
 FoFCou: FMM=F IPFlag=           0 FMFlag=      100000 FMFlg1=           0
         NFxFlg=           0 DoJE=T BraDBF=F KetDBF=T FulRan=T
         Omega=  0.000000  0.000000  1.000000  0.000000  0.000000 ICntrl=     500 IOpCl=  0
         NMat0=    1 NMatS0=    1 NMatT0=    0 NMatD0=    1 NMtDS0=    0 NMtDT0=    0
         I1Cent=           4 NGrid=           0.
 Petite list used in FoFCou.
 Harris En= -110.929217683457    
 Leave Link  401 at Fri Jan  8 13:43:32 2021, MaxMem=13421772800 cpu:       1.6
 (Enter /opt/g09gh/gaussian/g09/l502.exe)
 Closed shell SCF:
 Requested convergence on RMS density matrix=1.00D-08 within 128 cycles.
 Requested convergence on MAX density matrix=1.00D-06.
 Requested convergence on             energy=1.00D-06.
 No special actions if energy rises.
 Using DIIS extrapolation, IDIIS=  1040.
 Integral symmetry usage will be decided dynamically.
        49035 words used for storage of precomputed grid.
 IEnd=       72111 IEndB=       72111 NGot= 13421772800 MDV= 13421718812
 LenX= 13421718812 LenY= 13421716927
 Fock matrices will be formed incrementally for  20 cycles.
 Integral accuracy reduced to 1.0D-05 until final iterations.

 Cycle   1  Pass 0  IDiag  1:
 FoFJK:  IHMeth= 1 ICntrl=     0 DoSepK=T KAlg= 1 I1Cent= 0 FoldK=F
 FoFCou: FMM=F IPFlag=           0 FMFlag=      100000 FMFlg1=           0
         NFxFlg=           0 DoJE=T BraDBF=F KetDBF=F FulRan=T
         Omega=  0.000000  0.000000  1.000000  0.000000  0.000000 ICntrl=     500 IOpCl=  0
         NMat0=    1 NMatS0=    1 NMatT0=    0 NMatD0=    1 NMtDS0=    0 NMtDT0=    0
         I1Cent=           0 NGrid=           0.
 Symmetry not used in FoFCou.
 E= -115.673454230679    
 DIIS: error= 3.93D-03 at cycle   1 NSaved=   1.
 NSaved= 1 IEnMin= 1 EnMin= -115.673454230679     IErMin= 1 ErrMin= 3.93D-03
 ErrMax= 3.93D-03 EMaxC= 1.00D-01 BMatC= 9.37D-04 BMatP= 9.37D-04
 IDIUse=3 WtCom= 9.61D-01 WtEn= 3.93D-02
 Coeff-Com:  0.100D+01
 Coeff-En:   0.100D+01
 Coeff:      0.100D+01
 Gap=     0.510 Goal=   None    Shift=    0.000
 GapD=    0.510 DampG=2.000 DampE=1.000 DampFc=2.0000 IDamp=-1.
 RMSDP=8.75D-04 MaxDP=9.14D-03              OVMax= 1.02D-02

 Cycle   2  Pass 0  IDiag  1:
 RMSU=  6.18D-04    CP:  1.00D+00
 FoFJK:  IHMeth= 1 ICntrl=     0 DoSepK=T KAlg= 1 I1Cent= 0 FoldK=F
 E= -115.674587408569     Delta-E=       -0.001133177890 Rises=F Damp=F
 DIIS: error= 8.99D-04 at cycle   2 NSaved=   2.
 NSaved= 2 IEnMin= 2 EnMin= -115.674587408569     IErMin= 2 ErrMin= 8.99D-04
 ErrMax= 8.99D-04 EMaxC= 1.00D-01 BMatC= 4.09D-05 BMatP= 9.37D-04
 IDIUse=3 WtCom= 9.91D-01 WtEn= 8.99D-03
 Coeff-Com: -0.863D-02 0.101D+01
 Coeff-En:   0.000D+00 0.100D+01
 Coeff:     -0.856D-02 0.101D+01
 Gap=     0.507 Goal=   None    Shift=    0.000
 RMSDP=2.23D-04 MaxDP=1.83D-03 DE=-1.13D-03 OVMax= 2.75D-03

 Cycle   3  Pass 0  IDiag  1:
 RMSU=  1.28D-04    CP:  1.00D+00  1.15D+00
 FoFJK:  IHMeth= 1 ICntrl=     0 DoSepK=T KAlg= 1 I1Cent= 0 FoldK=F
 E= -115.674634447501     Delta-E=       -0.000047038932 Rises=F Damp=F
 DIIS: error= 4.78D-04 at cycle   3 NSaved=   3.
 NSaved= 3 IEnMin= 3 EnMin= -115.674634447501     IErMin= 3 ErrMin= 4.78D-04
 ErrMax= 4.78D-04 EMaxC= 1.00D-01 BMatC= 1.29D-05 BMatP= 4.09D-05
 IDIUse=3 WtCom= 9.95D-01 WtEn= 4.78D-03
 Coeff-Com: -0.461D-01 0.322D+00 0.724D+00
 Coeff-En:   0.000D+00 0.000D+00 0.100D+01
 Coeff:     -0.459D-01 0.321D+00 0.725D+00
 Gap=     0.508 Goal=   None    Shift=    0.000
 RMSDP=8.67D-05 MaxDP=1.04D-03 DE=-4.70D-05 OVMax= 1.12D-03

 Cycle   4  Pass 0  IDiag  1:
 RMSU=  5.67D-05    CP:  1.00D+00  1.18D+00  9.04D-01
 FoFJK:  IHMeth= 1 ICntrl=     0 DoSepK=T KAlg= 1 I1Cent= 0 FoldK=F
 E= -115.674643343514     Delta-E=       -0.000008896013 Rises=F Damp=F
 DIIS: error= 2.30D-04 at cycle   4 NSaved=   4.
 NSaved= 4 IEnMin= 4 EnMin= -115.674643343514     IErMin= 4 ErrMin= 2.30D-04
 ErrMax= 2.30D-04 EMaxC= 1.00D-01 BMatC= 2.38D-06 BMatP= 1.29D-05
 IDIUse=3 WtCom= 9.98D-01 WtEn= 2.30D-03
 Coeff-Com: -0.201D-01 0.322D-01 0.327D+00 0.661D+00
 Coeff-En:   0.000D+00 0.000D+00 0.000D+00 0.100D+01
 Coeff:     -0.200D-01 0.321D-01 0.327D+00 0.661D+00
 Gap=     0.508 Goal=   None    Shift=    0.000
 RMSDP=3.14D-05 MaxDP=3.26D-04 DE=-8.90D-06 OVMax= 3.21D-04

 Cycle   5  Pass 0  IDiag  1:
 RMSU=  1.28D-05    CP:  1.00D+00  1.19D+00  1.02D+00  8.93D-01
 FoFJK:  IHMeth= 1 ICntrl=     0 DoSepK=T KAlg= 1 I1Cent= 0 FoldK=F
 E= -115.674645168991     Delta-E=       -0.000001825476 Rises=F Damp=F
 DIIS: error= 2.30D-05 at cycle   5 NSaved=   5.
 NSaved= 5 IEnMin= 5 EnMin= -115.674645168991     IErMin= 5 ErrMin= 2.30D-05
 ErrMax= 2.30D-05 EMaxC= 1.00D-01 BMatC= 1.62D-08 BMatP= 2.38D-06
 IDIUse=1 WtCom= 1.00D+00 WtEn= 0.00D+00
 Coeff-Com:  0.471D-02-0.194D-01-0.811D-01-0.101D+00 0.120D+01
 Coeff:      0.471D-02-0.194D-01-0.811D-01-0.101D+00 0.120D+01
 Gap=     0.508 Goal=   None    Shift=    0.000
 RMSDP=1.20D-05 MaxDP=9.05D-05 DE=-1.83D-06 OVMax= 1.49D-04

 Cycle   6  Pass 0  IDiag  1:
 RMSU=  1.84D-06    CP:  1.00D+00  1.20D+00  1.06D+00  9.79D-01  1.29D+00
 FoFJK:  IHMeth= 1 ICntrl=     0 DoSepK=T KAlg= 1 I1Cent= 0 FoldK=F
 E= -115.674645217046     Delta-E=       -0.000000048055 Rises=F Damp=F
 DIIS: error= 3.14D-06 at cycle   6 NSaved=   6.
 NSaved= 6 IEnMin= 6 EnMin= -115.674645217046     IErMin= 6 ErrMin= 3.14D-06
 ErrMax= 3.14D-06 EMaxC= 1.00D-01 BMatC= 4.29D-10 BMatP= 1.62D-08
 IDIUse=1 WtCom= 1.00D+00 WtEn= 0.00D+00
 Coeff-Com:  0.674D-03-0.173D-02-0.109D-01-0.165D-01 0.827D-01 0.946D+00
 Coeff:      0.674D-03-0.173D-02-0.109D-01-0.165D-01 0.827D-01 0.946D+00
 Gap=     0.508 Goal=   None    Shift=    0.000
 RMSDP=1.36D-06 MaxDP=7.44D-06 DE=-4.81D-08 OVMax= 1.63D-05

 Initial convergence to 1.0D-05 achieved.  Increase integral accuracy.
 Cycle   7  Pass 1  IDiag  1:
 FoFJK:  IHMeth= 1 ICntrl=     0 DoSepK=T KAlg= 1 I1Cent= 0 FoldK=F
 E= -115.674363810815     Delta-E=        0.000281406231 Rises=F Damp=F
 DIIS: error= 1.34D-04 at cycle   1 NSaved=   1.
 NSaved= 1 IEnMin= 1 EnMin= -115.674363810815     IErMin= 1 ErrMin= 1.34D-04
 ErrMax= 1.34D-04 EMaxC= 1.00D-01 BMatC= 9.20D-07 BMatP= 9.20D-07
 IDIUse=3 WtCom= 9.99D-01 WtEn= 1.34D-03
 Coeff-Com:  0.100D+01
 Coeff-En:   0.100D+01
 Coeff:      0.100D+01
 Gap=     0.508 Goal=   None    Shift=    0.000
 RMSDP=1.36D-06 MaxDP=7.44D-06 DE= 2.81D-04 OVMax= 2.65D-04

 Cycle   8  Pass 1  IDiag  1:
 RMSU=  1.68D-05    CP:  1.00D+00
 FoFJK:  IHMeth= 1 ICntrl=     0 DoSepK=T KAlg= 1 I1Cent= 0 FoldK=F
 E= -115.674364641105     Delta-E=       -0.000000830289 Rises=F Damp=F
 DIIS: error= 3.74D-05 at cycle   2 NSaved=   2.
 NSaved= 2 IEnMin= 2 EnMin= -115.674364641105     IErMin= 2 ErrMin= 3.74D-05
 ErrMax= 3.74D-05 EMaxC= 1.00D-01 BMatC= 5.58D-08 BMatP= 9.20D-07
 IDIUse=1 WtCom= 1.00D+00 WtEn= 0.00D+00
 Coeff-Com:  0.212D-01 0.979D+00
 Coeff:      0.212D-01 0.979D+00
 Gap=     0.508 Goal=   None    Shift=    0.000
 RMSDP=8.51D-06 MaxDP=9.83D-05 DE=-8.30D-07 OVMax= 8.92D-05

 Cycle   9  Pass 1  IDiag  1:
 RMSU=  6.02D-06    CP:  1.00D+00  9.97D-01
 FoFJK:  IHMeth= 1 ICntrl=     0 DoSepK=T KAlg= 1 I1Cent= 0 FoldK=F
 E= -115.674364660769     Delta-E=       -0.000000019664 Rises=F Damp=F
 DIIS: error= 3.19D-05 at cycle   3 NSaved=   3.
 NSaved= 3 IEnMin= 3 EnMin= -115.674364660769     IErMin= 3 ErrMin= 3.19D-05
 ErrMax= 3.19D-05 EMaxC= 1.00D-01 BMatC= 4.76D-08 BMatP= 5.58D-08
 IDIUse=1 WtCom= 1.00D+00 WtEn= 0.00D+00
 Coeff-Com: -0.481D-01 0.497D+00 0.551D+00
 Coeff:     -0.481D-01 0.497D+00 0.551D+00
 Gap=     0.508 Goal=   None    Shift=    0.000
 RMSDP=3.42D-06 MaxDP=4.65D-05 DE=-1.97D-08 OVMax= 3.83D-05

 Cycle  10  Pass 1  IDiag  1:
 RMSU=  1.11D-06    CP:  1.00D+00  1.05D+00  6.80D-01
 FoFJK:  IHMeth= 1 ICntrl=     0 DoSepK=T KAlg= 1 I1Cent= 0 FoldK=F
 E= -115.674364693536     Delta-E=       -0.000000032767 Rises=F Damp=F
 DIIS: error= 3.95D-06 at cycle   4 NSaved=   4.
 NSaved= 4 IEnMin= 4 EnMin= -115.674364693536     IErMin= 4 ErrMin= 3.95D-06
 ErrMax= 3.95D-06 EMaxC= 1.00D-01 BMatC= 2.51D-10 BMatP= 4.76D-08
 IDIUse=1 WtCom= 1.00D+00 WtEn= 0.00D+00
 Coeff-Com: -0.424D-02 0.942D-02 0.406D-01 0.954D+00
 Coeff:     -0.424D-02 0.942D-02 0.406D-01 0.954D+00
 Gap=     0.508 Goal=   None    Shift=    0.000
 RMSDP=5.73D-07 MaxDP=7.73D-06 DE=-3.28D-08 OVMax= 8.89D-06

 Cycle  11  Pass 1  IDiag  1:
 RMSU=  3.32D-07    CP:  1.00D+00  1.06D+00  7.10D-01  1.12D+00
 FoFJK:  IHMeth= 1 ICntrl=     0 DoSepK=T KAlg= 1 I1Cent= 0 FoldK=F
 E= -115.674364693845     Delta-E=       -0.000000000310 Rises=F Damp=F
 DIIS: error= 1.07D-06 at cycle   5 NSaved=   5.
 NSaved= 5 IEnMin= 5 EnMin= -115.674364693845     IErMin= 5 ErrMin= 1.07D-06
 ErrMax= 1.07D-06 EMaxC= 1.00D-01 BMatC= 6.75D-11 BMatP= 2.51D-10
 IDIUse=1 WtCom= 1.00D+00 WtEn= 0.00D+00
 Coeff-Com:  0.148D-02-0.346D-01-0.287D-01 0.332D+00 0.730D+00
 Coeff:      0.148D-02-0.346D-01-0.287D-01 0.332D+00 0.730D+00
 Gap=     0.508 Goal=   None    Shift=    0.000
 RMSDP=2.03D-07 MaxDP=2.41D-06 DE=-3.10D-10 OVMax= 3.77D-06

 Cycle  12  Pass 1  IDiag  1:
 RMSU=  7.57D-08    CP:  1.00D+00  1.06D+00  7.19D-01  1.20D+00  8.19D-01
 FoFJK:  IHMeth= 1 ICntrl=     0 DoSepK=T KAlg= 1 I1Cent= 0 FoldK=F
 E= -115.674364693913     Delta-E=       -0.000000000068 Rises=F Damp=F
 DIIS: error= 2.68D-07 at cycle   6 NSaved=   6.
 NSaved= 6 IEnMin= 6 EnMin= -115.674364693913     IErMin= 6 ErrMin= 2.68D-07
 ErrMax= 2.68D-07 EMaxC= 1.00D-01 BMatC= 1.39D-12 BMatP= 6.75D-11
 IDIUse=1 WtCom= 1.00D+00 WtEn= 0.00D+00
 Coeff-Com:  0.609D-03-0.703D-02-0.721D-02-0.110D-02 0.114D+00 0.901D+00
 Coeff:      0.609D-03-0.703D-02-0.721D-02-0.110D-02 0.114D+00 0.901D+00
 Gap=     0.508 Goal=   None    Shift=    0.000
 RMSDP=4.70D-08 MaxDP=4.46D-07 DE=-6.80D-11 OVMax= 6.14D-07

 Cycle  13  Pass 1  IDiag  1:
 RMSU=  1.73D-08    CP:  1.00D+00  1.06D+00  7.21D-01  1.21D+00  8.77D-01
                    CP:  1.10D+00
 FoFJK:  IHMeth= 1 ICntrl=     0 DoSepK=T KAlg= 1 I1Cent= 0 FoldK=F
 E= -115.674364693915     Delta-E=       -0.000000000002 Rises=F Damp=F
 DIIS: error= 2.40D-08 at cycle   7 NSaved=   7.
 NSaved= 7 IEnMin= 7 EnMin= -115.674364693915     IErMin= 7 ErrMin= 2.40D-08
 ErrMax= 2.40D-08 EMaxC= 1.00D-01 BMatC= 3.07D-14 BMatP= 1.39D-12
 IDIUse=1 WtCom= 1.00D+00 WtEn= 0.00D+00
 Coeff-Com: -0.427D-04 0.116D-02 0.102D-02-0.123D-01-0.265D-01 0.234D-01
 Coeff-Com:  0.101D+01
 Coeff:     -0.427D-04 0.116D-02 0.102D-02-0.123D-01-0.265D-01 0.234D-01
 Coeff:      0.101D+01
 Gap=     0.508 Goal=   None    Shift=    0.000
 RMSDP=1.32D-08 MaxDP=8.50D-08 DE=-2.05D-12 OVMax= 1.85D-07

 Cycle  14  Pass 1  IDiag  1:
 RMSU=  3.73D-09    CP:  1.00D+00  1.06D+00  7.22D-01  1.22D+00  8.86D-01
                    CP:  1.18D+00  1.23D+00
 FoFJK:  IHMeth= 1 ICntrl=     0 DoSepK=T KAlg= 1 I1Cent= 0 FoldK=F
 E= -115.674364693916     Delta-E=        0.000000000000 Rises=F Damp=F
 DIIS: error= 5.23D-09 at cycle   8 NSaved=   8.
 NSaved= 8 IEnMin= 8 EnMin= -115.674364693916     IErMin= 8 ErrMin= 5.23D-09
 ErrMax= 5.23D-09 EMaxC= 1.00D-01 BMatC= 1.33D-15 BMatP= 3.07D-14
 IDIUse=1 WtCom= 1.00D+00 WtEn= 0.00D+00
 Coeff-Com: -0.933D-05 0.599D-04 0.172D-05 0.151D-02-0.388D-03-0.307D-01
 Coeff-Com: -0.910D-01 0.112D+01
 Coeff:     -0.933D-05 0.599D-04 0.172D-05 0.151D-02-0.388D-03-0.307D-01
 Coeff:     -0.910D-01 0.112D+01
 Gap=     0.508 Goal=   None    Shift=    0.000
 RMSDP=3.52D-09 MaxDP=2.89D-08 DE=-3.98D-13 OVMax= 5.21D-08

 SCF Done:  E(RwB97XD) =  -115.674364694     A.U. after   14 cycles
             Convg  =    0.3517D-08             -V/T =  2.0083
 KE= 1.147182928571D+02 PE=-3.519635411236D+02 EE= 8.115293393280D+01
 Leave Link  502 at Fri Jan  8 13:43:35 2021, MaxMem=13421772800 cpu:      20.5
 (Enter /opt/g09gh/gaussian/g09/l701.exe)
 Compute integral first derivatives.
 ... and contract with generalized density number  0.
 R6Disp: Adding dispersion energy 1st derivatives to the gradient.
 Leave Link  701 at Fri Jan  8 13:43:35 2021, MaxMem=13421772800 cpu:       0.9
 (Enter /opt/g09gh/gaussian/g09/l702.exe)
 L702 exits ... SP integral derivatives will be done elsewhere.
 Leave Link  702 at Fri Jan  8 13:43:35 2021, MaxMem=13421772800 cpu:       0.3
 (Enter /opt/g09gh/gaussian/g09/l703.exe)
 Compute integral first derivatives, UseDBF=F ICtDFT=           0.
 Integral derivatives from FoFDir, PRISM(SPDF).
 Calling FoFJK, ICntrl=      2127 FMM=F ISym2X=0 I1Cent= 0 IOpClX= 0 NMat=1 NMatS=1 NMatT=0.
 FoFJK:  IHMeth= 1 ICntrl=  2127 DoSepK=T KAlg= 1 I1Cent= 0 FoldK=F
 FoFCou: FMM=F IPFlag=           0 FMFlag=      100000 FMFlg1=         800
         NFxFlg=           0 DoJE=F BraDBF=F KetDBF=F FulRan=T
         Omega=  0.000000  0.000000  1.000000  0.000000  0.000000 ICntrl=    2527 IOpCl=  0
         NMat0=    1 NMatS0=    1 NMatT0=    0 NMatD0=    1 NMtDS0=    0 NMtDT0=    0
         I1Cent=           0 NGrid=           0.
 Symmetry not used in FoFCou.
 Leave Link  703 at Fri Jan  8 13:43:35 2021, MaxMem=13421772800 cpu:       2.4
 (Enter /opt/g09gh/gaussian/g09/l716.exe)
 Dipole        = 3.21754998D-01 6.75540750D-01-9.15296187D-05
 ***** Axes restored to original set *****
 -------------------------------------------------------------------
 Center     Atomic                   Forces (Hartrees/Bohr)
 Number     Number              X              Y              Z
 -------------------------------------------------------------------
      1        8          -0.002003708    0.001096967   -0.000001839
      2        6          -0.002806809    0.007745239    0.000006731
      3        1           0.003268609   -0.003774927    0.002480355
      4        1           0.003269680   -0.003778809   -0.002481586
      5        1           0.001574434   -0.000379602   -0.000003558
      6        1          -0.003302206   -0.000908867   -0.000000103
 -------------------------------------------------------------------
 Cartesian Forces:  Max     0.007745239 RMS     0.002883412
 Leave Link  716 at Fri Jan  8 13:43:35 2021, MaxMem=13421772800 cpu:       0.3
 (Enter /opt/g09gh/gaussian/g09/l103.exe)

 GradGradGradGradGradGradGradGradGradGradGradGradGradGradGradGradGradGrad
 Berny optimization.
 Using GEDIIS/GDIIS optimizer.
 Internal  Forces:  Max     0.007368459 RMS     0.003290787
 Search for a local minimum.
 Step number   2 out of a maximum of    2
 All quantities printed in internal units (Hartrees-Bohrs-Radians)
 RMS Force = .29365D-02 SwitMx=.10000D-02 MixMth= 1
 Mixed Optimization -- RFO/linear search
 Update second derivatives using D2CorX and points    1    2
 DE= -1.52D-03 DEPred=-2.07D-03 R= 7.35D-01
 SS=  1.41D+00  RLast= 1.32D-01 DXNew= 5.0454D-01 3.9625D-01
 Trust test= 7.35D-01 RLast= 1.32D-01 DXMaxT set to 3.96D-01
 The second derivative matrix:
                          R1        R2        R3        R4        R5
           R1           0.41309
           R2           0.00183   0.54710
           R3           0.00633   0.00151   0.35174
           R4           0.00633   0.00151  -0.00766   0.35174
           R5           0.00200   0.00077  -0.00517  -0.00517   0.34844
           A1           0.03110   0.00340  -0.00039  -0.00039  -0.00272
           A2           0.01598   0.00210  -0.00346  -0.00346  -0.00338
           A3           0.01599   0.00210  -0.00346  -0.00346  -0.00338
           A4           0.00547   0.00058   0.00010   0.00010  -0.00038
           A5          -0.01559  -0.00203   0.00323   0.00323   0.00321
           A6          -0.01198  -0.00151   0.00203   0.00203   0.00219
           A7          -0.01197  -0.00151   0.00202   0.00202   0.00219
           D1           0.00146   0.00021  -0.00046  -0.00046  -0.00040
           D2          -0.00145  -0.00021   0.00046   0.00046   0.00039
           D3           0.00000   0.00000   0.00000   0.00000   0.00000
                          A1        A2        A3        A4        A5
           A1           0.19325
           A2           0.01400   0.16448
           A3           0.01402   0.00449   0.16449
           A4           0.00600   0.00260   0.00260   0.16108
           A5          -0.01380  -0.00450  -0.00450  -0.00256   0.16451
           A6          -0.01103  -0.00383  -0.00383  -0.00203   0.00382
           A7          -0.01103  -0.00383  -0.00384  -0.00203   0.00382
           D1           0.00114   0.00029   0.00029   0.00022  -0.00030
           D2          -0.00114  -0.00029  -0.00029  -0.00022   0.00030
           D3           0.00000   0.00000   0.00000   0.00000   0.00000
                          A6        A7        D1        D2        D3
           A6           0.16319
           A7           0.00319   0.16319
           D1          -0.00027  -0.00027   0.01105
           D2           0.00027   0.00027  -0.00001   0.01105
           D3           0.00000   0.00000   0.00000   0.00000   0.01104
 Use linear search instead of GDIIS.
     Eigenvalues ---    0.15643   0.16000   0.16000   0.20670   0.33926
     Eigenvalues ---    0.35369   0.35940   0.42354   0.547261000.00000
     Eigenvalues --- 1000.000001000.000001000.000001000.000001000.00000
 RFO step:  Lambda=-1.27254090D-04 EMin= 1.56427410D-01
 Quartic linear search produced a step of -0.20809.
 Iteration  1 RMS(Cart)=  0.01513945 RMS(Int)=  0.00010231
 Iteration  2 RMS(Cart)=  0.00008136 RMS(Int)=  0.00002088
 Iteration  3 RMS(Cart)=  0.00000000 RMS(Int)=  0.00002088
 Iteration  1 RMS(Cart)=  0.00000575 RMS(Int)=  0.00000772
 Iteration  2 RMS(Cart)=  0.00000343 RMS(Int)=  0.00000860
 Iteration  3 RMS(Cart)=  0.00000204 RMS(Int)=  0.00000981
 Iteration  4 RMS(Cart)=  0.00000122 RMS(Int)=  0.00001070
 Iteration  5 RMS(Cart)=  0.00000073 RMS(Int)=  0.00001127
 Variable       Old X    -DE/DX   Delta X   Delta X   Delta X     New X
                                 (Linear)    (Quad)   (Total)
    R1        2.66997   0.00524   0.01240  -0.00432   0.00809   2.67806
    R2        1.81446   0.00050   0.00135  -0.00089   0.00046   1.81492
    R3        2.06862   0.00074  -0.00559   0.00839   0.00280   2.07142
    R4        2.06863   0.00074  -0.00559   0.00839   0.00280   2.07142
    R5        2.07590   0.00003  -0.00457   0.00562   0.00104   2.07694
    A1        1.86736   0.00611   0.02080   0.00364   0.02444   1.89181
    A2        1.91190   0.00181   0.00346   0.00995   0.01337   1.92527
    A3        1.91188   0.00181   0.00348   0.00994   0.01337   1.92525
    A4        1.94400   0.00349   0.00402   0.00124   0.00526   1.94926
    A5        1.95469  -0.00737  -0.00371  -0.01046  -0.01426   1.94044
    A6        1.87062   0.00008  -0.00385  -0.00573  -0.00958   1.86104
    A7        1.87056   0.00009  -0.00386  -0.00573  -0.00958   1.86099
    D1       -2.06639  -0.00341   0.00000   0.00000   0.00000  -2.06639
    D2        2.06635   0.00341   0.00000   0.00000   0.00000   2.06634
    D3        0.00002   0.00000   0.00000   0.00000   0.00000   0.00002
         Item               Value     Threshold  Converged?
 Maximum Force            0.006110     0.002500     NO 
 RMS     Force            0.002936     0.001667     NO 
 Maximum Displacement     0.042704     0.010000     NO 
 RMS     Displacement     0.015130     0.006667     NO 
 Predicted change in Energy=-1.897138D-04
 Optimization stopped.
    -- Number of steps exceeded,  NStep=   2
    -- Flag reset to prevent archiving.
                           ----------------------------
                           ! Non-Optimized Parameters !
                           ! (Angstroms and Degrees)  !
 --------------------------                            --------------------------
 ! Name  Definition              Value          Derivative Info.                !
 --------------------------------------------------------------------------------
 ! R1    R(1,2)                  1.4172         -DE/DX =    0.0052              !
 ! R2    R(1,6)                  0.9604         -DE/DX =    0.0005              !
 ! R3    R(2,3)                  1.0961         -DE/DX =    0.0007              !
 ! R4    R(2,4)                  1.0962         -DE/DX =    0.0007              !
 ! R5    R(2,5)                  1.0991         -DE/DX =    0.0                 !
 ! A1    A(2,1,6)              108.3925         -DE/DX =    0.0061              !
 ! A2    A(1,2,3)              110.3101         -DE/DX =    0.0018              !
 ! A3    A(1,2,4)              110.3089         -DE/DX =    0.0018              !
 ! A4    A(1,2,5)              111.6843         -DE/DX =    0.0035              !
 ! A5    A(3,2,4)              111.1788         -DE/DX =   -0.0074              !
 ! A6    A(3,2,5)              106.63           -DE/DX =    0.0001              !
 ! A7    A(4,2,5)              106.6266         -DE/DX =    0.0001              !
 ! D1    D(6,1,2,3)           -118.3953         -DE/DX =   -0.0034              !
 ! D2    D(6,1,2,4)            118.3927         -DE/DX =    0.0034              !
 ! D3    D(6,1,2,5)              0.0012         -DE/DX =    0.0                 !
 --------------------------------------------------------------------------------
 GradGradGradGradGradGradGradGradGradGradGradGradGradGradGradGradGradGrad

 Largest change from initial coordinates is atom    6       0.106 Angstoms.
 Leave Link  103 at Fri Jan  8 13:43:35 2021, MaxMem=13421772800 cpu:       0.0
 (Enter /opt/g09gh/gaussian/g09/l202.exe)
                          Input orientation:                          
 ---------------------------------------------------------------------
 Center     Atomic      Atomic             Coordinates (Angstroms)
 Number     Number       Type             X           Y           Z
 ---------------------------------------------------------------------
      1          8           0       -0.740894   -0.145585    0.000034
      2          6           0        0.663323    0.010697   -0.000018
      3          1           0        1.081521   -0.436483   -0.907452
      4          1           0        1.081534   -0.436219    0.907544
      5          1           0        0.948238    1.071625   -0.000138
      6          1           0       -1.121341    0.735996   -0.000070
 ---------------------------------------------------------------------
                    Distance matrix (angstroms):
                    1          2          3          4          5
     1  O    0.000000
     2  C    1.412888   0.000000
     3  H    2.056538   1.094667   0.000000
     4  H    2.056523   1.094670   1.814996   0.000000
     5  H    2.082010   1.098518   1.765041   1.765007   0.000000
     6  H    0.960169   1.926417   2.655306   2.655279   2.096617
                    6
     6  H    0.000000
 Stoichiometry    CH4O
 Framework group  C1[X(CH4O)]
 Deg. of freedom    12
 Full point group                 C1      NOp   1
 Largest Abelian subgroup         C1      NOp   1
 Largest concise Abelian subgroup C1      NOp   1
                         Standard orientation:                         
 ---------------------------------------------------------------------
 Center     Atomic      Atomic             Coordinates (Angstroms)
 Number     Number       Type             X           Y           Z
 ---------------------------------------------------------------------
      1          8           0       -0.745412   -0.124139    0.000031
      2          6           0        0.661187    0.009019   -0.000020
      3          1           0        1.071970   -0.444982   -0.907455
      4          1           0        1.071988   -0.444719    0.907541
      5          1           0        0.963519    1.065114   -0.000141
      6          1           0       -1.111302    0.763583   -0.000072
 ---------------------------------------------------------------------
 Rotational constants (GHZ):    127.0140453     25.0196719     24.2292728
 Leave Link  202 at Fri Jan  8 13:43:35 2021, MaxMem=13421772800 cpu:       0.0
 (Enter /opt/g09gh/gaussian/g09/l601.exe)
 Copying SCF densities to generalized density rwf, IOpCl= 0 IROHF=0.

 **********************************************************************

            Population analysis using the SCF density.

 **********************************************************************

 Orbital symmetries:
       Occupied  (A) (A) (A) (A) (A) (A) (A) (A) (A)
       Virtual   (A) (A) (A) (A) (A) (A) (A) (A) (A) (A) (A) (A)
                 (A) (A) (A) (A) (A) (A) (A) (A) (A) (A) (A) (A)
                 (A) (A) (A) (A) (A)
 The electronic state is 1-A.
 Alpha  occ. eigenvalues --  -19.25962 -10.33269  -1.11389  -0.77362  -0.59206
 Alpha  occ. eigenvalues --   -0.52541  -0.50352  -0.41181  -0.34715
 Alpha virt. eigenvalues --    0.16048   0.22058   0.24814   0.26547   0.30612
 Alpha virt. eigenvalues --    0.63226   0.65192   0.66312   0.90844   0.94786
 Alpha virt. eigenvalues --    0.96003   1.00056   1.04139   1.06770   1.11073
 Alpha virt. eigenvalues --    1.23911   1.56212   1.57081   1.62062   1.84287
 Alpha virt. eigenvalues --    2.16405   2.22092   2.25773   2.39490   2.47363
 Alpha virt. eigenvalues --    2.60206   2.89363   3.81069   4.31892
          Condensed to atoms (all electrons):
              1          2          3          4          5          6
     1  O    8.247794   0.248424  -0.043953  -0.043955  -0.025417   0.251320
     2  C    0.248424   4.885566   0.383391   0.383391   0.375928  -0.029634
     3  H   -0.043953   0.383391   0.568531  -0.040718  -0.035952   0.004132
     4  H   -0.043955   0.383391  -0.040718   0.568540  -0.035956   0.004132
     5  H   -0.025417   0.375928  -0.035952  -0.035956   0.594124  -0.014479
     6  H    0.251320  -0.029634   0.004132   0.004132  -0.014479   0.374139
 Mulliken atomic charges:
              1
     1  O   -0.634214
     2  C   -0.247065
     3  H    0.164569
     4  H    0.164567
     5  H    0.141753
     6  H    0.410389
 Sum of Mulliken atomic charges =   0.00000
 Mulliken charges with hydrogens summed into heavy atoms:
              1
     1  O   -0.223824
     2  C    0.223824
 Sum of Mulliken charges with hydrogens summed into heavy atoms =   0.00000
 Electronic spatial extent (au):  <R**2>=             83.2583
 Charge=              0.0000 electrons
 Dipole moment (field-independent basis, Debye):
    X=              0.8178    Y=              1.7171    Z=             -0.0002  Tot=              1.9019
 Quadrupole moment (field-independent basis, Debye-Ang):
   XX=            -12.6505   YY=            -11.9887   ZZ=            -13.3097
   XY=             -2.1026   XZ=              0.0002   YZ=             -0.0001
 Traceless Quadrupole moment (field-independent basis, Debye-Ang):
   XX=             -0.0008   YY=              0.6609   ZZ=             -0.6601
   XY=             -2.1026   XZ=              0.0002   YZ=             -0.0001
 Octapole moment (field-independent basis, Debye-Ang**2):
  XXX=             -4.4477  YYY=              1.8547  ZZZ=              0.0001  XYY=             -2.0944
  XXY=              2.4512  XXZ=             -0.0002  XZZ=             -0.2811  YZZ=             -0.2656
  YYZ=             -0.0003  XYZ=              0.0002
 Hexadecapole moment (field-independent basis, Debye-Ang**3):
 XXXX=            -59.0436 YYYY=            -18.9706 ZZZZ=            -18.4011 XXXY=             -3.3250
 XXXZ=              0.0008 YYYX=             -1.4686 YYYZ=              0.0000 ZZZX=              0.0008
 ZZZY=              0.0002 XXYY=            -12.1740 XXZZ=            -13.1147 YYZZ=             -6.4771
 XXYZ=              0.0000 YYXZ=              0.0001 ZZXY=             -0.9284
 N-N= 4.041794963980D+01 E-N=-3.519635412286D+02  KE= 1.147182928571D+02
 No NMR shielding tensors so no spin-rotation constants.
 Leave Link  601 at Fri Jan  8 13:43:35 2021, MaxMem=13421772800 cpu:       0.9
 (Enter /opt/g09gh/gaussian/g09/l9999.exe)


 LAWS OF PROGRAMMING DEFINITION:  A WORKING PROGRAM
                                  IS ONE THAT HAS
                                  ONLY UNOBSERVED
                                  BUGS.
 Error termination request processed by link 9999.
 Error termination via Lnk1e in /opt/g09gh/gaussian/g09/l9999.exe at Fri Jan  8 13:43:36 2021.
 Job cpu time:  0 days  0 hours  1 minutes  0.2 seconds.
 File lengths (MBytes):  RWF=      5 Int=      0 D2E=      0 Chk=      1 Scr=      1
