 Entering Gaussian System, Link 0=/opt/g09gh/gaussian/g09/g09
 Input=methanol-opt-1_2-1-212.com
 Output=methanol-opt-1_2-1-212.log
 Initial command:
 /opt/g09gh/gaussian/g09/l1.exe /scratch/bdw2292/Gau-methanol/Gau-42011.inp -scrdir=/scratch/bdw2292/Gau-methanol/
 Entering Link 1 = /opt/g09gh/gaussian/g09/l1.exe PID=     42014.
  
 Copyright (c) 1988,1990,1992,1993,1995,1998,2003,2009, Gaussian, Inc.
                  All Rights Reserved.
  
 This is part of the Gaussian(R) 09 program.  It is based on
 the Gaussian(R) 03 system (copyright 2003, Gaussian, Inc.),
 the Gaussian(R) 98 system (copyright 1998, Gaussian, Inc.),
 the Gaussian(R) 94 system (copyright 1995, Gaussian, Inc.),
 the Gaussian 92(TM) system (copyright 1992, Gaussian, Inc.),
 the Gaussian 90(TM) system (copyright 1990, Gaussian, Inc.),
 the Gaussian 88(TM) system (copyright 1988, Gaussian, Inc.),
 the Gaussian 86(TM) system (copyright 1986, Carnegie Mellon
 University), and the Gaussian 82(TM) system (copyright 1983,
 Carnegie Mellon University). Gaussian is a federally registered
 trademark of Gaussian, Inc.
  
 This software contains proprietary and confidential information,
 including trade secrets, belonging to Gaussian, Inc.
  
 This software is provided under written license and may be
 used, copied, transmitted, or stored only in accord with that
 written license.
  
 The following legend is applicable only to US Government
 contracts under FAR:
  
                    RESTRICTED RIGHTS LEGEND
  
 Use, reproduction and disclosure by the US Government is
 subject to restrictions as set forth in subparagraphs (a)
 and (c) of the Commercial Computer Software - Restricted
 Rights clause in FAR 52.227-19.
  
 Gaussian, Inc.
 340 Quinnipiac St., Bldg. 40, Wallingford CT 06492
  
  
 ---------------------------------------------------------------
 Warning -- This program may not be used in any manner that
 competes with the business of Gaussian, Inc. or will provide
 assistance to any competitor of Gaussian, Inc.  The licensee
 of this program is prohibited from giving any competitor of
 Gaussian, Inc. access to this program.  By using this program,
 the user acknowledges that Gaussian, Inc. is engaged in the
 business of creating and licensing software in the field of
 computational chemistry and represents and warrants to the
 licensee that it is not a competitor of Gaussian, Inc. and that
 it will not use this program in any manner prohibited above.
 ---------------------------------------------------------------
  

 Cite this work as:
 Gaussian 09, Revision A.02,
 M. J. Frisch, G. W. Trucks, H. B. Schlegel, G. E. Scuseria, 
 M. A. Robb, J. R. Cheeseman, G. Scalmani, V. Barone, B. Mennucci, 
 G. A. Petersson, H. Nakatsuji, M. Caricato, X. Li, H. P. Hratchian, 
 A. F. Izmaylov, J. Bloino, G. Zheng, J. L. Sonnenberg, M. Hada, 
 M. Ehara, K. Toyota, R. Fukuda, J. Hasegawa, M. Ishida, T. Nakajima, 
 Y. Honda, O. Kitao, H. Nakai, T. Vreven, J. A. Montgomery, Jr., 
 J. E. Peralta, F. Ogliaro, M. Bearpark, J. J. Heyd, E. Brothers, 
 K. N. Kudin, V. N. Staroverov, R. Kobayashi, J. Normand, 
 K. Raghavachari, A. Rendell, J. C. Burant, S. S. Iyengar, J. Tomasi, 
 M. Cossi, N. Rega, J. M. Millam, M. Klene, J. E. Knox, J. B. Cross, 
 V. Bakken, C. Adamo, J. Jaramillo, R. Gomperts, R. E. Stratmann, 
 O. Yazyev, A. J. Austin, R. Cammi, C. Pomelli, J. W. Ochterski, 
 R. L. Martin, K. Morokuma, V. G. Zakrzewski, G. A. Voth, 
 P. Salvador, J. J. Dannenberg, S. Dapprich, A. D. Daniels, 
 O. Farkas, J. B. Foresman, J. V. Ortiz, J. Cioslowski, 
 and D. J. Fox, Gaussian, Inc., Wallingford CT, 2009.
 
 ******************************************
 Gaussian 09:  EM64L-G09RevA.02 11-Jun-2009
                 8-Jan-2021 
 ******************************************
 %RWF=/scratch/bdw2292/Gau-methanol/,200GB
 %Nosave
 %Chk=methanol-opt-1_2-1-212.chk
 %Mem=100GB
 %Nproc=8
 Will use up to    8 processors via shared memory.
 -------------------------------------------------------------
 #P opt=(ModRedundant,maxcycle=2,Loose) HF/3-21G MaxDisk=200GB
 -------------------------------------------------------------
 1/6=2,7=-1,18=120,19=15,38=1/1,3;
 2/9=110,12=2,17=6,18=5,40=1/2;
 3/5=5,11=9,16=1,25=1,30=1,71=1/1,2,3;
 4//1;
 5/5=2,38=5/2;
 6/7=2,8=2,9=2,10=2,28=1/1;
 7//1,2,3,16;
 1/6=2,7=-1,18=20,19=15/3(2);
 2/9=110/2;
 99//99;
 2/9=110/2;
 3/5=5,11=9,16=1,25=1,30=1,71=1/1,2,3;
 4/5=5,16=3/1;
 5/5=2,38=5/2;
 7//1,2,3,16;
 1/6=2,7=-1,18=20,19=15/3(-5);
 2/9=110/2;
 6/7=2,8=2,9=2,10=2,19=2,28=1/1;
 99/9=1/99;
 Leave Link    1 at Fri Jan  8 11:06:00 2021, MaxMem=13421772800 cpu:       0.5
 (Enter /opt/g09gh/gaussian/g09/l101.exe)
 -------------------------------------------------------------
 methanol Rotatable Bond Optimization on node37.bme.utexas.edu
 -------------------------------------------------------------
 Symbolic Z-matrix:
 Charge =  0 Multiplicity = 1
 O                     0.74912   0.10769   0.00222 
 C                    -0.66696  -0.01097  -0.00072 
 H                    -1.01745  -0.53875   0.89856 
 H                    -1.01664  -0.52247  -0.90994 
 H                    -1.13263   0.98666   0.00827 
 H                     0.98786   0.93215  -0.4505 
 
 NAtoms=      6 NQM=      6 NQMF=      0 NMic=      0 NMicF=      0 NTot=      6.
 The following ModRedundant input section has been read:
 D    6    1    2    3 F                                                       
 D    6    1    2    4 F                                                       
 D    6    1    2    5 F                                                       
                    Isotopes and Nuclear Properties:
 (Nuclear quadrupole moments (NQMom) in fm**2, nuclear magnetic moments (NMagM)
  in nuclear magnetons)

  Atom         1           2           3           4           5           6
 IAtWgt=          16          12           1           1           1           1
 AtmWgt=  15.9949146  12.0000000   1.0078250   1.0078250   1.0078250   1.0078250
 NucSpn=           0           0           1           1           1           1
 AtZEff=   0.0000000   0.0000000   0.0000000   0.0000000   0.0000000   0.0000000
 NQMom=    0.0000000   0.0000000   0.0000000   0.0000000   0.0000000   0.0000000
 NMagM=    0.0000000   0.0000000   2.7928460   2.7928460   2.7928460   2.7928460
 Leave Link  101 at Fri Jan  8 11:06:00 2021, MaxMem=13421772800 cpu:       1.0
 (Enter /opt/g09gh/gaussian/g09/l103.exe)

 GradGradGradGradGradGradGradGradGradGradGradGradGradGradGradGradGradGrad
 Berny optimization.
 Initialization pass.
                           ----------------------------
                           !    Initial Parameters    !
                           ! (Angstroms and Degrees)  !
 --------------------------                            --------------------------
 ! Name  Definition              Value          Derivative Info.                !
 --------------------------------------------------------------------------------
 ! R1    R(1,2)                  1.421          estimate D2E/DX2                !
 ! R2    R(1,6)                  0.9704         estimate D2E/DX2                !
 ! R3    R(2,3)                  1.1            estimate D2E/DX2                !
 ! R4    R(2,4)                  1.1003         estimate D2E/DX2                !
 ! R5    R(2,5)                  1.101          estimate D2E/DX2                !
 ! A1    A(2,1,6)              108.369          estimate D2E/DX2                !
 ! A2    A(1,2,3)              110.8467         estimate D2E/DX2                !
 ! A3    A(1,2,4)              110.9303         estimate D2E/DX2                !
 ! A4    A(1,2,5)              110.2306         estimate D2E/DX2                !
 ! A5    A(3,2,4)              110.5632         estimate D2E/DX2                !
 ! A6    A(3,2,5)              107.0559         estimate D2E/DX2                !
 ! A7    A(4,2,5)              107.0716         estimate D2E/DX2                !
 ! D1    D(6,1,2,3)           -148.3791         Frozen                          !
 ! D2    D(6,1,2,4)             88.3882         Frozen                          !
 ! D3    D(6,1,2,5)            -30.0314         Frozen                          !
 --------------------------------------------------------------------------------
 Trust Radius=3.00D-01 FncErr=1.00D-07 GrdErr=1.00D-07
 Number of steps in this run=   2 maximum allowed number of steps= 100.
 GradGradGradGradGradGradGradGradGradGradGradGradGradGradGradGradGradGrad

 Leave Link  103 at Fri Jan  8 11:06:00 2021, MaxMem=13421772800 cpu:       0.1
 (Enter /opt/g09gh/gaussian/g09/l202.exe)
                          Input orientation:                          
 ---------------------------------------------------------------------
 Center     Atomic      Atomic             Coordinates (Angstroms)
 Number     Number       Type             X           Y           Z
 ---------------------------------------------------------------------
      1          8           0        0.749119    0.107687    0.002221
      2          6           0       -0.666958   -0.010971   -0.000719
      3          1           0       -1.017446   -0.538752    0.898563
      4          1           0       -1.016639   -0.522474   -0.909937
      5          1           0       -1.132633    0.986662    0.008268
      6          1           0        0.987856    0.932149   -0.450497
 ---------------------------------------------------------------------
                    Distance matrix (angstroms):
                    1          2          3          4          5
     1  O    0.000000
     2  C    1.421043   0.000000
     3  H    2.083762   1.100047   0.000000
     4  H    2.084955   1.100268   1.808573   0.000000
     5  H    2.076927   1.101002   1.769966   1.770324   0.000000
     6  H    0.970405   1.957086   2.829266   2.518931   2.170233
                    6
     6  H    0.000000
 Stoichiometry    CH4O
 Framework group  C1[X(CH4O)]
 Deg. of freedom    12
 Full point group                 C1      NOp   1
 Largest Abelian subgroup         C1      NOp   1
 Largest concise Abelian subgroup C1      NOp   1
                         Standard orientation:                         
 ---------------------------------------------------------------------
 Center     Atomic      Atomic             Coordinates (Angstroms)
 Number     Number       Type             X           Y           Z
 ---------------------------------------------------------------------
      1          8           0       -0.749180   -0.128644    0.007054
      2          6           0        0.664837    0.012413    0.002655
      3          1           0        1.142717   -0.849511   -0.486039
      4          1           0        1.050340    0.139552    1.025305
      5          1           0        0.956267    0.908773   -0.566391
      6          1           0       -1.144907    0.755863   -0.045240
 ---------------------------------------------------------------------
 Rotational constants (GHZ):    126.8951146     24.6678663     23.8130053
 Leave Link  202 at Fri Jan  8 11:06:00 2021, MaxMem=13421772800 cpu:       0.0
 (Enter /opt/g09gh/gaussian/g09/l301.exe)
 Standard basis: 3-21G (6D, 7F)
 Ernie: Thresh=  0.10000D-02 Tol=  0.10000D-05 Strict=F.
 There are    26 symmetry adapted basis functions of A   symmetry.
 Integral buffers will be    131072 words long.
 Raffenetti 1 integral format.
 Two-electron integral symmetry is turned on.
    26 basis functions,    42 primitive gaussians,    26 cartesian basis functions
     9 alpha electrons        9 beta electrons
       nuclear repulsion energy        40.1470607764 Hartrees.
 IExCor=    0 DFT=F Ex=HF Corr=None ExCW=0 ScaHFX=  1.000000
 ScaDFX=  1.000000  1.000000  1.000000  1.000000 ScalE2=  1.000000  1.000000
 IRadAn=      0 IRanWt=     -1 IRanGd=            0 ICorTp=0
 NAtoms=    6 NActive=    6 NUniq=    6 SFac= 7.50D-01 NAtFMM=   80 NAOKFM=F Big=F
 Leave Link  301 at Fri Jan  8 11:06:00 2021, MaxMem=13421772800 cpu:       0.5
 (Enter /opt/g09gh/gaussian/g09/l302.exe)
 NPDir=0 NMtPBC=     1 NCelOv=     1 NCel=       1 NClECP=     1 NCelD=      1
         NCelK=      1 NCelE2=     1 NClLst=     1 CellRange=     0.0.
 One-electron integrals computed using PRISM.
 NBasis=    26 RedAO= T  NBF=    26
 NBsUse=    26 1.00D-06 NBFU=    26
 Leave Link  302 at Fri Jan  8 11:06:00 2021, MaxMem=13421772800 cpu:       0.9
 (Enter /opt/g09gh/gaussian/g09/l303.exe)
 DipDrv:  MaxL=1.
 Leave Link  303 at Fri Jan  8 11:06:00 2021, MaxMem=13421772800 cpu:       0.3
 (Enter /opt/g09gh/gaussian/g09/l401.exe)
 Harris functional with IExCor=  205 diagonalized for initial guess.
 ExpMin= 1.83D-01 ExpMax= 3.22D+02 ExpMxC= 3.22D+02 IAcc=1 IRadAn=         1 AccDes= 0.00D+00
 HarFok:  IExCor=  205 AccDes= 0.00D+00 IRadAn=         1 IDoV= 1
 ScaDFX=  1.000000  1.000000  1.000000  1.000000
 FoFCou: FMM=F IPFlag=           0 FMFlag=      100000 FMFlg1=           0
         NFxFlg=           0 DoJE=T BraDBF=F KetDBF=T FulRan=T
         Omega=  0.000000  0.000000  1.000000  0.000000  0.000000 ICntrl=     500 IOpCl=  0
         NMat0=    1 NMatS0=    1 NMatT0=    0 NMatD0=    1 NMtDS0=    0 NMtDT0=    0
         I1Cent=           4 NGrid=           0.
 Petite list used in FoFCou.
 Harris En= -114.570479805835    
 Initial guess orbital symmetries:
       Occupied  (A) (A) (A) (A) (A) (A) (A) (A) (A)
       Virtual   (A) (A) (A) (A) (A) (A) (A) (A) (A) (A) (A) (A)
                 (A) (A) (A) (A) (A)
 The electronic state of the initial guess is 1-A.
 Leave Link  401 at Fri Jan  8 11:06:00 2021, MaxMem=13421772800 cpu:       1.2
 (Enter /opt/g09gh/gaussian/g09/l502.exe)
 Closed shell SCF:
 Requested convergence on RMS density matrix=1.00D-08 within 128 cycles.
 Requested convergence on MAX density matrix=1.00D-06.
 Requested convergence on             energy=1.00D-06.
 No special actions if energy rises.
 Using DIIS extrapolation, IDIIS=  1040.
 Integral symmetry usage will be decided dynamically.
 Keep R1 ints in memory in canonical form, NReq=882380.
 IEnd=       20590 IEndB=       20590 NGot= 13421772800 MDV= 13421707749
 LenX= 13421707749 LenY= 13421706632
 Symmetry not used in FoFDir.
 MinBra= 0 MaxBra= 1 Meth= 1.
 IRaf=       0 NMat=   1 IRICut=       1 DoRegI=T DoRafI=F ISym2E= 0 JSym2E=0.

 Cycle   1  Pass 1  IDiag  1:
 E= -114.309540960259    
 DIIS: error= 4.56D-02 at cycle   1 NSaved=   1.
 NSaved= 1 IEnMin= 1 EnMin= -114.309540960259     IErMin= 1 ErrMin= 4.56D-02
 ErrMax= 4.56D-02 EMaxC= 1.00D-01 BMatC= 1.28D-01 BMatP= 1.28D-01
 IDIUse=3 WtCom= 5.44D-01 WtEn= 4.56D-01
 Coeff-Com:  0.100D+01
 Coeff-En:   0.100D+01
 Coeff:      0.100D+01
 Gap=     0.660 Goal=   None    Shift=    0.000
 GapD=    0.660 DampG=2.000 DampE=0.500 DampFc=1.0000 IDamp=-1.
 RMSDP=1.17D-02 MaxDP=6.44D-02              OVMax= 8.67D-02

 Cycle   2  Pass 1  IDiag  1:
 E= -114.381823166777     Delta-E=       -0.072282206517 Rises=F Damp=F
 DIIS: error= 2.56D-02 at cycle   2 NSaved=   2.
 NSaved= 2 IEnMin= 2 EnMin= -114.381823166777     IErMin= 2 ErrMin= 2.56D-02
 ErrMax= 2.56D-02 EMaxC= 1.00D-01 BMatC= 2.01D-02 BMatP= 1.28D-01
 IDIUse=3 WtCom= 7.44D-01 WtEn= 2.56D-01
 Coeff-Com:  0.243D+00 0.757D+00
 Coeff-En:   0.000D+00 0.100D+01
 Coeff:      0.180D+00 0.820D+00
 Gap=     0.704 Goal=   None    Shift=    0.000
 RMSDP=4.09D-03 MaxDP=2.53D-02 DE=-7.23D-02 OVMax= 2.26D-02

 Cycle   3  Pass 1  IDiag  1:
 E= -114.394249421549     Delta-E=       -0.012426254772 Rises=F Damp=F
 DIIS: error= 6.14D-03 at cycle   3 NSaved=   3.
 NSaved= 3 IEnMin= 3 EnMin= -114.394249421549     IErMin= 3 ErrMin= 6.14D-03
 ErrMax= 6.14D-03 EMaxC= 1.00D-01 BMatC= 8.58D-04 BMatP= 2.01D-02
 IDIUse=3 WtCom= 9.39D-01 WtEn= 6.14D-02
 Coeff-Com: -0.159D-01 0.135D+00 0.881D+00
 Coeff-En:   0.000D+00 0.000D+00 0.100D+01
 Coeff:     -0.150D-01 0.127D+00 0.888D+00
 Gap=     0.686 Goal=   None    Shift=    0.000
 RMSDP=7.55D-04 MaxDP=5.69D-03 DE=-1.24D-02 OVMax= 6.56D-03

 Cycle   4  Pass 1  IDiag  1:
 E= -114.394839338552     Delta-E=       -0.000589917003 Rises=F Damp=F
 DIIS: error= 1.40D-03 at cycle   4 NSaved=   4.
 NSaved= 4 IEnMin= 4 EnMin= -114.394839338552     IErMin= 4 ErrMin= 1.40D-03
 ErrMax= 1.40D-03 EMaxC= 1.00D-01 BMatC= 3.70D-05 BMatP= 8.58D-04
 IDIUse=3 WtCom= 9.86D-01 WtEn= 1.40D-02
 Coeff-Com: -0.780D-02 0.934D-02 0.218D+00 0.780D+00
 Coeff-En:   0.000D+00 0.000D+00 0.000D+00 0.100D+01
 Coeff:     -0.769D-02 0.921D-02 0.215D+00 0.783D+00
 Gap=     0.687 Goal=   None    Shift=    0.000
 RMSDP=1.77D-04 MaxDP=1.06D-03 DE=-5.90D-04 OVMax= 1.28D-03

 Cycle   5  Pass 1  IDiag  1:
 E= -114.394868832911     Delta-E=       -0.000029494359 Rises=F Damp=F
 DIIS: error= 2.59D-04 at cycle   5 NSaved=   5.
 NSaved= 5 IEnMin= 5 EnMin= -114.394868832911     IErMin= 5 ErrMin= 2.59D-04
 ErrMax= 2.59D-04 EMaxC= 1.00D-01 BMatC= 1.32D-06 BMatP= 3.70D-05
 IDIUse=3 WtCom= 9.97D-01 WtEn= 2.59D-03
 Coeff-Com:  0.267D-02-0.143D-01-0.106D+00-0.135D+00 0.125D+01
 Coeff-En:   0.000D+00 0.000D+00 0.000D+00 0.000D+00 0.100D+01
 Coeff:      0.266D-02-0.143D-01-0.106D+00-0.135D+00 0.125D+01
 Gap=     0.688 Goal=   None    Shift=    0.000
 RMSDP=7.83D-05 MaxDP=3.76D-04 DE=-2.95D-05 OVMax= 5.54D-04

 Cycle   6  Pass 1  IDiag  1:
 E= -114.394871118466     Delta-E=       -0.000002285555 Rises=F Damp=F
 DIIS: error= 4.19D-05 at cycle   6 NSaved=   6.
 NSaved= 6 IEnMin= 6 EnMin= -114.394871118466     IErMin= 6 ErrMin= 4.19D-05
 ErrMax= 4.19D-05 EMaxC= 1.00D-01 BMatC= 1.57D-08 BMatP= 1.32D-06
 IDIUse=1 WtCom= 1.00D+00 WtEn= 0.00D+00
 Coeff-Com: -0.682D-03 0.419D-02 0.298D-01 0.226D-01-0.378D+00 0.132D+01
 Coeff:     -0.682D-03 0.419D-02 0.298D-01 0.226D-01-0.378D+00 0.132D+01
 Gap=     0.688 Goal=   None    Shift=    0.000
 RMSDP=1.18D-05 MaxDP=7.01D-05 DE=-2.29D-06 OVMax= 7.26D-05

 Cycle   7  Pass 1  IDiag  1:
 E= -114.394871150982     Delta-E=       -0.000000032516 Rises=F Damp=F
 DIIS: error= 2.69D-06 at cycle   7 NSaved=   7.
 NSaved= 7 IEnMin= 7 EnMin= -114.394871150982     IErMin= 7 ErrMin= 2.69D-06
 ErrMax= 2.69D-06 EMaxC= 1.00D-01 BMatC= 2.53D-10 BMatP= 1.57D-08
 IDIUse=1 WtCom= 1.00D+00 WtEn= 0.00D+00
 Coeff-Com:  0.149D-03-0.939D-03-0.680D-02-0.443D-02 0.886D-01-0.387D+00
 Coeff-Com:  0.131D+01
 Coeff:      0.149D-03-0.939D-03-0.680D-02-0.443D-02 0.886D-01-0.387D+00
 Coeff:      0.131D+01
 Gap=     0.688 Goal=   None    Shift=    0.000
 RMSDP=1.77D-06 MaxDP=9.50D-06 DE=-3.25D-08 OVMax= 1.51D-05

 Cycle   8  Pass 1  IDiag  1:
 E= -114.394871151662     Delta-E=       -0.000000000680 Rises=F Damp=F
 DIIS: error= 5.66D-07 at cycle   8 NSaved=   8.
 NSaved= 8 IEnMin= 8 EnMin= -114.394871151662     IErMin= 8 ErrMin= 5.66D-07
 ErrMax= 5.66D-07 EMaxC= 1.00D-01 BMatC= 9.99D-12 BMatP= 2.53D-10
 IDIUse=1 WtCom= 1.00D+00 WtEn= 0.00D+00
 Coeff-Com: -0.237D-04 0.151D-03 0.112D-02 0.316D-03-0.142D-01 0.749D-01
 Coeff-Com: -0.376D+00 0.131D+01
 Coeff:     -0.237D-04 0.151D-03 0.112D-02 0.316D-03-0.142D-01 0.749D-01
 Coeff:     -0.376D+00 0.131D+01
 Gap=     0.688 Goal=   None    Shift=    0.000
 RMSDP=2.95D-07 MaxDP=1.32D-06 DE=-6.80D-10 OVMax= 3.13D-06

 Cycle   9  Pass 1  IDiag  1:
 E= -114.394871151686     Delta-E=       -0.000000000024 Rises=F Damp=F
 DIIS: error= 1.69D-07 at cycle   9 NSaved=   9.
 NSaved= 9 IEnMin= 9 EnMin= -114.394871151686     IErMin= 9 ErrMin= 1.69D-07
 ErrMax= 1.69D-07 EMaxC= 1.00D-01 BMatC= 3.65D-13 BMatP= 9.99D-12
 IDIUse=1 WtCom= 1.00D+00 WtEn= 0.00D+00
 Coeff-Com:  0.577D-05-0.376D-04-0.278D-03 0.627D-05 0.342D-02-0.203D-01
 Coeff-Com:  0.122D+00-0.592D+00 0.149D+01
 Coeff:      0.577D-05-0.376D-04-0.278D-03 0.627D-05 0.342D-02-0.203D-01
 Coeff:      0.122D+00-0.592D+00 0.149D+01
 Gap=     0.688 Goal=   None    Shift=    0.000
 RMSDP=7.44D-08 MaxDP=6.62D-07 DE=-2.42D-11 OVMax= 8.29D-07

 Cycle  10  Pass 1  IDiag  1:
 E= -114.394871151688     Delta-E=       -0.000000000001 Rises=F Damp=F
 DIIS: error= 1.78D-08 at cycle  10 NSaved=  10.
 NSaved=10 IEnMin=10 EnMin= -114.394871151688     IErMin=10 ErrMin= 1.78D-08
 ErrMax= 1.78D-08 EMaxC= 1.00D-01 BMatC= 8.46D-15 BMatP= 3.65D-13
 IDIUse=1 WtCom= 1.00D+00 WtEn= 0.00D+00
 Coeff-Com: -0.105D-05 0.680D-05 0.521D-04-0.157D-04-0.631D-03 0.419D-02
 Coeff-Com: -0.278D-01 0.149D+00-0.475D+00 0.135D+01
 Coeff:     -0.105D-05 0.680D-05 0.521D-04-0.157D-04-0.631D-03 0.419D-02
 Coeff:     -0.278D-01 0.149D+00-0.475D+00 0.135D+01
 Gap=     0.688 Goal=   None    Shift=    0.000
 RMSDP=9.26D-09 MaxDP=6.90D-08 DE=-1.48D-12 OVMax= 8.49D-08

 SCF Done:  E(RHF) =  -114.394871152     A.U. after   10 cycles
             Convg  =    0.9255D-08             -V/T =  2.0030
 KE= 1.140502981291D+02 PE=-3.497442443374D+02 EE= 8.115201428018D+01
 Leave Link  502 at Fri Jan  8 11:06:00 2021, MaxMem=13421772800 cpu:       0.6
 (Enter /opt/g09gh/gaussian/g09/l601.exe)
 Copying SCF densities to generalized density rwf, IOpCl= 0 IROHF=0.

 **********************************************************************

            Population analysis using the SCF density.

 **********************************************************************

 Orbital symmetries:
       Occupied  (A) (A) (A) (A) (A) (A) (A) (A) (A)
       Virtual   (A) (A) (A) (A) (A) (A) (A) (A) (A) (A) (A) (A)
                 (A) (A) (A) (A) (A)
 The electronic state is 1-A.
 Alpha  occ. eigenvalues --  -20.43722 -11.21726  -1.34349  -0.91982  -0.67079
 Alpha  occ. eigenvalues --   -0.61518  -0.58161  -0.47802  -0.43157
 Alpha virt. eigenvalues --    0.25611   0.30839   0.34887   0.35282   0.43303
 Alpha virt. eigenvalues --    0.95608   0.96744   0.97563   1.24348   1.28935
 Alpha virt. eigenvalues --    1.30577   1.34037   1.87760   1.88340   1.97891
 Alpha virt. eigenvalues --    2.14348   3.34517
          Condensed to atoms (all electrons):
              1          2          3          4          5          6
     1  O    8.282333   0.225751  -0.028325  -0.037700  -0.031602   0.269872
     2  C    0.225751   4.997129   0.367369   0.354767   0.354922  -0.051132
     3  H   -0.028325   0.367369   0.518662  -0.036794  -0.032176   0.004335
     4  H   -0.037700   0.354767  -0.036794   0.580377  -0.042026   0.001024
     5  H   -0.031602   0.354922  -0.032176  -0.042026   0.593834  -0.008851
     6  H    0.269872  -0.051132   0.004335   0.001024  -0.008851   0.408798
 Mulliken atomic charges:
              1
     1  O   -0.680330
     2  C   -0.248805
     3  H    0.206929
     4  H    0.180352
     5  H    0.165899
     6  H    0.375955
 Sum of Mulliken atomic charges =   0.00000
 Mulliken charges with hydrogens summed into heavy atoms:
              1
     1  O   -0.304375
     2  C    0.304375
 Sum of Mulliken charges with hydrogens summed into heavy atoms =   0.00000
 Electronic spatial extent (au):  <R**2>=             84.4081
 Charge=              0.0000 electrons
 Dipole moment (field-independent basis, Debye):
    X=              1.1095    Y=              1.8893    Z=             -0.1782  Tot=              2.1982
 Quadrupole moment (field-independent basis, Debye-Ang):
   XX=            -12.6623   YY=            -12.1689   ZZ=            -13.4875
   XY=             -2.4613   XZ=              0.0392   YZ=              0.0405
 Traceless Quadrupole moment (field-independent basis, Debye-Ang):
   XX=              0.1106   YY=              0.6040   ZZ=             -0.7146
   XY=             -2.4613   XZ=              0.0392   YZ=              0.0405
 Octapole moment (field-independent basis, Debye-Ang**2):
  XXX=             -4.5194  YYY=              1.0331  ZZZ=              0.3147  XYY=             -2.0614
  XXY=              2.3735  XXZ=             -0.3075  XZZ=             -0.7370  YZZ=              0.2040
  YYZ=             -0.5483  XYZ=              0.2889
 Hexadecapole moment (field-independent basis, Debye-Ang**3):
 XXXX=            -58.9727 YYYY=            -18.7189 ZZZZ=            -18.0452 XXXY=             -3.8002
 XXXZ=             -0.0485 YYYX=             -2.2064 YYYZ=             -0.0014 ZZZX=              0.4725
 ZZZY=              0.1546 XXYY=            -11.8432 XXZZ=            -13.1069 YYZZ=             -6.2118
 XXYZ=              0.2361 YYXZ=             -0.5261 ZZXY=             -0.3159
 N-N= 4.014706077635D+01 E-N=-3.497442444276D+02  KE= 1.140502981291D+02
 No NMR shielding tensors so no spin-rotation constants.
 Leave Link  601 at Fri Jan  8 11:06:01 2021, MaxMem=13421772800 cpu:       0.8
 (Enter /opt/g09gh/gaussian/g09/l701.exe)
 Compute integral first derivatives.
 ... and contract with generalized density number  0.
 Leave Link  701 at Fri Jan  8 11:06:01 2021, MaxMem=13421772800 cpu:       0.8
 (Enter /opt/g09gh/gaussian/g09/l702.exe)
 L702 exits ... SP integral derivatives will be done elsewhere.
 Leave Link  702 at Fri Jan  8 11:06:01 2021, MaxMem=13421772800 cpu:       0.3
 (Enter /opt/g09gh/gaussian/g09/l703.exe)
 Compute integral first derivatives, UseDBF=F ICtDFT=           0.
 Integral derivatives from FoFDir, PRISM(SPDF).
 Calling FoFJK, ICntrl=      2127 FMM=F ISym2X=0 I1Cent= 0 IOpClX= 0 NMat=1 NMatS=1 NMatT=0.
 FoFCou: FMM=F IPFlag=           0 FMFlag=      100000 FMFlg1=         800
         NFxFlg=           0 DoJE=F BraDBF=F KetDBF=F FulRan=T
         Omega=  0.000000  0.000000  1.000000  0.000000  0.000000 ICntrl=    2127 IOpCl=  0
         NMat0=    1 NMatS0=    1 NMatT0=    0 NMatD0=    1 NMtDS0=    0 NMtDT0=    0
         I1Cent=           0 NGrid=           0.
 Symmetry not used in FoFCou.
 Leave Link  703 at Fri Jan  8 11:06:01 2021, MaxMem=13421772800 cpu:       0.6
 (Enter /opt/g09gh/gaussian/g09/l716.exe)
 Dipole        = 4.36493861D-01 7.43307388D-01-7.01032777D-02
 ***** Axes restored to original set *****
 -------------------------------------------------------------------
 Center     Atomic                   Forces (Hartrees/Bohr)
 Number     Number              X              Y              Z
 -------------------------------------------------------------------
      1        8           0.013322875    0.005834199    0.001698667
      2        6          -0.026800074    0.006204856   -0.003923799
      3        1           0.008842490    0.002887121   -0.012847543
      4        1           0.000953613    0.001464692    0.011692202
      5        1          -0.000089638   -0.009563484    0.001408472
      6        1           0.003770734   -0.006827384    0.001972003
 -------------------------------------------------------------------
 Cartesian Forces:  Max     0.026800074 RMS     0.009237851
 Leave Link  716 at Fri Jan  8 11:06:01 2021, MaxMem=13421772800 cpu:       0.3
 (Enter /opt/g09gh/gaussian/g09/l103.exe)

 GradGradGradGradGradGradGradGradGradGradGradGradGradGradGradGradGradGrad
 Berny optimization.
 Internal  Forces:  Max     0.016958540 RMS     0.008548801
 Search for a local minimum.
 Step number   1 out of a maximum of    2
 All quantities printed in internal units (Hartrees-Bohrs-Radians)
 RMS Force = .89370D-02 SwitMx=.10000D-02 MixMth= 1
 Mixed Optimization -- RFO/linear search
 Second derivative matrix not updated -- first step.
 The second derivative matrix:
                          R1        R2        R3        R4        R5
           R1           0.42304
           R2           0.00000   0.53294
           R3           0.00000   0.00000   0.33677
           R4           0.00000   0.00000   0.00000   0.33653
           R5           0.00000   0.00000   0.00000   0.00000   0.33572
           A1           0.00000   0.00000   0.00000   0.00000   0.00000
           A2           0.00000   0.00000   0.00000   0.00000   0.00000
           A3           0.00000   0.00000   0.00000   0.00000   0.00000
           A4           0.00000   0.00000   0.00000   0.00000   0.00000
           A5           0.00000   0.00000   0.00000   0.00000   0.00000
           A6           0.00000   0.00000   0.00000   0.00000   0.00000
           A7           0.00000   0.00000   0.00000   0.00000   0.00000
           D1           0.00000   0.00000   0.00000   0.00000   0.00000
           D2           0.00000   0.00000   0.00000   0.00000   0.00000
           D3           0.00000   0.00000   0.00000   0.00000   0.00000
                          A1        A2        A3        A4        A5
           A1           0.16000
           A2           0.00000   0.16000
           A3           0.00000   0.00000   0.16000
           A4           0.00000   0.00000   0.00000   0.16000
           A5           0.00000   0.00000   0.00000   0.00000   0.16000
           A6           0.00000   0.00000   0.00000   0.00000   0.00000
           A7           0.00000   0.00000   0.00000   0.00000   0.00000
           D1           0.00000   0.00000   0.00000   0.00000   0.00000
           D2           0.00000   0.00000   0.00000   0.00000   0.00000
           D3           0.00000   0.00000   0.00000   0.00000   0.00000
                          A6        A7        D1        D2        D3
           A6           0.16000
           A7           0.00000   0.16000
           D1           0.00000   0.00000   0.01413
           D2           0.00000   0.00000   0.00000   0.01413
           D3           0.00000   0.00000   0.00000   0.00000   0.01413
     Eigenvalues ---    0.16000   0.16000   0.16000   0.16000   0.33572
     Eigenvalues ---    0.33653   0.33677   0.42304   0.532941000.00000
     Eigenvalues --- 1000.000001000.000001000.000001000.000001000.00000
 RFO step:  Lambda=-3.35450349D-03 EMin= 1.60000000D-01
 Linear search not attempted -- first point.
 Iteration  1 RMS(Cart)=  0.04949676 RMS(Int)=  0.00121810
 Iteration  2 RMS(Cart)=  0.00113013 RMS(Int)=  0.00020916
 Iteration  3 RMS(Cart)=  0.00000066 RMS(Int)=  0.00020915
 Iteration  1 RMS(Cart)=  0.00009014 RMS(Int)=  0.00012060
 Iteration  2 RMS(Cart)=  0.00005308 RMS(Int)=  0.00013440
 Iteration  3 RMS(Cart)=  0.00003128 RMS(Int)=  0.00015308
 Iteration  4 RMS(Cart)=  0.00001844 RMS(Int)=  0.00016658
 Iteration  5 RMS(Cart)=  0.00001088 RMS(Int)=  0.00017520
 Iteration  6 RMS(Cart)=  0.00000642 RMS(Int)=  0.00018048
 Iteration  7 RMS(Cart)=  0.00000379 RMS(Int)=  0.00018366
 Iteration  8 RMS(Cart)=  0.00000224 RMS(Int)=  0.00018556
 Iteration  9 RMS(Cart)=  0.00000132 RMS(Int)=  0.00018668
 Iteration 10 RMS(Cart)=  0.00000078 RMS(Int)=  0.00018735
 Variable       Old X    -DE/DX   Delta X   Delta X   Delta X     New X
                                 (Linear)    (Quad)   (Total)
    R1        2.68538   0.01696   0.00000   0.03977   0.03977   2.72515
    R2        1.83380  -0.00579   0.00000  -0.01080  -0.01080   1.82300
    R3        2.07879  -0.01471   0.00000  -0.04324  -0.04324   2.03555
    R4        2.07921  -0.01065   0.00000  -0.03132  -0.03132   2.04788
    R5        2.08059  -0.00862   0.00000  -0.02541  -0.02541   2.05518
    A1        1.89140   0.00969   0.00000   0.05935   0.05935   1.95074
    A2        1.93464  -0.01009   0.00000  -0.04443  -0.04389   1.89075
    A3        1.93610   0.00395   0.00000   0.02611   0.02586   1.96196
    A4        1.92389   0.00923   0.00000   0.03755   0.03745   1.96134
    A5        1.92969  -0.00398   0.00000   0.01012   0.01046   1.94015
    A6        1.86848   0.00107   0.00000   0.00325   0.00392   1.87240
    A7        1.86875   0.00022   0.00000  -0.03238  -0.03317   1.83559
    D1       -2.58970  -0.00447   0.00000   0.00000   0.00000  -2.58970
    D2        1.54266   0.00497   0.00000   0.00000   0.00000   1.54267
    D3       -0.52415  -0.00362   0.00000   0.00000   0.00000  -0.52415
         Item               Value     Threshold  Converged?
 Maximum Force            0.016959     0.002500     NO 
 RMS     Force            0.008937     0.001667     NO 
 Maximum Displacement     0.110773     0.010000     NO 
 RMS     Displacement     0.049048     0.006667     NO 
 Predicted change in Energy=-1.692869D-03
 GradGradGradGradGradGradGradGradGradGradGradGradGradGradGradGradGradGrad

 Leave Link  103 at Fri Jan  8 11:06:01 2021, MaxMem=13421772800 cpu:       0.0
 (Enter /opt/g09gh/gaussian/g09/l202.exe)
                          Input orientation:                          
 ---------------------------------------------------------------------
 Center     Atomic      Atomic             Coordinates (Angstroms)
 Number     Number       Type             X           Y           Z
 ---------------------------------------------------------------------
      1          8           0        0.753809    0.116903    0.003551
      2          6           0       -0.682875   -0.007356   -0.007480
      3          1           0       -0.984779   -0.527893    0.885932
      4          1           0       -1.047272   -0.510465   -0.895448
      5          1           0       -1.182059    0.958857   -0.002715
      6          1           0        1.046475    0.924256   -0.435941
 ---------------------------------------------------------------------
                    Distance matrix (angstroms):
                    1          2          3          4          5
     1  O    0.000000
     2  C    1.442089   0.000000
     3  H    2.053545   1.077168   0.000000
     4  H    2.108478   1.083693   1.782561   0.000000
     5  H    2.111045   1.087555   1.743284   1.724542   0.000000
     6  H    0.964689   2.010505   2.825257   2.579408   2.270517
                    6
     6  H    0.000000
 Stoichiometry    CH4O
 Framework group  C1[X(CH4O)]
 Deg. of freedom    12
 Full point group                 C1      NOp   1
 Largest Abelian subgroup         C1      NOp   1
 Largest concise Abelian subgroup C1      NOp   1
                         Standard orientation:                         
 ---------------------------------------------------------------------
 Center     Atomic      Atomic             Coordinates (Angstroms)
 Number     Number       Type             X           Y           Z
 ---------------------------------------------------------------------
      1          8           0       -0.758043   -0.120539    0.012408
      2          6           0        0.678004    0.010901    0.001605
      3          1           0        1.095367   -0.869683   -0.457384
      4          1           0        1.086185    0.165958    0.993439
      5          1           0        1.011013    0.867216   -0.580292
      6          1           0       -1.196246    0.735419   -0.064655
 ---------------------------------------------------------------------
 Rotational constants (GHZ):    132.1803665     24.0236052     23.2269427
 Leave Link  202 at Fri Jan  8 11:06:01 2021, MaxMem=13421772800 cpu:       0.0
 (Enter /opt/g09gh/gaussian/g09/l301.exe)
 Standard basis: 3-21G (6D, 7F)
 Ernie: Thresh=  0.10000D-02 Tol=  0.10000D-05 Strict=F.
 There are    26 symmetry adapted basis functions of A   symmetry.
 Integral buffers will be    131072 words long.
 Raffenetti 1 integral format.
 Two-electron integral symmetry is turned on.
    26 basis functions,    42 primitive gaussians,    26 cartesian basis functions
     9 alpha electrons        9 beta electrons
       nuclear repulsion energy        39.9856836929 Hartrees.
 IExCor=    0 DFT=F Ex=HF Corr=None ExCW=0 ScaHFX=  1.000000
 ScaDFX=  1.000000  1.000000  1.000000  1.000000 ScalE2=  1.000000  1.000000
 IRadAn=      0 IRanWt=     -1 IRanGd=            0 ICorTp=0
 NAtoms=    6 NActive=    6 NUniq=    6 SFac= 7.50D-01 NAtFMM=   80 NAOKFM=F Big=F
 Leave Link  301 at Fri Jan  8 11:06:01 2021, MaxMem=13421772800 cpu:       0.5
 (Enter /opt/g09gh/gaussian/g09/l302.exe)
 NPDir=0 NMtPBC=     1 NCelOv=     1 NCel=       1 NClECP=     1 NCelD=      1
         NCelK=      1 NCelE2=     1 NClLst=     1 CellRange=     0.0.
 One-electron integrals computed using PRISM.
 NBasis=    26 RedAO= T  NBF=    26
 NBsUse=    26 1.00D-06 NBFU=    26
 Leave Link  302 at Fri Jan  8 11:06:01 2021, MaxMem=13421772800 cpu:       0.9
 (Enter /opt/g09gh/gaussian/g09/l303.exe)
 DipDrv:  MaxL=1.
 Leave Link  303 at Fri Jan  8 11:06:01 2021, MaxMem=13421772800 cpu:       0.3
 (Enter /opt/g09gh/gaussian/g09/l401.exe)
 Initial guess read from the read-write file.
 B after Tr=     0.000000    0.000000    0.000000
         Rot=    1.000000    0.000000    0.000000    0.000000 Ang=   0.00 deg.
 Guess basis will be translated and rotated to current coordinates.
 Initial guess orbital symmetries:
       Occupied  (A) (A) (A) (A) (A) (A) (A) (A) (A)
       Virtual   (A) (A) (A) (A) (A) (A) (A) (A) (A) (A) (A) (A)
                 (A) (A) (A) (A) (A)
 The electronic state of the initial guess is 1-A.
 Generating alternative initial guess.
 Harris functional with IExCor=  205 diagonalized for initial guess.
 ExpMin= 1.83D-01 ExpMax= 3.22D+02 ExpMxC= 3.22D+02 IAcc=1 IRadAn=         1 AccDes= 0.00D+00
 HarFok:  IExCor=  205 AccDes= 0.00D+00 IRadAn=         1 IDoV= 1
 ScaDFX=  1.000000  1.000000  1.000000  1.000000
 FoFCou: FMM=F IPFlag=           0 FMFlag=      100000 FMFlg1=           0
         NFxFlg=           0 DoJE=T BraDBF=F KetDBF=T FulRan=T
         Omega=  0.000000  0.000000  1.000000  0.000000  0.000000 ICntrl=     500 IOpCl=  0
         NMat0=    1 NMatS0=    1 NMatT0=    0 NMatD0=    1 NMtDS0=    0 NMtDT0=    0
         I1Cent=           4 NGrid=           0.
 Petite list used in FoFCou.
 Harris En= -114.572404787132    
 Leave Link  401 at Fri Jan  8 11:06:01 2021, MaxMem=13421772800 cpu:       1.6
 (Enter /opt/g09gh/gaussian/g09/l502.exe)
 Closed shell SCF:
 Requested convergence on RMS density matrix=1.00D-08 within 128 cycles.
 Requested convergence on MAX density matrix=1.00D-06.
 Requested convergence on             energy=1.00D-06.
 No special actions if energy rises.
 Using DIIS extrapolation, IDIIS=  1040.
 Integral symmetry usage will be decided dynamically.
 Keep R1 ints in memory in canonical form, NReq=882380.
 IEnd=       20590 IEndB=       20590 NGot= 13421772800 MDV= 13421707749
 LenX= 13421707749 LenY= 13421706632
 Symmetry not used in FoFDir.
 MinBra= 0 MaxBra= 1 Meth= 1.
 IRaf=       0 NMat=   1 IRICut=       1 DoRegI=T DoRafI=F ISym2E= 0 JSym2E=0.

 Cycle   1  Pass 1  IDiag  1:
 E= -114.394963422741    
 DIIS: error= 3.41D-03 at cycle   1 NSaved=   1.
 NSaved= 1 IEnMin= 1 EnMin= -114.394963422741     IErMin= 1 ErrMin= 3.41D-03
 ErrMax= 3.41D-03 EMaxC= 1.00D-01 BMatC= 8.79D-04 BMatP= 8.79D-04
 IDIUse=3 WtCom= 9.66D-01 WtEn= 3.41D-02
 Coeff-Com:  0.100D+01
 Coeff-En:   0.100D+01
 Coeff:      0.100D+01
 Gap=     0.697 Goal=   None    Shift=    0.000
 GapD=    0.697 DampG=2.000 DampE=1.000 DampFc=2.0000 IDamp=-1.
 RMSDP=1.16D-03 MaxDP=5.49D-03              OVMax= 8.60D-03

 Cycle   2  Pass 1  IDiag  1:
 E= -114.396093339716     Delta-E=       -0.001129916975 Rises=F Damp=F
 DIIS: error= 1.14D-03 at cycle   2 NSaved=   2.
 NSaved= 2 IEnMin= 2 EnMin= -114.396093339716     IErMin= 2 ErrMin= 1.14D-03
 ErrMax= 1.14D-03 EMaxC= 1.00D-01 BMatC= 6.00D-05 BMatP= 8.79D-04
 IDIUse=3 WtCom= 9.89D-01 WtEn= 1.14D-02
 Coeff-Com: -0.163D+00 0.116D+01
 Coeff-En:   0.000D+00 0.100D+01
 Coeff:     -0.161D+00 0.116D+01
 Gap=     0.696 Goal=   None    Shift=    0.000
 RMSDP=4.25D-04 MaxDP=1.61D-03 DE=-1.13D-03 OVMax= 3.49D-03

 Cycle   3  Pass 1  IDiag  1:
 E= -114.396206977160     Delta-E=       -0.000113637443 Rises=F Damp=F
 DIIS: error= 4.26D-04 at cycle   3 NSaved=   3.
 NSaved= 3 IEnMin= 3 EnMin= -114.396206977160     IErMin= 3 ErrMin= 4.26D-04
 ErrMax= 4.26D-04 EMaxC= 1.00D-01 BMatC= 7.18D-06 BMatP= 6.00D-05
 IDIUse=3 WtCom= 9.96D-01 WtEn= 4.26D-03
 Coeff-Com: -0.694D-01 0.184D+00 0.886D+00
 Coeff-En:   0.000D+00 0.000D+00 0.100D+01
 Coeff:     -0.691D-01 0.183D+00 0.886D+00
 Gap=     0.696 Goal=   None    Shift=    0.000
 RMSDP=1.31D-04 MaxDP=5.15D-04 DE=-1.14D-04 OVMax= 1.18D-03

 Cycle   4  Pass 1  IDiag  1:
 E= -114.396218035883     Delta-E=       -0.000011058723 Rises=F Damp=F
 DIIS: error= 1.66D-04 at cycle   4 NSaved=   4.
 NSaved= 4 IEnMin= 4 EnMin= -114.396218035883     IErMin= 4 ErrMin= 1.66D-04
 ErrMax= 1.66D-04 EMaxC= 1.00D-01 BMatC= 6.74D-07 BMatP= 7.18D-06
 IDIUse=3 WtCom= 9.98D-01 WtEn= 1.66D-03
 Coeff-Com:  0.115D-01-0.104D+00 0.320D-01 0.106D+01
 Coeff-En:   0.000D+00 0.000D+00 0.000D+00 0.100D+01
 Coeff:      0.114D-01-0.104D+00 0.320D-01 0.106D+01
 Gap=     0.696 Goal=   None    Shift=    0.000
 RMSDP=6.28D-05 MaxDP=3.54D-04 DE=-1.11D-05 OVMax= 4.86D-04

 Cycle   5  Pass 1  IDiag  1:
 E= -114.396219551945     Delta-E=       -0.000001516063 Rises=F Damp=F
 DIIS: error= 4.85D-05 at cycle   5 NSaved=   5.
 NSaved= 5 IEnMin= 5 EnMin= -114.396219551945     IErMin= 5 ErrMin= 4.85D-05
 ErrMax= 4.85D-05 EMaxC= 1.00D-01 BMatC= 6.04D-08 BMatP= 6.74D-07
 IDIUse=1 WtCom= 1.00D+00 WtEn= 0.00D+00
 Coeff-Com:  0.602D-02-0.253D-01-0.601D-01 0.969D-01 0.982D+00
 Coeff:      0.602D-02-0.253D-01-0.601D-01 0.969D-01 0.982D+00
 Gap=     0.696 Goal=   None    Shift=    0.000
 RMSDP=1.88D-05 MaxDP=1.47D-04 DE=-1.52D-06 OVMax= 1.80D-04

 Cycle   6  Pass 1  IDiag  1:
 E= -114.396219681060     Delta-E=       -0.000000129114 Rises=F Damp=F
 DIIS: error= 1.97D-05 at cycle   6 NSaved=   6.
 NSaved= 6 IEnMin= 6 EnMin= -114.396219681060     IErMin= 6 ErrMin= 1.97D-05
 ErrMax= 1.97D-05 EMaxC= 1.00D-01 BMatC= 6.36D-09 BMatP= 6.04D-08
 IDIUse=1 WtCom= 1.00D+00 WtEn= 0.00D+00
 Coeff-Com: -0.181D-02 0.147D-01 0.500D-03-0.139D+00-0.188D-01 0.114D+01
 Coeff:     -0.181D-02 0.147D-01 0.500D-03-0.139D+00-0.188D-01 0.114D+01
 Gap=     0.696 Goal=   None    Shift=    0.000
 RMSDP=7.50D-06 MaxDP=7.23D-05 DE=-1.29D-07 OVMax= 8.78D-05

 Cycle   7  Pass 1  IDiag  1:
 E= -114.396219697930     Delta-E=       -0.000000016871 Rises=F Damp=F
 DIIS: error= 5.79D-06 at cycle   7 NSaved=   7.
 NSaved= 7 IEnMin= 7 EnMin= -114.396219697930     IErMin= 7 ErrMin= 5.79D-06
 ErrMax= 5.79D-06 EMaxC= 1.00D-01 BMatC= 3.77D-10 BMatP= 6.36D-09
 IDIUse=1 WtCom= 1.00D+00 WtEn= 0.00D+00
 Coeff-Com:  0.507D-03-0.545D-02 0.396D-02 0.580D-01-0.457D-01-0.555D+00
 Coeff-Com:  0.154D+01
 Coeff:      0.507D-03-0.545D-02 0.396D-02 0.580D-01-0.457D-01-0.555D+00
 Coeff:      0.154D+01
 Gap=     0.696 Goal=   None    Shift=    0.000
 RMSDP=2.72D-06 MaxDP=2.48D-05 DE=-1.69D-08 OVMax= 3.27D-05

 Cycle   8  Pass 1  IDiag  1:
 E= -114.396219699395     Delta-E=       -0.000000001464 Rises=F Damp=F
 DIIS: error= 6.37D-07 at cycle   8 NSaved=   8.
 NSaved= 8 IEnMin= 8 EnMin= -114.396219699395     IErMin= 8 ErrMin= 6.37D-07
 ErrMax= 6.37D-07 EMaxC= 1.00D-01 BMatC= 7.13D-12 BMatP= 3.77D-10
 IDIUse=1 WtCom= 1.00D+00 WtEn= 0.00D+00
 Coeff-Com: -0.115D-03 0.143D-02-0.148D-02-0.152D-01 0.140D-01 0.160D+00
 Coeff-Com: -0.531D+00 0.137D+01
 Coeff:     -0.115D-03 0.143D-02-0.148D-02-0.152D-01 0.140D-01 0.160D+00
 Coeff:     -0.531D+00 0.137D+01
 Gap=     0.696 Goal=   None    Shift=    0.000
 RMSDP=3.25D-07 MaxDP=2.60D-06 DE=-1.46D-09 OVMax= 3.59D-06

 Cycle   9  Pass 1  IDiag  1:
 E= -114.396219699418     Delta-E=       -0.000000000023 Rises=F Damp=F
 DIIS: error= 1.19D-07 at cycle   9 NSaved=   9.
 NSaved= 9 IEnMin= 9 EnMin= -114.396219699418     IErMin= 9 ErrMin= 1.19D-07
 ErrMax= 1.19D-07 EMaxC= 1.00D-01 BMatC= 1.66D-13 BMatP= 7.13D-12
 IDIUse=1 WtCom= 1.00D+00 WtEn= 0.00D+00
 Coeff-Com:  0.308D-04-0.399D-03 0.448D-03 0.422D-02-0.403D-02-0.455D-01
 Coeff-Com:  0.158D+00-0.504D+00 0.139D+01
 Coeff:      0.308D-04-0.399D-03 0.448D-03 0.422D-02-0.403D-02-0.455D-01
 Coeff:      0.158D+00-0.504D+00 0.139D+01
 Gap=     0.696 Goal=   None    Shift=    0.000
 RMSDP=4.48D-08 MaxDP=2.73D-07 DE=-2.31D-11 OVMax= 3.85D-07

 Cycle  10  Pass 1  IDiag  1:
 E= -114.396219699418     Delta-E=        0.000000000000 Rises=F Damp=F
 DIIS: error= 1.55D-08 at cycle  10 NSaved=  10.
 NSaved=10 IEnMin=10 EnMin= -114.396219699418     IErMin=10 ErrMin= 1.55D-08
 ErrMax= 1.55D-08 EMaxC= 1.00D-01 BMatC= 4.37D-15 BMatP= 1.66D-13
 IDIUse=1 WtCom= 1.00D+00 WtEn= 0.00D+00
 Coeff-Com: -0.602D-05 0.803D-04-0.954D-04-0.833D-03 0.802D-03 0.907D-02
 Coeff-Com: -0.320D-01 0.112D+00-0.419D+00 0.133D+01
 Coeff:     -0.602D-05 0.803D-04-0.954D-04-0.833D-03 0.802D-03 0.907D-02
 Coeff:     -0.320D-01 0.112D+00-0.419D+00 0.133D+01
 Gap=     0.696 Goal=   None    Shift=    0.000
 RMSDP=7.01D-09 MaxDP=3.17D-08 DE=-3.69D-13 OVMax= 5.12D-08

 SCF Done:  E(RHF) =  -114.396219699     A.U. after   10 cycles
             Convg  =    0.7008D-08             -V/T =  2.0028
 KE= 1.140788205952D+02 PE=-3.494829027696D+02 EE= 8.102217878207D+01
 Leave Link  502 at Fri Jan  8 11:06:02 2021, MaxMem=13421772800 cpu:       0.5
 (Enter /opt/g09gh/gaussian/g09/l701.exe)
 Compute integral first derivatives.
 ... and contract with generalized density number  0.
 Leave Link  701 at Fri Jan  8 11:06:02 2021, MaxMem=13421772800 cpu:       0.8
 (Enter /opt/g09gh/gaussian/g09/l702.exe)
 L702 exits ... SP integral derivatives will be done elsewhere.
 Leave Link  702 at Fri Jan  8 11:06:02 2021, MaxMem=13421772800 cpu:       0.3
 (Enter /opt/g09gh/gaussian/g09/l703.exe)
 Compute integral first derivatives, UseDBF=F ICtDFT=           0.
 Integral derivatives from FoFDir, PRISM(SPDF).
 Calling FoFJK, ICntrl=      2127 FMM=F ISym2X=0 I1Cent= 0 IOpClX= 0 NMat=1 NMatS=1 NMatT=0.
 FoFCou: FMM=F IPFlag=           0 FMFlag=      100000 FMFlg1=         800
         NFxFlg=           0 DoJE=F BraDBF=F KetDBF=F FulRan=T
         Omega=  0.000000  0.000000  1.000000  0.000000  0.000000 ICntrl=    2127 IOpCl=  0
         NMat0=    1 NMatS0=    1 NMatT0=    0 NMatD0=    1 NMtDS0=    0 NMtDT0=    0
         I1Cent=           0 NGrid=           0.
 Symmetry not used in FoFCou.
 Leave Link  703 at Fri Jan  8 11:06:02 2021, MaxMem=13421772800 cpu:       0.6
 (Enter /opt/g09gh/gaussian/g09/l716.exe)
 Dipole        = 4.35581294D-01 7.29686056D-01-9.16561194D-02
 ***** Axes restored to original set *****
 -------------------------------------------------------------------
 Center     Atomic                   Forces (Hartrees/Bohr)
 Number     Number              X              Y              Z
 -------------------------------------------------------------------
      1        8          -0.000472504   -0.002722165    0.003467597
      2        6          -0.004110427    0.012966078   -0.005797432
      3        1           0.001616975   -0.004694848   -0.001404317
      4        1           0.003004423   -0.006404522    0.002055073
      5        1           0.002192638    0.001656518    0.003510241
      6        1          -0.002231106   -0.000801062   -0.001831162
 -------------------------------------------------------------------
 Cartesian Forces:  Max     0.012966078 RMS     0.004397126
 Leave Link  716 at Fri Jan  8 11:06:02 2021, MaxMem=13421772800 cpu:       0.3
 (Enter /opt/g09gh/gaussian/g09/l103.exe)

 GradGradGradGradGradGradGradGradGradGradGradGradGradGradGradGradGradGrad
 Berny optimization.
 Using GEDIIS/GDIIS optimizer.
 Internal  Forces:  Max     0.007619149 RMS     0.003419090
 Search for a local minimum.
 Step number   2 out of a maximum of    2
 All quantities printed in internal units (Hartrees-Bohrs-Radians)
 RMS Force = .22950D-02 SwitMx=.10000D-02 MixMth= 1
 Mixed Optimization -- RFO/linear search
 Update second derivatives using D2CorX and points    1    2
 DE= -1.35D-03 DEPred=-1.69D-03 R= 7.97D-01
 SS=  1.41D+00  RLast= 1.18D-01 DXNew= 5.0454D-01 3.5420D-01
 Trust test= 7.97D-01 RLast= 1.18D-01 DXMaxT set to 3.54D-01
 The second derivative matrix:
                          R1        R2        R3        R4        R5
           R1           0.43749
           R2           0.00280   0.52993
           R3          -0.00296  -0.00495   0.33198
           R4          -0.00118  -0.00384  -0.00421   0.33295
           R5          -0.00224  -0.00277  -0.00242  -0.00219   0.33453
           A1           0.02116  -0.00186  -0.01169  -0.00779  -0.00719
           A2           0.00182  -0.00325  -0.00481  -0.00381  -0.00265
           A3           0.01542  -0.00245  -0.00987  -0.00679  -0.00596
           A4           0.01635  -0.00197  -0.00968  -0.00656  -0.00591
           A5          -0.01173   0.00376   0.00984   0.00710   0.00578
           A6          -0.01256   0.00357   0.00998   0.00713   0.00589
           A7          -0.01014   0.00059   0.00523   0.00343   0.00325
           D1          -0.00002   0.00001   0.00002   0.00001   0.00001
           D2           0.00312  -0.00083  -0.00240  -0.00171  -0.00142
           D3          -0.00282   0.00075   0.00217   0.00154   0.00129
                          A1        A2        A3        A4        A5
           A1           0.18097
           A2          -0.00338   0.15658
           A3           0.01345  -0.00357   0.16812
           A4           0.01531  -0.00315   0.00958   0.17107
           A5          -0.00704   0.00464  -0.00327  -0.00454   0.15926
           A6          -0.00831   0.00451  -0.00420  -0.00552  -0.00002
           A7          -0.01055   0.00132  -0.00690  -0.00777   0.00388
           D1          -0.00001   0.00001  -0.00001  -0.00001   0.00000
           D2           0.00217  -0.00106   0.00114   0.00146  -0.00010
           D3          -0.00196   0.00096  -0.00103  -0.00132   0.00009
                          A6        A7        D1        D2        D3
           A6           0.16076
           A7           0.00448   0.16527
           D1           0.00000   0.00001   0.01413
           D2          -0.00029  -0.00116   0.00000   0.01423
           D3           0.00026   0.00105   0.00000  -0.00009   0.01421
 Use linear search instead of GDIIS.
     Eigenvalues ---    0.14907   0.16000   0.16000   0.19973   0.33274
     Eigenvalues ---    0.33594   0.33685   0.44357   0.530331000.00000
     Eigenvalues --- 1000.000001000.000001000.000001000.000001000.00000
 RFO step:  Lambda=-1.66614249D-04 EMin= 1.49069994D-01
 Quartic linear search produced a step of -0.16025.
 Iteration  1 RMS(Cart)=  0.01398606 RMS(Int)=  0.00012994
 Iteration  2 RMS(Cart)=  0.00009983 RMS(Int)=  0.00005327
 Iteration  3 RMS(Cart)=  0.00000001 RMS(Int)=  0.00005327
 Iteration  1 RMS(Cart)=  0.00000950 RMS(Int)=  0.00001311
 Iteration  2 RMS(Cart)=  0.00000570 RMS(Int)=  0.00001460
 Iteration  3 RMS(Cart)=  0.00000343 RMS(Int)=  0.00001666
 Iteration  4 RMS(Cart)=  0.00000206 RMS(Int)=  0.00001818
 Iteration  5 RMS(Cart)=  0.00000124 RMS(Int)=  0.00001918
 Iteration  6 RMS(Cart)=  0.00000074 RMS(Int)=  0.00001980
 Variable       Old X    -DE/DX   Delta X   Delta X   Delta X     New X
                                 (Linear)    (Quad)   (Total)
    R1        2.72515  -0.00298  -0.00637   0.00244  -0.00394   2.72122
    R2        1.82300  -0.00051   0.00173  -0.00308  -0.00135   1.82165
    R3        2.03555   0.00065   0.00693  -0.00747  -0.00054   2.03501
    R4        2.04788   0.00028   0.00502  -0.00589  -0.00087   2.04701
    R5        2.05518   0.00048   0.00407  -0.00414  -0.00007   2.05511
    A1        1.95074  -0.00415  -0.00951  -0.00922  -0.01873   1.93201
    A2        1.89075  -0.00333   0.00703  -0.01369  -0.00679   1.88396
    A3        1.96196  -0.00333  -0.00414  -0.01004  -0.01423   1.94773
    A4        1.96134  -0.00011  -0.00600  -0.00788  -0.01394   1.94739
    A5        1.94015  -0.00334  -0.00168   0.01292   0.01115   1.95130
    A6        1.87240   0.00294  -0.00063   0.01098   0.01021   1.88260
    A7        1.83559   0.00762   0.00531   0.00965   0.01498   1.85057
    D1       -2.58970  -0.00447   0.00000   0.00000   0.00000  -2.58971
    D2        1.54267   0.00435   0.00000   0.00000   0.00000   1.54266
    D3       -0.52415  -0.00306   0.00000   0.00000   0.00001  -0.52414
         Item               Value     Threshold  Converged?
 Maximum Force            0.004153     0.002500     NO 
 RMS     Force            0.002295     0.001667     NO 
 Maximum Displacement     0.036956     0.010000     NO 
 RMS     Displacement     0.014028     0.006667     NO 
 Predicted change in Energy=-1.337007D-04
 Optimization stopped.
    -- Number of steps exceeded,  NStep=   2
    -- Flag reset to prevent archiving.
                           ----------------------------
                           ! Non-Optimized Parameters !
                           ! (Angstroms and Degrees)  !
 --------------------------                            --------------------------
 ! Name  Definition              Value          Derivative Info.                !
 --------------------------------------------------------------------------------
 ! R1    R(1,2)                  1.44           -DE/DX =   -0.003               !
 ! R2    R(1,6)                  0.964          -DE/DX =   -0.0005              !
 ! R3    R(2,3)                  1.0769         -DE/DX =    0.0007              !
 ! R4    R(2,4)                  1.0832         -DE/DX =    0.0003              !
 ! R5    R(2,5)                  1.0875         -DE/DX =    0.0005              !
 ! A1    A(2,1,6)              110.696          -DE/DX =   -0.0042              !
 ! A2    A(1,2,3)              107.943          -DE/DX =   -0.0033              !
 ! A3    A(1,2,4)              111.5968         -DE/DX =   -0.0033              !
 ! A4    A(1,2,5)              111.5775         -DE/DX =   -0.0001              !
 ! A5    A(3,2,4)              111.8014         -DE/DX =   -0.0033              !
 ! A6    A(3,2,5)              107.8652         -DE/DX =    0.0029              !
 ! A7    A(4,2,5)              106.0297         -DE/DX =    0.0076              !
 ! D1    D(6,1,2,3)           -148.3792         -DE/DX =   -0.0045              !
 ! D2    D(6,1,2,4)             88.3881         -DE/DX =    0.0043              !
 ! D3    D(6,1,2,5)            -30.0312         -DE/DX =   -0.0031              !
 --------------------------------------------------------------------------------
 GradGradGradGradGradGradGradGradGradGradGradGradGradGradGradGradGradGrad

 Largest change from initial coordinates is atom    5       0.059 Angstoms.
 Leave Link  103 at Fri Jan  8 11:06:02 2021, MaxMem=13421772800 cpu:       0.0
 (Enter /opt/g09gh/gaussian/g09/l202.exe)
                          Input orientation:                          
 ---------------------------------------------------------------------
 Center     Atomic      Atomic             Coordinates (Angstroms)
 Number     Number       Type             X           Y           Z
 ---------------------------------------------------------------------
      1          8           0        0.753809    0.116903    0.003551
      2          6           0       -0.682875   -0.007356   -0.007480
      3          1           0       -0.984779   -0.527893    0.885932
      4          1           0       -1.047272   -0.510465   -0.895448
      5          1           0       -1.182059    0.958857   -0.002715
      6          1           0        1.046475    0.924256   -0.435941
 ---------------------------------------------------------------------
                    Distance matrix (angstroms):
                    1          2          3          4          5
     1  O    0.000000
     2  C    1.442089   0.000000
     3  H    2.053545   1.077168   0.000000
     4  H    2.108478   1.083693   1.782561   0.000000
     5  H    2.111045   1.087555   1.743284   1.724542   0.000000
     6  H    0.964689   2.010505   2.825257   2.579408   2.270517
                    6
     6  H    0.000000
 Stoichiometry    CH4O
 Framework group  C1[X(CH4O)]
 Deg. of freedom    12
 Full point group                 C1      NOp   1
 Largest Abelian subgroup         C1      NOp   1
 Largest concise Abelian subgroup C1      NOp   1
                         Standard orientation:                         
 ---------------------------------------------------------------------
 Center     Atomic      Atomic             Coordinates (Angstroms)
 Number     Number       Type             X           Y           Z
 ---------------------------------------------------------------------
      1          8           0       -0.758043   -0.120539    0.012408
      2          6           0        0.678004    0.010901    0.001605
      3          1           0        1.095367   -0.869683   -0.457384
      4          1           0        1.086185    0.165958    0.993439
      5          1           0        1.011013    0.867216   -0.580292
      6          1           0       -1.196246    0.735419   -0.064655
 ---------------------------------------------------------------------
 Rotational constants (GHZ):    132.1803665     24.0236052     23.2269427
 Leave Link  202 at Fri Jan  8 11:06:02 2021, MaxMem=13421772800 cpu:       0.0
 (Enter /opt/g09gh/gaussian/g09/l601.exe)
 Copying SCF densities to generalized density rwf, IOpCl= 0 IROHF=0.

 **********************************************************************

            Population analysis using the SCF density.

 **********************************************************************

 Orbital symmetries:
       Occupied  (A) (A) (A) (A) (A) (A) (A) (A) (A)
       Virtual   (A) (A) (A) (A) (A) (A) (A) (A) (A) (A) (A) (A)
                 (A) (A) (A) (A) (A)
 The electronic state is 1-A.
 Alpha  occ. eigenvalues --  -20.43400 -11.21229  -1.33260  -0.92847  -0.66959
 Alpha  occ. eigenvalues --   -0.61271  -0.57843  -0.47864  -0.43313
 Alpha virt. eigenvalues --    0.26247   0.31139   0.34730   0.35823   0.42965
 Alpha virt. eigenvalues --    0.94095   0.95957   0.96737   1.25702   1.30984
 Alpha virt. eigenvalues --    1.32266   1.35307   1.88433   1.89441   1.97115
 Alpha virt. eigenvalues --    2.15847   3.32094
          Condensed to atoms (all electrons):
              1          2          3          4          5          6
     1  O    8.270144   0.236348  -0.029767  -0.034125  -0.028513   0.267590
     2  C    0.236348   4.998547   0.371286   0.353615   0.351024  -0.045577
     3  H   -0.029767   0.371286   0.509294  -0.036661  -0.032912   0.004060
     4  H   -0.034125   0.353615  -0.036661   0.578300  -0.046286   0.000888
     5  H   -0.028513   0.351024  -0.032912  -0.046286   0.593029  -0.006888
     6  H    0.267590  -0.045577   0.004060   0.000888  -0.006888   0.402522
 Mulliken atomic charges:
              1
     1  O   -0.681679
     2  C   -0.265243
     3  H    0.214700
     4  H    0.184269
     5  H    0.170547
     6  H    0.377405
 Sum of Mulliken atomic charges =   0.00000
 Mulliken charges with hydrogens summed into heavy atoms:
              1
     1  O   -0.304273
     2  C    0.304273
 Sum of Mulliken charges with hydrogens summed into heavy atoms =   0.00000
 Electronic spatial extent (au):  <R**2>=             85.0447
 Charge=              0.0000 electrons
 Dipole moment (field-independent basis, Debye):
    X=              1.1071    Y=              1.8547    Z=             -0.2330  Tot=              2.1725
 Quadrupole moment (field-independent basis, Debye-Ang):
   XX=            -12.2893   YY=            -12.1558   ZZ=            -13.4761
   XY=             -2.4349   XZ=              0.1404   YZ=              0.0467
 Traceless Quadrupole moment (field-independent basis, Debye-Ang):
   XX=              0.3511   YY=              0.4846   ZZ=             -0.8357
   XY=             -2.4349   XZ=              0.1404   YZ=              0.0467
 Octapole moment (field-independent basis, Debye-Ang**2):
  XXX=             -4.7616  YYY=              0.9017  ZZZ=              0.2517  XYY=             -1.9856
  XXY=              2.6304  XXZ=             -0.3411  XZZ=             -0.7267  YZZ=              0.2267
  YYZ=             -0.5369  XYZ=              0.3278
 Hexadecapole moment (field-independent basis, Debye-Ang**3):
 XXXX=            -59.3304 YYYY=            -18.2679 ZZZZ=            -17.6496 XXXY=             -3.9084
 XXXZ=              0.1960 YYYX=             -2.2528 YYYZ=              0.0558 ZZZX=              0.4785
 ZZZY=              0.1726 XXYY=            -11.8661 XXZZ=            -13.2222 YYZZ=             -6.0437
 XXYZ=              0.1554 YYXZ=             -0.4586 ZZXY=             -0.2808
 N-N= 3.998568369292D+01 E-N=-3.494829027749D+02  KE= 1.140788205952D+02
 No NMR shielding tensors so no spin-rotation constants.
 Leave Link  601 at Fri Jan  8 11:06:02 2021, MaxMem=13421772800 cpu:       0.8
 (Enter /opt/g09gh/gaussian/g09/l9999.exe)


 LIFE IS A CONTINUAL STRUGGLE AGAINST THE TENDENCY TO PRODUCE ENTROPY.
 Error termination request processed by link 9999.
 Error termination via Lnk1e in /opt/g09gh/gaussian/g09/l9999.exe at Fri Jan  8 11:06:02 2021.
 Job cpu time:  0 days  0 hours  0 minutes 15.1 seconds.
 File lengths (MBytes):  RWF=      5 Int=      0 D2E=      0 Chk=      1 Scr=      1
