14
 energy: -14.016210069455 gnorm: 0.000912554264 xtb: 6.5.0 (97a52f5)
H            0.88470657389552        1.23885379762888       -1.38687839911735
C            1.16394536219797        0.55633415548867       -0.58876136880107
N            0.01148011913460       -0.28039725347689       -0.17802046038622
H            0.04334969405513       -1.13734376447663       -0.74234532559378
H            1.53530885389770        1.12384208590761        0.26251447761231
H            1.98143470332116       -0.07122499028109       -0.94021069155378
C           -1.27796579023426        0.37393383948407       -0.46497951896820
C            0.11828947601030       -0.68553798834808        1.23468431617742
H           -1.35050792048940        1.30286268314774        0.09950616233992
H           -1.36157031102966        0.60070219094875       -1.52587522785480
H            1.07681723128798       -1.16820019733977        1.41687542980309
H            0.03556377540256        0.19088038204323        1.87577853987273
H           -2.10429783228440       -0.27408478750316       -0.17847898424535
H           -0.67795693516520       -1.38184815322334        1.49219904071508
