14
 energy: -14.018805241970 gnorm: 0.000674132357 xtb: 6.5.0 (97a52f5)
H            1.03904678821399        0.90069614474417       -1.61627975782603
C            1.15291187472382        0.55449095727375       -0.59085398474584
N            0.00143656981537       -0.27763619487913       -0.19558938821922
H            0.00231185195321       -1.10397643085969       -0.80607765657400
H            1.22385783935509        1.41952523595259        0.06696256690065
H            2.07675464711367       -0.01592539891284       -0.51521334766498
C           -1.27634898314931        0.42288921387498       -0.41398949683901
C            0.13899039079809       -0.74498693919889        1.19497504448222
H           -1.31272078268807        1.32123682549724        0.20069471856559
H           -1.37877655554015        0.70993204013694       -1.45869127160096
H            1.09295163497174       -1.25002762112331        1.33340235457837
H            0.09495403846481        0.10639531592130        1.87278526724951
H           -2.11215938643071       -0.21967499490278       -0.14356922978956
H           -0.66461193760153       -1.43416813352435        1.44745218148326
