
    -----------------------------------------------------------------------
          Psi4: An Open-Source Ab Initio Electronic Structure Package
                               Psi4 1.3.2 release

                         Git: Rev {HEAD} ecbda83 


    R. M. Parrish, L. A. Burns, D. G. A. Smith, A. C. Simmonett,
    A. E. DePrince III, E. G. Hohenstein, U. Bozkaya, A. Yu. Sokolov,
    R. Di Remigio, R. M. Richard, J. F. Gonthier, A. M. James,
    H. R. McAlexander, A. Kumar, M. Saitow, X. Wang, B. P. Pritchard,
    P. Verma, H. F. Schaefer III, K. Patkowski, R. A. King, E. F. Valeev,
    F. A. Evangelista, J. M. Turney, T. D. Crawford, and C. D. Sherrill,
    J. Chem. Theory Comput. 13(7) pp 3185--3197 (2017).
    (doi: 10.1021/acs.jctc.7b00174)


                         Additional Contributions by
    P. Kraus, H. Kruse, M. H. Lechner, M. C. Schieber, R. A. Shaw,
    A. Alenaizan, R. Galvelis, Z. L. Glick, S. Lehtola, and J. P. Misiewicz

    -----------------------------------------------------------------------


    Psi4 started on: Tuesday, 31 December 2019 10:22AM

    Process ID: 131755
    Host:       bme-nova.bme.utexas.edu
    PSIDATADIR: /home/bdw2292/miniconda3/envs/p4env/share/psi4
    Memory:     500.0 MiB
    Threads:    1
    
  ==> Input File <==

--------------------------------------------------------------------------
molecule { 
0 1
O            0.623442605227    -1.148810273012    -0.204080799267
N            0.737116826723     1.103895199402     0.103461024405
C           -1.453554284667     0.053453402637     0.078840229559
C            0.051403024279    -0.079859259384    -0.011455910789
H           -1.900046417352    -0.914034990431    -0.144497977475
H           -1.751573738560     0.361881974188     1.085463042084
H           -1.822380911860     0.800879955017    -0.628419620676
H            1.741406626867     1.034601323733     0.201668255488
H            0.291523342495     1.925627893661     0.484839430861
}
memory 5GB
set_num_threads(4)
psi4_io.set_default_path("/scratch/bdw2292")
set freeze_core True
E, wfn = energy('mp2/6-311G**',return_wfn=True)
gdma(wfn)
fchk(wfn, "acetamide-dma.fchk")
clean()
--------------------------------------------------------------------------

  Memory set to   4.657 GiB by Python driver.
  Threads set to 4 by Python driver.
    SCF Algorithm Type (re)set to DF.

*** tstart() called on bme-nova.bme.utexas.edu
*** at Tue Dec 31 10:22:16 2019

   => Loading Basis Set <=

    Name: 6-311G**
    Role: ORBITAL
    Keyword: BASIS
    atoms 1   entry O          line   151 file /home/bdw2292/miniconda3/envs/p4env/share/psi4/basis/6-311gss.gbs 
    atoms 2   entry N          line   132 file /home/bdw2292/miniconda3/envs/p4env/share/psi4/basis/6-311gss.gbs 
    atoms 3-4 entry C          line   113 file /home/bdw2292/miniconda3/envs/p4env/share/psi4/basis/6-311gss.gbs 
    atoms 5-9 entry H          line    32 file /home/bdw2292/miniconda3/envs/p4env/share/psi4/basis/6-311gss.gbs 


         ---------------------------------------------------------
                                   SCF
               by Justin Turney, Rob Parrish, Andy Simmonett
                          and Daniel G. A. Smith
                              RHF Reference
                        4 Threads,   4768 MiB Core
         ---------------------------------------------------------

  ==> Geometry <==

    Molecular point group: c1
    Full point group: C1

    Geometry (in Angstrom), charge = 0, multiplicity = 1:

       Center              X                  Y                   Z               Mass       
    ------------   -----------------  -----------------  -----------------  -----------------
         O            0.623442605227    -1.148810273012    -0.204080799267    15.994914619570
         N            0.737116826723     1.103895199402     0.103461024405    14.003074004430
         C           -1.453554284667     0.053453402637     0.078840229559    12.000000000000
         C            0.051403024279    -0.079859259384    -0.011455910789    12.000000000000
         H           -1.900046417352    -0.914034990431    -0.144497977475     1.007825032230
         H           -1.751573738560     0.361881974188     1.085463042084     1.007825032230
         H           -1.822380911860     0.800879955017    -0.628419620676     1.007825032230
         H            1.741406626867     1.034601323733     0.201668255488     1.007825032230
         H            0.291523342495     1.925627893661     0.484839430861     1.007825032230

  Running in c1 symmetry.

  Rotational constants: A =      0.35622  B =      0.31073  C =      0.17153 [cm^-1]
  Rotational constants: A =  10679.25901  B =   9315.34428  C =   5142.28232 [MHz]
  Nuclear repulsion =  121.303141488172372

  Charge       = 0
  Multiplicity = 1
  Electrons    = 32
  Nalpha       = 16
  Nbeta        = 16

  ==> Algorithm <==

  SCF Algorithm Type is DF.
  DIIS enabled.
  MOM disabled.
  Fractional occupation disabled.
  Guess Type is SAD.
  Energy threshold   = 1.00e-08
  Density threshold  = 1.00e-08
  Integral threshold = 0.00e+00

  ==> Primary Basis <==

  Basis Set: 6-311G**
    Blend: 6-311G**
    Number of shells: 52
    Number of basis function: 102
    Number of Cartesian functions: 106
    Spherical Harmonics?: true
    Max angular momentum: 2

   => Loading Basis Set <=

    Name: (6-311G** AUX)
    Role: JKFIT
    Keyword: DF_BASIS_SCF
    atoms 1   entry O          line   229 file /home/bdw2292/miniconda3/envs/p4env/share/psi4/basis/cc-pvtz-jkfit.gbs 
    atoms 2   entry N          line   177 file /home/bdw2292/miniconda3/envs/p4env/share/psi4/basis/cc-pvtz-jkfit.gbs 
    atoms 3-4 entry C          line   125 file /home/bdw2292/miniconda3/envs/p4env/share/psi4/basis/cc-pvtz-jkfit.gbs 
    atoms 5-9 entry H          line    51 file /home/bdw2292/miniconda3/envs/p4env/share/psi4/basis/cc-pvtz-jkfit.gbs 

  ==> Pre-Iterations <==

   -------------------------------------------------------
    Irrep   Nso     Nmo     Nalpha   Nbeta   Ndocc  Nsocc
   -------------------------------------------------------
     A        102     102       0       0       0       0
   -------------------------------------------------------
    Total     102     102      16      16      16       0
   -------------------------------------------------------

  ==> Integral Setup <==

  DFHelper Memory: AOs need 0.040 GiB; user supplied 3.492 GiB. Using in-core AOs.

  ==> MemDFJK: Density-Fitted J/K Matrices <==

    J tasked:                   Yes
    K tasked:                   Yes
    wK tasked:                   No
    OpenMP threads:               4
    Memory [MiB]:              3576
    Algorithm:                 Core
    Schwarz Cutoff:           1E-12
    Mask sparsity (%):       0.4806
    Fitting Condition:        1E-10

   => Auxiliary Basis Set <=

  Basis Set: (6-311G** AUX)
    Blend: CC-PVTZ-JKFIT
    Number of shells: 150
    Number of basis function: 466
    Number of Cartesian functions: 559
    Spherical Harmonics?: true
    Max angular momentum: 4

  Minimum eigenvalue in the overlap matrix is 2.8969848345E-03.
  Using Symmetric Orthogonalization.

  SCF Guess: Superposition of Atomic Densities via on-the-fly atomic UHF.

  ==> Iterations <==

                           Total Energy        Delta E     RMS |[F,P]|

   @DF-RHF iter SAD:  -207.20135437961849   -2.07201e+02   0.00000e+00 
   @DF-RHF iter   1:  -207.87596935170046   -6.74615e-01   5.61570e-03 DIIS
   @DF-RHF iter   2:  -207.99005254141548   -1.14083e-01   3.42639e-03 DIIS
   @DF-RHF iter   3:  -208.03053662455818   -4.04841e-02   6.27518e-04 DIIS
   @DF-RHF iter   4:  -208.03294830469724   -2.41168e-03   2.54874e-04 DIIS
   @DF-RHF iter   5:  -208.03342513548137   -4.76831e-04   5.02238e-05 DIIS
   @DF-RHF iter   6:  -208.03345942816586   -3.42927e-05   2.53426e-05 DIIS
   @DF-RHF iter   7:  -208.03346617862761   -6.75046e-06   9.69038e-06 DIIS
   @DF-RHF iter   8:  -208.03346757832827   -1.39970e-06   2.76089e-06 DIIS
   @DF-RHF iter   9:  -208.03346771200319   -1.33675e-07   5.98924e-07 DIIS
   @DF-RHF iter  10:  -208.03346771760908   -5.60590e-09   1.28293e-07 DIIS
   @DF-RHF iter  11:  -208.03346771781202   -2.02931e-10   3.09698e-08 DIIS
   @DF-RHF iter  12:  -208.03346771782617   -1.41540e-11   1.21422e-08 DIIS
   @DF-RHF iter  13:  -208.03346771782850   -2.33058e-12   4.76649e-09 DIIS
  Energy and wave function converged.


  ==> Post-Iterations <==

    Orbital Energies [Eh]
    ---------------------

    Doubly Occupied:                                                      

       1A    -20.511712     2A    -15.579024     3A    -11.353879  
       4A    -11.239156     5A     -1.371930     6A     -1.206337  
       7A     -1.004423     8A     -0.793034     9A     -0.717371  
      10A     -0.660415    11A     -0.613625    12A     -0.581454  
      13A     -0.559459    14A     -0.522107    15A     -0.423439  
      16A     -0.411104  

    Virtual:                                                              

      17A      0.137699    18A      0.178695    19A      0.185713  
      20A      0.206176    21A      0.232090    22A      0.237730  
      23A      0.355077    24A      0.396909    25A      0.452608  
      26A      0.476085    27A      0.518707    28A      0.549720  
      29A      0.604554    30A      0.632302    31A      0.642259  
      32A      0.730734    33A      0.774725    34A      0.791223  
      35A      0.794594    36A      0.840929    37A      0.855520  
      38A      0.889639    39A      0.935445    40A      0.961175  
      41A      1.037175    42A      1.087177    43A      1.158149  
      44A      1.163439    45A      1.267373    46A      1.352148  
      47A      1.459488    48A      1.480692    49A      1.541938  
      50A      1.676420    51A      1.692998    52A      1.707928  
      53A      1.746735    54A      1.750299    55A      1.778428  
      56A      1.839638    57A      1.902787    58A      1.952387  
      59A      1.992670    60A      2.038314    61A      2.075254  
      62A      2.102372    63A      2.183523    64A      2.276088  
      65A      2.321652    66A      2.392216    67A      2.493965  
      68A      2.640943    69A      2.661675    70A      2.697048  
      71A      2.715369    72A      2.742030    73A      2.789267  
      74A      2.844339    75A      2.900731    76A      2.903502  
      77A      2.985282    78A      3.076287    79A      3.139134  
      80A      3.162461    81A      3.288711    82A      3.316635  
      83A      3.354329    84A      3.475619    85A      3.577530  
      86A      3.724130    87A      3.743110    88A      3.954778  
      89A      4.127686    90A      4.160450    91A      4.251161  
      92A      4.272635    93A      4.500700    94A      5.240277  
      95A      5.379809    96A      5.483681    97A      5.614131  
      98A      6.200102    99A     24.916854   100A     25.066720  
     101A     37.023015   102A     51.693507  

    Final Occupation by Irrep:
              A 
    DOCC [    16 ]

  @DF-RHF Final Energy:  -208.03346771782850

   => Energetics <=

    Nuclear Repulsion Energy =            121.3031414881723720
    One-Electron Energy =                -523.5762785518974169
    Two-Electron Energy =                 194.2396693458965160
    Total Energy =                       -208.0334677178285006

Computation Completed


Properties will be evaluated at   0.000000,   0.000000,   0.000000 [a0]

Properties computed using the SCF density matrix

  Nuclear Dipole Moment: [e a0]
     X:    -3.2250      Y:     2.9996      Z:     0.9353

  Electronic Dipole Moment: [e a0]
     X:     2.6845      Y:    -1.5292      Z:    -0.4262

  Dipole Moment: [e a0]
     X:    -0.5406      Y:     1.4703      Z:     0.5091     Total:     1.6472

  Dipole Moment: [D]
     X:    -1.3740      Y:     3.7372      Z:     1.2941     Total:     4.1868


*** tstop() called on bme-nova.bme.utexas.edu at Tue Dec 31 10:22:19 2019
Module time:
	user time   =       6.17 seconds =       0.10 minutes
	system time =       2.08 seconds =       0.03 minutes
	total time  =          3 seconds =       0.05 minutes
Total time:
	user time   =       6.17 seconds =       0.10 minutes
	system time =       2.08 seconds =       0.03 minutes
	total time  =          3 seconds =       0.05 minutes

*** tstart() called on bme-nova.bme.utexas.edu
*** at Tue Dec 31 10:22:19 2019


  //>>>>>>>>>>>>>>>>>>>>>>>>>>>>>>>>>>>//
  //               DFMP2               //
  //<<<<<<<<<<<<<<<<<<<<<<<<<<<<<<<<<<<//

   => Loading Basis Set <=

    Name: (6-311G** AUX)
    Role: RIFIT
    Keyword: DF_BASIS_MP2
    atoms 1   entry O          line   305 file /home/bdw2292/miniconda3/envs/p4env/share/psi4/basis/cc-pvtz-ri.gbs 
    atoms 2   entry N          line   257 file /home/bdw2292/miniconda3/envs/p4env/share/psi4/basis/cc-pvtz-ri.gbs 
    atoms 3-4 entry C          line   209 file /home/bdw2292/miniconda3/envs/p4env/share/psi4/basis/cc-pvtz-ri.gbs 
    atoms 5-9 entry H          line    19 file /home/bdw2292/miniconda3/envs/p4env/share/psi4/basis/cc-pvtz-ri.gbs 

	 --------------------------------------------------------
	                          DF-MP2                         
	      2nd-Order Density-Fitted Moller-Plesset Theory     
	              RMP2 Wavefunction,   4 Threads             
	                                                         
	        Rob Parrish, Justin Turney, Andy Simmonett,      
	           Ed Hohenstein, and C. David Sherrill          
	 --------------------------------------------------------

   => Auxiliary Basis Set <=

  Basis Set: (6-311G** AUX)
    Blend: CC-PVTZ-RI
    Number of shells: 142
    Number of basis function: 474
    Number of Cartesian functions: 579
    Spherical Harmonics?: true
    Max angular momentum: 4

	 --------------------------------------------------------
	                 NBF =   102, NAUX =   474
	 --------------------------------------------------------
	   CLASS    FOCC     OCC    AOCC    AVIR     VIR    FVIR
	   PAIRS       4      16      12      86      86       0
	 --------------------------------------------------------

	-----------------------------------------------------------
	 ==================> DF-MP2 Energies <==================== 
	-----------------------------------------------------------
	 Reference Energy          =    -208.0334677178285006 [Eh]
	 Singles Energy            =      -0.0000000000000000 [Eh]
	 Same-Spin Energy          =      -0.1685411660314845 [Eh]
	 Opposite-Spin Energy      =      -0.4955175530343165 [Eh]
	 Correlation Energy        =      -0.6640587190658011 [Eh]
	 Total Energy              =    -208.6975264368942931 [Eh]
	-----------------------------------------------------------
	 ================> DF-SCS-MP2 Energies <================== 
	-----------------------------------------------------------
	 SCS Same-Spin Scale       =       0.3333333333333333 [-]
	 SCS Opposite-Spin Scale   =       1.2000000000000000 [-]
	 SCS Same-Spin Energy      =      -0.0561803886771615 [Eh]
	 SCS Opposite-Spin Energy  =      -0.5946210636411798 [Eh]
	 SCS Correlation Energy    =      -0.6508014523183413 [Eh]
	 SCS Total Energy          =    -208.6842691701468482 [Eh]
	-----------------------------------------------------------


*** tstop() called on bme-nova.bme.utexas.edu at Tue Dec 31 10:22:20 2019
Module time:
	user time   =       2.09 seconds =       0.03 minutes
	system time =       0.29 seconds =       0.00 minutes
	total time  =          1 seconds =       0.02 minutes
Total time:
	user time   =       8.27 seconds =       0.14 minutes
	system time =       2.37 seconds =       0.04 minutes
	total time  =          4 seconds =       0.07 minutes
                                     G D M A

                                 by Anthony Stone

                           version 2.2.06, 22 June 2011

               Distributed Multipoles from Gaussian wavefunctions


Starting at 10:22:20 on 31 Dec 2019 


Using CC density matrix from file acetamide-dma.default.131755.fchk


                         Distributed Multipole Analysis

Standard DMA for products of primitives with exponent greater than 4.00000
Using 80-point Euler-MacLaurin radial quadrature
Using 590-point Lebedev quadrature
Becke smoothing parameter = 3

Positions and radii in angstrom
Multipole moments in atomic units, ea_0^k for rank k

O          x =  0.623443  y = -1.148810  z = -0.204081 angstrom
           Maximum rank =  2   Radius =  0.650 angstrom
                   Q00  =  -0.479552
|Q1| =   0.434827  Q10  =   0.062872  Q11c =  -0.184550  Q11s =   0.388668
|Q2| =   1.010878  Q20  =  -0.236921  Q21c =  -0.133819  Q21s =   0.175433
                   Q22c =  -0.560204  Q22s =  -0.776679

N          x =  0.737117  y =  1.103895  z =  0.103461 angstrom
           Maximum rank =  2   Radius =  0.650 angstrom
                   Q00  =  -0.275639
|Q1| =   0.222637  Q10  =   0.168929  Q11c =   0.003986  Q11s =  -0.144963
|Q2| =   1.491827  Q20  =  -1.315510  Q21c =  -0.070861  Q21s =   0.692969
                   Q22c =  -0.040400  Q22s =   0.090126

C          x = -1.453554  y =  0.053453  z =  0.078840 angstrom
           Maximum rank =  2   Radius =  0.650 angstrom
                   Q00  =  -0.085524
|Q1| =   0.124353  Q10  =  -0.017885  Q11c =   0.112462  Q11s =  -0.049962
|Q2| =   0.162037  Q20  =  -0.075142  Q21c =  -0.032099  Q21s =  -0.016158
                   Q22c =   0.123168  Q22s =  -0.064405

C          x =  0.051403  y = -0.079859  z = -0.011456 angstrom
           Maximum rank =  2   Radius =  0.650 angstrom
                   Q00  =   0.230403
|Q1| =   0.127285  Q10  =  -0.034605  Q11c =   0.114869  Q11s =  -0.042535
|Q2| =   0.501303  Q20  =  -0.467924  Q21c =  -0.054030  Q21s =   0.119568
                   Q22c =  -0.107883  Q22s =  -0.059142

H          x = -1.900046  y = -0.914035  z = -0.144498 angstrom
           Maximum rank =  2   Radius =  0.325 angstrom
                   Q00  =   0.089688
|Q1| =   0.127063  Q10  =   0.016241  Q11c =   0.100574  Q11s =   0.075934
|Q2| =   0.175831  Q20  =  -0.116590  Q21c =   0.015258  Q21s =   0.069823
                   Q22c =  -0.081355  Q22s =   0.074811

H          x = -1.751574  y =  0.361882  z =  1.085463 angstrom
           Maximum rank =  2   Radius =  0.325 angstrom
                   Q00  =   0.074188
|Q1| =   0.134436  Q10  =  -0.106907  Q11c =   0.073119  Q11s =  -0.036021
|Q2| =   0.167667  Q20  =   0.124054  Q21c =  -0.065498  Q21s =   0.083685
                   Q22c =   0.034592  Q22s =  -0.015274

H          x = -1.822381  y =  0.800880  z = -0.628420 angstrom
           Maximum rank =  2   Radius =  0.325 angstrom
                   Q00  =   0.076149
|Q1| =   0.133045  Q10  =   0.068789  Q11c =   0.083830  Q11s =  -0.077083
|Q2| =   0.168543  Q20  =   0.001988  Q21c =   0.054287  Q21s =  -0.149456
                   Q22c =  -0.023639  Q22s =  -0.050597

H          x =  1.741407  y =  1.034601  z =  0.201668 angstrom
           Maximum rank =  2   Radius =  0.325 angstrom
                   Q00  =   0.192297
|Q1| =   0.069194  Q10  =  -0.011856  Q11c =  -0.055543  Q11s =  -0.039526
|Q2| =   0.185029  Q20  =  -0.141212  Q21c =   0.029039  Q21s =   0.027148
                   Q22c =   0.111843  Q22s =  -0.014356

H          x =  0.291523  y =  1.925628  z =  0.484839 angstrom
           Maximum rank =  2   Radius =  0.325 angstrom
                   Q00  =   0.177993
|Q1| =   0.065866  Q10  =  -0.023367  Q11c =   0.001276  Q11s =  -0.061569
|Q2| =   0.189220  Q20  =  -0.109898  Q21c =  -0.046523  Q21s =   0.114149
                   Q22c =  -0.061377  Q22s =  -0.069030

Total multipoles referred to origin at
           x =   0.000000,  y =    0.000000,  z =    0.000000 angstrom
                   Q00  =   0.000003
|Q1| =   1.647226  Q10  =   0.509151  Q11c =  -0.540578  Q11s =   1.470338
|Q2| =   4.774105  Q20  =  -0.803351  Q21c =   1.176825  Q21s =   1.266994
                   Q22c =   2.271447  Q22s =   3.741262

Finished at 10:22:36 on 31 Dec 2019 

  DMA results are available in the Python driver through the
	  variable('DMA DISTRIBUTED MULTIPOLES')
  and
	  variable('DMA TOTAL MULTIPOLES')
  commands.


    Psi4 stopped on: Tuesday, 31 December 2019 10:22AM
    Psi4 wall time for execution: 0:00:19.99

*** Psi4 exiting successfully. Buy a developer a beer!
