
    -----------------------------------------------------------------------
          Psi4: An Open-Source Ab Initio Electronic Structure Package
                               Psi4 1.3.2 release

                         Git: Rev {HEAD} ecbda83 


    R. M. Parrish, L. A. Burns, D. G. A. Smith, A. C. Simmonett,
    A. E. DePrince III, E. G. Hohenstein, U. Bozkaya, A. Yu. Sokolov,
    R. Di Remigio, R. M. Richard, J. F. Gonthier, A. M. James,
    H. R. McAlexander, A. Kumar, M. Saitow, X. Wang, B. P. Pritchard,
    P. Verma, H. F. Schaefer III, K. Patkowski, R. A. King, E. F. Valeev,
    F. A. Evangelista, J. M. Turney, T. D. Crawford, and C. D. Sherrill,
    J. Chem. Theory Comput. 13(7) pp 3185--3197 (2017).
    (doi: 10.1021/acs.jctc.7b00174)


                         Additional Contributions by
    P. Kraus, H. Kruse, M. H. Lechner, M. C. Schieber, R. A. Shaw,
    A. Alenaizan, R. Galvelis, Z. L. Glick, S. Lehtola, and J. P. Misiewicz

    -----------------------------------------------------------------------


    Psi4 started on: Monday, 21 September 2020 02:58PM

    Process ID: 24074
    Host:       node37.bme.utexas.edu
    PSIDATADIR: /home/bdw2292/miniconda3/envs/p4env/share/psi4
    Memory:     500.0 MiB
    Threads:    1
    
  ==> Input File <==

--------------------------------------------------------------------------
molecule { 
0 1
O            0.690256010091     0.021077645631     0.007120983199
C           -0.722885496089     0.029155852584     0.009879650728
H           -1.147666658208    -0.713337175374     0.701390439387
H           -1.147700645448    -0.140835903928    -0.990406038765
H           -1.030821790189     1.021944315270     0.345846751738
H            0.978599067489    -0.849442509537    -0.287481631922
}
memory 700MB
set_num_threads(1)
psi4_io.set_default_path("/scratch/bdw2292/Psi4-methanol")
set freeze_core True
set PROPERTIES_ORIGIN ["COM"]
E, wfn = energy('mp2/6-311G**',properties=['dipole'],return_wfn=True)
fchk(wfn, "methanol-dma.fchk")
clean()
--------------------------------------------------------------------------

  Memory set to 667.572 MiB by Python driver.
  Threads set to 1 by Python driver.
    SCF Algorithm Type (re)set to DF.

*** tstart() called on node37.bme.utexas.edu
*** at Mon Sep 21 14:58:54 2020

   => Loading Basis Set <=

    Name: 6-311G**
    Role: ORBITAL
    Keyword: BASIS
    atoms 1   entry O          line   151 file /home/bdw2292/miniconda3/envs/p4env/share/psi4/basis/6-311gss.gbs 
    atoms 2   entry C          line   113 file /home/bdw2292/miniconda3/envs/p4env/share/psi4/basis/6-311gss.gbs 
    atoms 3-6 entry H          line    32 file /home/bdw2292/miniconda3/envs/p4env/share/psi4/basis/6-311gss.gbs 


         ---------------------------------------------------------
                                   SCF
               by Justin Turney, Rob Parrish, Andy Simmonett
                          and Daniel G. A. Smith
                              RHF Reference
                        1 Threads,    667 MiB Core
         ---------------------------------------------------------

  ==> Geometry <==

    Molecular point group: c1
    Full point group: C1

    Geometry (in Angstrom), charge = 0, multiplicity = 1:

       Center              X                  Y                   Z               Mass       
    ------------   -----------------  -----------------  -----------------  -----------------
         O            0.690256010091     0.021077645631     0.007120983199    15.994914619570
         C           -0.722885496089     0.029155852584     0.009879650728    12.000000000000
         H           -1.147666658208    -0.713337175374     0.701390439387     1.007825032230
         H           -1.147700645448    -0.140835903928    -0.990406038765     1.007825032230
         H           -1.030821790189     1.021944315270     0.345846751738     1.007825032230
         H            0.978599067489    -0.849442509537    -0.287481631922     1.007825032230

  Running in c1 symmetry.

  Rotational constants: A =      4.25650  B =      0.83249  C =      0.80293 [cm^-1]
  Rotational constants: A = 127606.54339  B =  24957.37316  C =  24071.12247 [MHz]
  Nuclear repulsion =   40.351069075995753

  Charge       = 0
  Multiplicity = 1
  Electrons    = 18
  Nalpha       = 9
  Nbeta        = 9

  ==> Algorithm <==

  SCF Algorithm Type is DF.
  DIIS enabled.
  MOM disabled.
  Fractional occupation disabled.
  Guess Type is SAD.
  Energy threshold   = 1.00e-08
  Density threshold  = 1.00e-08
  Integral threshold = 0.00e+00

  ==> Primary Basis <==

  Basis Set: 6-311G**
    Blend: 6-311G**
    Number of shells: 32
    Number of basis function: 60
    Number of Cartesian functions: 62
    Spherical Harmonics?: true
    Max angular momentum: 2

   => Loading Basis Set <=

    Name: (6-311G** AUX)
    Role: JKFIT
    Keyword: DF_BASIS_SCF
    atoms 1   entry O          line   229 file /home/bdw2292/miniconda3/envs/p4env/share/psi4/basis/cc-pvtz-jkfit.gbs 
    atoms 2   entry C          line   125 file /home/bdw2292/miniconda3/envs/p4env/share/psi4/basis/cc-pvtz-jkfit.gbs 
    atoms 3-6 entry H          line    51 file /home/bdw2292/miniconda3/envs/p4env/share/psi4/basis/cc-pvtz-jkfit.gbs 

  ==> Pre-Iterations <==

   -------------------------------------------------------
    Irrep   Nso     Nmo     Nalpha   Nbeta   Ndocc  Nsocc
   -------------------------------------------------------
     A         60      60       0       0       0       0
   -------------------------------------------------------
    Total      60      60       9       9       9       0
   -------------------------------------------------------

  ==> Integral Setup <==

  DFHelper Memory: AOs need 0.009 GiB; user supplied 0.489 GiB. Using in-core AOs.

  ==> MemDFJK: Density-Fitted J/K Matrices <==

    J tasked:                   Yes
    K tasked:                   Yes
    wK tasked:                   No
    OpenMP threads:               1
    Memory [MiB]:               500
    Algorithm:                 Core
    Schwarz Cutoff:           1E-12
    Mask sparsity (%):       0.0000
    Fitting Condition:        1E-10

   => Auxiliary Basis Set <=

  Basis Set: (6-311G** AUX)
    Blend: CC-PVTZ-JKFIT
    Number of shells: 90
    Number of basis function: 278
    Number of Cartesian functions: 332
    Spherical Harmonics?: true
    Max angular momentum: 4

  Minimum eigenvalue in the overlap matrix is 8.9543795390E-03.
  Using Symmetric Orthogonalization.

  SCF Guess: Superposition of Atomic Densities via on-the-fly atomic UHF.

  ==> Iterations <==

                           Total Energy        Delta E     RMS |[F,P]|

   @DF-RHF iter SAD:  -114.41549901593541   -1.14415e+02   0.00000e+00 
   @DF-RHF iter   1:  -115.00304761460470   -5.87549e-01   6.39942e-03 DIIS
   @DF-RHF iter   2:  -115.05901725525538   -5.59696e-02   3.51566e-03 DIIS
   @DF-RHF iter   3:  -115.07380544229454   -1.47882e-02   5.64666e-04 DIIS
   @DF-RHF iter   4:  -115.07465399133116   -8.48549e-04   1.54771e-04 DIIS
   @DF-RHF iter   5:  -115.07471572231789   -6.17310e-05   3.86237e-05 DIIS
   @DF-RHF iter   6:  -115.07471963510343   -3.91279e-06   8.23601e-06 DIIS
   @DF-RHF iter   7:  -115.07471993351339   -2.98410e-07   1.92498e-06 DIIS
   @DF-RHF iter   8:  -115.07471995189775   -1.83844e-08   3.56680e-07 DIIS
   @DF-RHF iter   9:  -115.07471995252575   -6.28006e-10   6.80681e-08 DIIS
   @DF-RHF iter  10:  -115.07471995254825   -2.24958e-11   1.83419e-08 DIIS
   @DF-RHF iter  11:  -115.07471995254971   -1.46372e-12   3.32727e-09 DIIS
  Energy and wave function converged.


  ==> Post-Iterations <==

    Orbital Energies [Eh]
    ---------------------

    Doubly Occupied:                                                      

       1A    -20.545741     2A    -11.270907     3A     -1.353495  
       4A     -0.920968     5A     -0.686961     6A     -0.616168  
       7A     -0.589532     8A     -0.498425     9A     -0.445780  

    Virtual:                                                              

      10A      0.153614    11A      0.187655    12A      0.225629  
      13A      0.231632    14A      0.344085    15A      0.454613  
      16A      0.479305    17A      0.581128    18A      0.685227  
      19A      0.725014    20A      0.782906    21A      0.796701  
      22A      0.899308    23A      1.023142    24A      1.052556  
      25A      1.113326    26A      1.313573    27A      1.388333  
      28A      1.595280    29A      1.619246    30A      1.712733  
      31A      1.714755    32A      1.740023    33A      1.742805  
      34A      1.872635    35A      1.936019    36A      2.040709  
      37A      2.259016    38A      2.297608    39A      2.393251  
      40A      2.475962    41A      2.608925    42A      2.645933  
      43A      2.707454    44A      2.794852    45A      2.812124  
      46A      2.899627    47A      3.094929    48A      3.319792  
      49A      3.472015    50A      3.601131    51A      3.684100  
      52A      4.060949    53A      4.156051    54A      4.303690  
      55A      4.371009    56A      5.408151    57A      5.793854  
      58A      6.205751    59A     25.011062    60A     51.578782  

    Final Occupation by Irrep:
              A 
    DOCC [     9 ]

  @DF-RHF Final Energy:  -115.07471995254971

   => Energetics <=

    Nuclear Repulsion Energy =             40.3510690759957527
    One-Electron Energy =                -236.9956221439042565
    Two-Electron Energy =                  81.5698331153587901
    Total Energy =                       -115.0747199525497138

Computation Completed


Properties will be evaluated at  -0.000000,   0.000000,  -0.000000 [a0]

Properties computed using the SCF density matrix

  Nuclear Dipole Moment: [e a0]
     X:    -2.1975      Y:    -0.6389      Z:    -0.2162

  Electronic Dipole Moment: [e a0]
     X:     1.7595      Y:     0.0744      Z:     0.0251

  Dipole Moment: [e a0]
     X:    -0.4380      Y:    -0.5646      Z:    -0.1910     Total:     0.7397

  Dipole Moment: [D]
     X:    -1.1133      Y:    -1.4350      Z:    -0.4856     Total:     1.8800


*** tstop() called on node37.bme.utexas.edu at Mon Sep 21 14:58:55 2020
Module time:
	user time   =       1.09 seconds =       0.02 minutes
	system time =       0.03 seconds =       0.00 minutes
	total time  =          1 seconds =       0.02 minutes
Total time:
	user time   =       1.09 seconds =       0.02 minutes
	system time =       0.03 seconds =       0.00 minutes
	total time  =          1 seconds =       0.02 minutes

*** tstart() called on node37.bme.utexas.edu
*** at Mon Sep 21 14:58:55 2020


  //>>>>>>>>>>>>>>>>>>>>>>>>>>>>>>>>>>>//
  //               DFMP2               //
  //<<<<<<<<<<<<<<<<<<<<<<<<<<<<<<<<<<<//

   => Loading Basis Set <=

    Name: (6-311G** AUX)
    Role: RIFIT
    Keyword: DF_BASIS_MP2
    atoms 1   entry O          line   305 file /home/bdw2292/miniconda3/envs/p4env/share/psi4/basis/cc-pvtz-ri.gbs 
    atoms 2   entry C          line   209 file /home/bdw2292/miniconda3/envs/p4env/share/psi4/basis/cc-pvtz-ri.gbs 
    atoms 3-6 entry H          line    19 file /home/bdw2292/miniconda3/envs/p4env/share/psi4/basis/cc-pvtz-ri.gbs 

	 --------------------------------------------------------
	                          DF-MP2                         
	      2nd-Order Density-Fitted Moller-Plesset Theory     
	              RMP2 Wavefunction,   1 Threads             
	                                                         
	        Rob Parrish, Justin Turney, Andy Simmonett,      
	           Ed Hohenstein, and C. David Sherrill          
	 --------------------------------------------------------

   => Auxiliary Basis Set <=

  Basis Set: (6-311G** AUX)
    Blend: CC-PVTZ-RI
    Number of shells: 86
    Number of basis function: 282
    Number of Cartesian functions: 342
    Spherical Harmonics?: true
    Max angular momentum: 4

	 --------------------------------------------------------
	                 NBF =    60, NAUX =   282
	 --------------------------------------------------------
	   CLASS    FOCC     OCC    AOCC    AVIR     VIR    FVIR
	   PAIRS       2       9       7      51      51       0
	 --------------------------------------------------------

	-----------------------------------------------------------
	 ==================> DF-MP2 Energies <==================== 
	-----------------------------------------------------------
	 Reference Energy          =    -115.0747199525497138 [Eh]
	 Singles Energy            =      -0.0000000000000000 [Eh]
	 Same-Spin Energy          =      -0.0852217442030819 [Eh]
	 Opposite-Spin Energy      =      -0.2763122170283420 [Eh]
	 Correlation Energy        =      -0.3615339612314240 [Eh]
	 Total Energy              =    -115.4362539137811439 [Eh]
	-----------------------------------------------------------
	 ================> DF-SCS-MP2 Energies <================== 
	-----------------------------------------------------------
	 SCS Same-Spin Scale       =       0.3333333333333333 [-]
	 SCS Opposite-Spin Scale   =       1.2000000000000000 [-]
	 SCS Same-Spin Energy      =      -0.0284072480676940 [Eh]
	 SCS Opposite-Spin Energy  =      -0.3315746604340104 [Eh]
	 SCS Correlation Energy    =      -0.3599819085017044 [Eh]
	 SCS Total Energy          =    -115.4347018610514226 [Eh]
	-----------------------------------------------------------


*** tstop() called on node37.bme.utexas.edu at Mon Sep 21 14:58:55 2020
Module time:
	user time   =       0.29 seconds =       0.00 minutes
	system time =       0.01 seconds =       0.00 minutes
	total time  =          0 seconds =       0.00 minutes
Total time:
	user time   =       1.38 seconds =       0.02 minutes
	system time =       0.04 seconds =       0.00 minutes
	total time  =          1 seconds =       0.02 minutes

    Psi4 stopped on: Monday, 21 September 2020 02:58PM
    Psi4 wall time for execution: 0:00:01.61

*** Psi4 exiting successfully. Buy a developer a beer!
