
    -----------------------------------------------------------------------
          Psi4: An Open-Source Ab Initio Electronic Structure Package
                               Psi4 1.6 release

                         Git: Rev {HEAD} 77475b5 


    D. G. A. Smith, L. A. Burns, A. C. Simmonett, R. M. Parrish,
    M. C. Schieber, R. Galvelis, P. Kraus, H. Kruse, R. Di Remigio,
    A. Alenaizan, A. M. James, S. Lehtola, J. P. Misiewicz, M. Scheurer,
    R. A. Shaw, J. B. Schriber, Y. Xie, Z. L. Glick, D. A. Sirianni,
    J. S. O'Brien, J. M. Waldrop, A. Kumar, E. G. Hohenstein,
    B. P. Pritchard, B. R. Brooks, H. F. Schaefer III, A. Yu. Sokolov,
    K. Patkowski, A. E. DePrince III, U. Bozkaya, R. A. King,
    F. A. Evangelista, J. M. Turney, T. D. Crawford, C. D. Sherrill,
    J. Chem. Phys. 152(18) 184108 (2020). https://doi.org/10.1063/5.0006002

                            Additional Code Authors
    E. T. Seidl, C. L. Janssen, E. F. Valeev, M. L. Leininger,
    J. F. Gonthier, R. M. Richard, H. R. McAlexander, M. Saitow, X. Wang,
    P. Verma, M. H. Lechner, and A. Jiang

             Previous Authors, Complete List of Code Contributors,
                       and Citations for Specific Modules
    https://github.com/psi4/psi4/blob/master/codemeta.json
    https://github.com/psi4/psi4/graphs/contributors
    http://psicode.org/psi4manual/master/introduction.html#citing-psifour

    -----------------------------------------------------------------------


    Psi4 started on: Saturday, 18 November 2023 08:03AM

    Process ID: 1107548
    Host:       node165.bme.utexas.edu
    PSIDATADIR: /home/liuchw/anaconda3/envs/poltype2022/share/psi4
    Memory:     500.0 MiB
    Threads:    1
    
  ==> Input File <==

--------------------------------------------------------------------------
molecule { 
0 1
C          1.74620       -1.05080        0.18250
N          2.96770       -1.22590        0.93830
C          2.83610       -1.83070        2.26690
H          2.07280       -2.61550        2.26200
C          4.20790       -0.75070        0.46350
H          3.76190       -2.31380        2.58500
H          2.58270       -1.04830        2.98880
C          0.49640       -1.04020        0.82360
C         -0.69030       -0.69330       -1.27690
C         -0.69900       -0.87610        0.10610
C          0.54570       -0.74670       -1.92620
C          1.74110       -0.91260       -1.20990
C          5.41700       -0.91200        1.42550
O          4.37860       -0.19540       -0.62670
H          0.40570       -1.13160        1.90150
H         -1.63560       -0.88150        0.65530
H          0.59670       -0.66530       -3.00930
H          2.65370       -0.96970       -1.79450
H          5.63850       -1.98490        1.46880
H          5.16110       -0.54490        2.42510
H         -1.56360       -0.52500       -1.80050
H          6.25950       -0.35070        1.07910
}
memory 208GB
set_num_threads(51)
psi4_io.set_default_path("/scratch/liuchw/Psi4-farH_in17")
set maxiter 500
set freeze_core True
set PROPERTIES_ORIGIN ["COM"]
set cubeprop_tasks ['esp']
set basis MINIX 
E, wfn = properties('hf',properties=['dipole','WIBERG_LOWDIN_INDICES','MULLIKEN_CHARGES'],return_wfn=True)
cubeprop(wfn)
fchk(wfn, "farH_in17-esp_frag.fchk")
clean()
--------------------------------------------------------------------------

  Memory set to 193.715 GiB by Python driver.
  Threads set to 51 by Python driver.

*** tstart() called on node165.bme.utexas.edu
*** at Sat Nov 18 08:03:12 2023

   => Loading Basis Set <=

    Name: MINIX
    Role: ORBITAL
    Keyword: BASIS
    atoms 1, 3, 5, 8-13 entry C          line    74 file /home/liuchw/anaconda3/envs/poltype2022/share/psi4/basis/minix.gbs 
    atoms 2             entry N          line    88 file /home/liuchw/anaconda3/envs/poltype2022/share/psi4/basis/minix.gbs 
    atoms 4, 6-7, 15-22 entry H          line    24 file /home/liuchw/anaconda3/envs/poltype2022/share/psi4/basis/minix.gbs 
    atoms 14            entry O          line   102 file /home/liuchw/anaconda3/envs/poltype2022/share/psi4/basis/minix.gbs 


         ---------------------------------------------------------
                                   SCF
               by Justin Turney, Rob Parrish, Andy Simmonett
                          and Daniel G. A. Smith
                              RHF Reference
                       51 Threads, 198364 MiB Core
         ---------------------------------------------------------

  ==> Geometry <==

    Molecular point group: c1
    Full point group: C1

    Geometry (in Angstrom), charge = 0, multiplicity = 1:

       Center              X                  Y                   Z               Mass       
    ------------   -----------------  -----------------  -----------------  -----------------
         C           -0.433387656088    -0.117218364348     0.033549614502    12.000000000000
         N            0.788112343912    -0.292318364348     0.789349614502    14.003074004430
         C            0.656512343912    -0.897118364348     2.117949614502    12.000000000000
         H           -0.106787656088    -1.681918364348     2.113049614502     1.007825032230
         C            2.028312343912     0.182881635652     0.314549614502    12.000000000000
         H            1.582312343912    -1.380218364348     2.436049614502     1.007825032230
         H            0.403112343912    -0.114718364348     2.839849614502     1.007825032230
         C           -1.683187656088    -0.106618364348     0.674649614502    12.000000000000
         C           -2.869887656088     0.240281635652    -1.425850385498    12.000000000000
         C           -2.878587656088     0.057481635652    -0.042850385498    12.000000000000
         C           -1.633887656088     0.186881635652    -2.075150385498    12.000000000000
         C           -0.438487656088     0.020981635652    -1.358850385498    12.000000000000
         C            3.237412343912     0.021581635652     1.276549614502    12.000000000000
         O            2.199012343912     0.738181635652    -0.775650385498    15.994914619570
         H           -1.773887656088    -0.198018364348     1.752549614502     1.007825032230
         H           -3.815187656088     0.052081635652     0.506349614502     1.007825032230
         H           -1.582887656088     0.268281635652    -3.158250385498     1.007825032230
         H            0.474112343912    -0.036118364348    -1.943450385498     1.007825032230
         H            3.458912343912    -1.051318364348     1.319849614502     1.007825032230
         H            2.981512343912     0.388681635652     2.276149614502     1.007825032230
         H           -3.743187656088     0.408581635652    -1.949450385498     1.007825032230
         H            4.079912343912     0.582881635652     0.930149614502     1.007825032230

  Running in c1 symmetry.

  Rotational constants: A =      0.08119  B =      0.02454  C =      0.01936 [cm^-1]
  Rotational constants: A =   2434.14884  B =    735.76005  C =    580.32020 [MHz]
  Nuclear repulsion =  584.041895317675653

  Charge       = 0
  Multiplicity = 1
  Electrons    = 80
  Nalpha       = 40
  Nbeta        = 40

  ==> Algorithm <==

  SCF Algorithm Type is DF.
  DIIS enabled.
  MOM disabled.
  Fractional occupation disabled.
  Guess Type is SAD.
  Energy threshold   = 1.00e-06
  Density threshold  = 1.00e-06
  Integral threshold = 1.00e-12

  ==> Primary Basis <==

  Basis Set: MINIX
    Blend: MINIX
    Number of shells: 44
    Number of basis functions: 66
    Number of Cartesian functions: 66
    Spherical Harmonics?: true
    Max angular momentum: 1

   => Loading Basis Set <=

    Name: (MINIX AUX)
    Role: JKFIT
    Keyword: DF_BASIS_SCF
    atoms 1, 3, 5, 8-13 entry C          line   198 file /home/liuchw/anaconda3/envs/poltype2022/share/psi4/basis/def2-universal-jkfit.gbs 
    atoms 2             entry N          line   258 file /home/liuchw/anaconda3/envs/poltype2022/share/psi4/basis/def2-universal-jkfit.gbs 
    atoms 4, 6-7, 15-22 entry H          line    18 file /home/liuchw/anaconda3/envs/poltype2022/share/psi4/basis/def2-universal-jkfit.gbs 
    atoms 14            entry O          line   318 file /home/liuchw/anaconda3/envs/poltype2022/share/psi4/basis/def2-universal-jkfit.gbs 

  ==> Integral Setup <==

  DFHelper Memory: AOs need 0.042 GiB; user supplied 145.286 GiB. Using in-core AOs.

  ==> MemDFJK: Density-Fitted J/K Matrices <==

    J tasked:                   Yes
    K tasked:                   Yes
    wK tasked:                   No
    OpenMP threads:              51
    Memory [MiB]:            148773
    Algorithm:                 Core
    Schwarz Cutoff:           1E-12
    Mask sparsity (%):       4.0863
    Fitting Condition:        1E-10

   => Auxiliary Basis Set <=

  Basis Set: (MINIX AUX)
    Blend: DEF2-UNIVERSAL-JKFIT
    Number of shells: 341
    Number of basis functions: 1027
    Number of Cartesian functions: 1207
    Spherical Harmonics?: true
    Max angular momentum: 4

  Minimum eigenvalue in the overlap matrix is 1.7397905035E-01.
  Reciprocal condition number of the overlap matrix is 6.4673281339E-02.
    Using symmetric orthogonalization.

  ==> Pre-Iterations <==

  SCF Guess: Superposition of Atomic Densities via on-the-fly atomic UHF (no occupation information).

   -------------------------
    Irrep   Nso     Nmo    
   -------------------------
     A         66      66 
   -------------------------
    Total      66      66
   -------------------------

  ==> Iterations <==

                           Total Energy        Delta E     RMS |[F,P]|

   @DF-RHF iter SAD:  -467.58883100792684   -4.67589e+02   0.00000e+00 
   @DF-RHF iter   1:  -473.08069176674746   -5.49186e+00   7.47188e-03 DIIS/ADIIS
   @DF-RHF iter   2:  -473.18021619469266   -9.95244e-02   6.00290e-03 DIIS/ADIIS
   @DF-RHF iter   3:  -473.26075194077094   -8.05357e-02   5.44116e-04 DIIS/ADIIS
   @DF-RHF iter   4:  -473.26266795181573   -1.91601e-03   2.58882e-04 DIIS/ADIIS
   @DF-RHF iter   5:  -473.26299955524519   -3.31603e-04   8.46288e-05 DIIS
   @DF-RHF iter   6:  -473.26305525346152   -5.56982e-05   3.03660e-05 DIIS
   @DF-RHF iter   7:  -473.26306076288324   -5.50942e-06   1.05570e-05 DIIS
   @DF-RHF iter   8:  -473.26306139094174   -6.28059e-07   3.29717e-06 DIIS
   @DF-RHF iter   9:  -473.26306145802806   -6.70863e-08   9.34736e-07 DIIS
  Energy and wave function converged.


  ==> Post-Iterations <==

    Orbital Energies [Eh]
    ---------------------

    Doubly Occupied:                                                      

       1A    -20.297673     2A    -15.453418     3A    -11.323422  
       4A    -11.234983     5A    -11.217509     6A    -11.178848  
       7A    -11.176118     8A    -11.172992     9A    -11.168991  
      10A    -11.168523    11A    -11.164827    12A     -1.373454  
      13A     -1.243994    14A     -1.146421    15A     -1.031765  
      16A     -1.013719    17A     -0.994664    18A     -0.950667  
      19A     -0.839217    20A     -0.818777    21A     -0.753399  
      22A     -0.696054    23A     -0.667877    24A     -0.658969  
      25A     -0.653448    26A     -0.619514    27A     -0.605367  
      28A     -0.596235    29A     -0.577514    30A     -0.569989  
      31A     -0.555571    32A     -0.540713    33A     -0.532095  
      34A     -0.504681    35A     -0.499713    36A     -0.483394  
      37A     -0.405138    38A     -0.390606    39A     -0.342579  
      40A     -0.308213  

    Virtual:                                                              

      41A      0.177648    42A      0.188546    43A      0.243511  
      44A      0.427954    45A      0.455544    46A      0.516870  
      47A      0.544381    48A      0.605320    49A      0.624772  
      50A      0.651403    51A      0.656879    52A      0.674548  
      53A      0.682096    54A      0.686985    55A      0.698353  
      56A      0.706851    57A      0.720644    58A      0.749399  
      59A      0.782376    60A      0.850929    61A      0.866243  
      62A      0.880239    63A      0.917865    64A      0.950727  
      65A      1.049069    66A      1.118990  

    Final Occupation by Irrep:
              A 
    DOCC [    40 ]

  @DF-RHF Final Energy:  -473.26306145802806

   => Energetics <=

    Nuclear Repulsion Energy =            584.0418953176756531
    One-Electron Energy =               -1800.7478084345009393
    Two-Electron Energy =                 743.4428516587972808
    Total Energy =                       -473.2630614580280053

Computation Completed


Properties will be evaluated at  -0.000000,  -0.000000,  -0.000000 [a0]

Properties computed using the HF density matrix


 Multipole Moments:

 ------------------------------------------------------------------------------------
     Multipole            Electronic (a.u.)      Nuclear  (a.u.)        Total (a.u.)
 ------------------------------------------------------------------------------------

 L = 1.  Multiply by 2.5417464519 to convert [e a0] to [Debye]
 Dipole X            :         -1.9614486            1.8437822           -0.1176664
 Dipole Y            :          1.9074277           -2.5847091           -0.6772814
 Dipole Z            :         -5.4026757            6.6714308            1.2687551
 Magnitude           :                                                    1.4430160

 ------------------------------------------------------------------------------------
  Mulliken Charges: (a.u.)
   Center  Symbol    Alpha    Beta     Spin     Total
       1     C     2.94950  2.94950  0.00000  0.10100
       2     N     3.65974  3.65974  0.00000 -0.31947
       3     C     3.12261  3.12261  0.00000 -0.24522
       4     H     0.42630  0.42630  0.00000  0.14741
       5     C     2.80245  2.80245  0.00000  0.39511
       6     H     0.42931  0.42931  0.00000  0.14137
       7     H     0.43280  0.43280  0.00000  0.13440
       8     C     3.07684  3.07684  0.00000 -0.15368
       9     C     3.08020  3.08020  0.00000 -0.16039
      10     C     3.06518  3.06518  0.00000 -0.13036
      11     C     3.06393  3.06393  0.00000 -0.12786
      12     C     3.07060  3.07060  0.00000 -0.14120
      13     C     3.19317  3.19317  0.00000 -0.38635
      14     O     4.20759  4.20759  0.00000 -0.41519
      15     H     0.43285  0.43285  0.00000  0.13430
      16     H     0.43072  0.43072  0.00000  0.13855
      17     H     0.42934  0.42934  0.00000  0.14132
      18     H     0.41590  0.41590  0.00000  0.16820
      19     H     0.42869  0.42869  0.00000  0.14263
      20     H     0.42980  0.42980  0.00000  0.14040
      21     H     0.43060  0.43060  0.00000  0.13880
      22     H     0.42189  0.42189  0.00000  0.15623

   Total alpha = 40.00000, Total beta = 40.00000, Total charge = -0.00000



  Wiberg Bond Indices using Orthogonal Lowdin Orbitals:

  Irrep: 1 Size: 22 x 22

                 1                   2                   3                   4                   5

    1     0.00000000000000     1.03363911276214     0.00143948254388     0.00136219701971     0.00120571500535
    2     1.03363911276214     0.00000000000000     0.99420542963262     0.00359569764242     1.10618152306617
    3     0.00143948254388     0.99420542963262     0.00000000000000     0.97529956452388     0.00183206171400
    4     0.00136219701971     0.00359569764242     0.97529956452388     0.00000000000000     0.00475358786915
    5     0.00120571500535     1.10618152306617     0.00183206171400     0.00475358786915     0.00000000000000
    6     0.00531002747138     0.00200374075765     0.97564476021977     0.00166037227239     0.00183457858212
    7     0.00067981389962     0.00949404405644     0.97449380546858     0.00026358123081     0.00277836009660
    8     1.39788945049483     0.02334340186831     0.00203649605791     0.00121308666054     0.00860879850991
    9     0.10364145847859     0.01017737370426     0.00035632212252     0.00012909603529     0.00202757647582
   10     0.00362761305484     0.00710851658904     0.00038372641562     0.00002529157335     0.00050807407068
   11     0.00367691358555     0.00780759683518     0.00061307520008     0.00005318938690     0.00009208654966
   12     1.39859290341396     0.02208302256580     0.00586924829106     0.00024335634526     0.00445605691583
   13     0.00856025460838     0.00707139684869     0.00195506257126     0.00029070220583     0.98532644229895
   14     0.00328400305333     0.14121879663571     0.00887466900282     0.00154534014136     1.82772759883970
   15     0.00042305525036     0.00355683725563     0.00098884731631     0.00029594001556     0.00010980770436
   16     0.00658338096656     0.00041809234677     0.00001799513308     0.00000244910869     0.00015160060748
   17     0.00662240425069     0.00043218179742     0.00016135786626     0.00001188040122     0.00000511895255
   18     0.00060930196427     0.00338335705958     0.00011576069153     0.00000918192591     0.00030390001770
   19     0.00001007050530     0.00178242140480     0.00028606084864     0.00001946745414     0.00355387590109
   20     0.00005197791590     0.00182740753295     0.00053796669313     0.00001933164077     0.00200470318457
   21     0.00017113893285     0.00016731487812     0.00001149410207     0.00000012687553     0.00000219183408
   22     0.00046922987254     0.00408348814059     0.00092479293270     0.00011011237908     0.00171407828340

                 6                   7                   8                   9                  10

    1     0.00531002747138     0.00067981389962     1.39788945049483     0.10364145847859     0.00362761305484
    2     0.00200374075765     0.00949404405644     0.02334340186831     0.01017737370426     0.00710851658904
    3     0.97564476021977     0.97449380546858     0.00203649605791     0.00035632212252     0.00038372641562
    4     0.00166037227239     0.00026358123081     0.00121308666054     0.00012909603529     0.00002529157335
    5     0.00183457858212     0.00277836009660     0.00860879850991     0.00202757647582     0.00050807407068
    6     0.00000000000000     0.00049130685594     0.00088097845270     0.00021196696516     0.00004689079092
    7     0.00049130685594     0.00000000000000     0.00097657876277     0.00030589329571     0.00001208372550
    8     0.00088097845270     0.00097657876277     0.00000000000000     0.00371384747230     1.44243937385375
    9     0.00021196696516     0.00030589329571     0.00371384747230     0.00000000000000     1.43774803860504
   10     0.00004689079092     0.00001208372550     1.44243937385375     1.43774803860504     0.00000000000000
   11     0.00011752010476     0.00004240205282     0.11214767600078     1.43402149787421     0.00362697159734
   12     0.00050866891413     0.00043099585696     0.00388748939189     0.00312952622974     0.11207257522662
   13     0.00140044363979     0.00006358356982     0.00063320772350     0.00009501692875     0.00022883891816
   14     0.00068957856371     0.00290709084411     0.00495049244333     0.00317879581698     0.00033446518786
   15     0.00000940530368     0.00008737846943     0.96776816343942     0.00673465472781     0.00103540899445
   16     0.00000723374045     0.00000440427764     0.00074813942748     0.00075671171443     0.96883020759965
   17     0.00002007523507     0.00000203484573     0.00026469138912     0.00067295734871     0.00718352006049
   18     0.00001727795283     0.00000767600949     0.00652971036098     0.00676076555469     0.00041471555128
   19     0.00064710882385     0.00005495248098     0.00008897078951     0.00004681672818     0.00000442052035
   20     0.00008651518960     0.00009879202865     0.00007085746322     0.00004302485060     0.00000432085391
   21     0.00000199336945     0.00000142826274     0.00680321270197     0.97007540467381     0.00112151181915
   22     0.00003069029309     0.00000182316215     0.00009299525961     0.00000513025406     0.00003464877382

                11                  12                  13                  14                  15

    1     0.00367691358555     1.39859290341396     0.00856025460838     0.00328400305333     0.00042305525036
    2     0.00780759683518     0.02208302256580     0.00707139684869     0.14121879663571     0.00355683725563
    3     0.00061307520008     0.00586924829106     0.00195506257126     0.00887466900282     0.00098884731631
    4     0.00005318938690     0.00024335634526     0.00029070220583     0.00154534014136     0.00029594001556
    5     0.00009208654966     0.00445605691583     0.98532644229895     1.82772759883970     0.00010980770436
    6     0.00011752010476     0.00050866891413     0.00140044363979     0.00068957856371     0.00000940530368
    7     0.00004240205282     0.00043099585696     0.00006358356982     0.00290709084411     0.00008737846943
    8     0.11214767600078     0.00388748939189     0.00063320772350     0.00495049244333     0.96776816343942
    9     1.43402149787421     0.00312952622974     0.00009501692875     0.00317879581698     0.00673465472781
   10     0.00362697159734     0.11207257522662     0.00022883891816     0.00033446518786     0.00103540899445
   11     0.00000000000000     1.44487665978571     0.00010293412804     0.00096832045822     0.00042435699001
   12     1.44487665978571     0.00000000000000     0.00040022655273     0.00959658836497     0.00647811738057
   13     0.00010293412804     0.00040022655273     0.00000000000000     0.04155614270703     0.00004973479708
   14     0.00096832045822     0.00959658836497     0.04155614270703     0.00000000000000     0.00003345832356
   15     0.00042435699001     0.00647811738057     0.00004973479708     0.00003345832356     0.00000000000000
   16     0.00725520238944     0.00025338303652     0.00004748495379     0.00001801830194     0.00357367588653
   17     0.96840302811736     0.00084698058985     0.00000053521604     0.00005495957020     0.00005977103547
   18     0.00113162687655     0.96136475711178     0.00000547749279     0.00234844546717     0.00079918018053
   19     0.00000151911071     0.00009420242552     0.96987593543942     0.01205612375849     0.00000003695382
   20     0.00000475608387     0.00006524857103     0.97393081382212     0.01010183729452     0.00000029044996
   21     0.00115046193190     0.00675450221578     0.00000447552418     0.00002893147892     0.00030851001255
   22     0.00000258259296     0.00001166465758     0.97672485484887     0.00275613539006     0.00001123196293

                16                  17                  18                  19                  20

    1     0.00658338096656     0.00662240425069     0.00060930196427     0.00001007050530     0.00005197791590
    2     0.00041809234677     0.00043218179742     0.00338335705958     0.00178242140480     0.00182740753295
    3     0.00001799513308     0.00016135786626     0.00011576069153     0.00028606084864     0.00053796669313
    4     0.00000244910869     0.00001188040122     0.00000918192591     0.00001946745414     0.00001933164077
    5     0.00015160060748     0.00000511895255     0.00030390001770     0.00355387590109     0.00200470318457
    6     0.00000723374045     0.00002007523507     0.00001727795283     0.00064710882385     0.00008651518960
    7     0.00000440427764     0.00000203484573     0.00000767600949     0.00005495248098     0.00009879202865
    8     0.00074813942748     0.00026469138912     0.00652971036098     0.00008897078951     0.00007085746322
    9     0.00075671171443     0.00067295734871     0.00676076555469     0.00004681672818     0.00004302485060
   10     0.96883020759965     0.00718352006049     0.00041471555128     0.00000442052035     0.00000432085391
   11     0.00725520238944     0.96840302811736     0.00113162687655     0.00000151911071     0.00000475608387
   12     0.00025338303652     0.00084698058985     0.96136475711178     0.00009420242552     0.00006524857103
   13     0.00004748495379     0.00000053521604     0.00000547749279     0.96987593543942     0.97393081382212
   14     0.00001801830194     0.00005495957020     0.00234844546717     0.01205612375849     0.01010183729452
   15     0.00357367588653     0.00005977103547     0.00079918018053     0.00000003695382     0.00000029044996
   16     0.00000000000000     0.00059825219410     0.00006161228167     0.00000019960378     0.00000004379549
   17     0.00059825219410     0.00000000000000     0.00365234025707     0.00000000660694     0.00000035414530
   18     0.00006161228167     0.00365234025707     0.00000000000000     0.00000301494648     0.00000041007490
   19     0.00000019960378     0.00000000660694     0.00000301494648     0.00000000000000     0.00091513239408
   20     0.00000004379549     0.00000035414530     0.00000041007490     0.00091513239408     0.00000000000000
   21     0.00306876222889     0.00304192449592     0.00029937818090     0.00000000303318     0.00000012574578
   22     0.00000512659959     0.00000069728155     0.00001260863439     0.00105406493039     0.00126323112892

                21                  22

    1     0.00017113893285     0.00046922987254
    2     0.00016731487812     0.00408348814059
    3     0.00001149410207     0.00092479293270
    4     0.00000012687553     0.00011011237908
    5     0.00000219183408     0.00171407828340
    6     0.00000199336945     0.00003069029309
    7     0.00000142826274     0.00000182316215
    8     0.00680321270197     0.00009299525961
    9     0.97007540467381     0.00000513025406
   10     0.00112151181915     0.00003464877382
   11     0.00115046193190     0.00000258259296
   12     0.00675450221578     0.00001166465758
   13     0.00000447552418     0.97672485484887
   14     0.00002893147892     0.00275613539006
   15     0.00030851001255     0.00001123196293
   16     0.00306876222889     0.00000512659959
   17     0.00304192449592     0.00000069728155
   18     0.00029937818090     0.00001260863439
   19     0.00000000303318     0.00105406493039
   20     0.00000012574578     0.00126323112892
   21     0.00000000000000     0.00000032703162
   22     0.00000032703162     0.00000000000000



  Atomic Valences: 

 #  #
 Irrep: 1
      1:    3.977849505050016
      2:    3.383580753380295
      3:    3.946047979347706
      4:    0.990903552707800
      5:    3.955177736479155
      6:    0.991621133498409
      7:    0.993198029252516
      8:    3.985087618523834
      9:    3.983831875856647
     10:    3.986791213781790
     11:    3.986520377652060
     12:    3.982016173843290
     13:    3.968323564795224
     14:    2.074229791644015
     15:    0.992747862450021
     16:    0.992401976193973
     17:    0.992035071657040
     18:    0.987830498592495
     19:    0.990494404659639
     20:    0.991027140859280
     21:    0.993013219329393
     22:    0.989309514409902


*** tstop() called on node165.bme.utexas.edu at Sat Nov 18 08:03:13 2023
Module time:
	user time   =      41.26 seconds =       0.69 minutes
	system time =       1.61 seconds =       0.03 minutes
	total time  =          1 seconds =       0.02 minutes
Total time:
	user time   =      41.26 seconds =       0.69 minutes
	system time =       1.61 seconds =       0.03 minutes
	total time  =          1 seconds =       0.02 minutes
  ==> One Electron Grid Properties (v2.0) <==

  ==> CubicScalarGrid <==

    Filepath     = .
    Total Points =           727552
    XYZ Blocking =               10
    X Points     =              116
    Y Points     =               64
    Z Points     =               98
    X Spacing    =        2.000E-01
    Y Spacing    =        2.000E-01
    Z Spacing    =        2.000E-01
    X Minimum    =       -1.125E+01
    Y Minimum    =       -7.192E+00
    Z Minimum    =       -1.000E+01
    X Maximum    =        1.175E+01
    Y Maximum    =        5.408E+00
    Z Maximum    =        9.399E+00

  Basis Set: MINIX
    Blend: MINIX
    Number of shells: 44
    Number of basis functions: 66
    Number of Cartesian functions: 66
    Spherical Harmonics?: true
    Max angular momentum: 1

*********************************************************************************************************************
When computing potential integrals with different bra and ket basis, the atom definition is taken from the bra basis.
*********************************************************************************************************************
*********************************************************************************************************************
When computing potential integrals with different bra and ket basis, the atom definition is taken from the bra basis.
*********************************************************************************************************************
*********************************************************************************************************************
When computing potential integrals with different bra and ket basis, the atom definition is taken from the bra basis.
*********************************************************************************************************************
*********************************************************************************************************************
When computing potential integrals with different bra and ket basis, the atom definition is taken from the bra basis.
*********************************************************************************************************************
*********************************************************************************************************************
When computing potential integrals with different bra and ket basis, the atom definition is taken from the bra basis.
*********************************************************************************************************************
*********************************************************************************************************************
When computing potential integrals with different bra and ket basis, the atom definition is taken from the bra basis.
*********************************************************************************************************************
*********************************************************************************************************************
When computing potential integrals with different bra and ket basis, the atom definition is taken from the bra basis.
*********************************************************************************************************************
*********************************************************************************************************************
When computing potential integrals with different bra and ket basis, the atom definition is taken from the bra basis.
*********************************************************************************************************************
*********************************************************************************************************************
When computing potential integrals with different bra and ket basis, the atom definition is taken from the bra basis.
*********************************************************************************************************************
*********************************************************************************************************************
When computing potential integrals with different bra and ket basis, the atom definition is taken from the bra basis.
*********************************************************************************************************************
*********************************************************************************************************************
When computing potential integrals with different bra and ket basis, the atom definition is taken from the bra basis.
*********************************************************************************************************************
*********************************************************************************************************************
When computing potential integrals with different bra and ket basis, the atom definition is taken from the bra basis.
*********************************************************************************************************************
*********************************************************************************************************************
When computing potential integrals with different bra and ket basis, the atom definition is taken from the bra basis.
*********************************************************************************************************************
*********************************************************************************************************************
When computing potential integrals with different bra and ket basis, the atom definition is taken from the bra basis.
*********************************************************************************************************************
*********************************************************************************************************************
When computing potential integrals with different bra and ket basis, the atom definition is taken from the bra basis.
*********************************************************************************************************************
*********************************************************************************************************************
When computing potential integrals with different bra and ket basis, the atom definition is taken from the bra basis.
*********************************************************************************************************************
*********************************************************************************************************************
When computing potential integrals with different bra and ket basis, the atom definition is taken from the bra basis.
*********************************************************************************************************************
*********************************************************************************************************************
When computing potential integrals with different bra and ket basis, the atom definition is taken from the bra basis.
*********************************************************************************************************************
*********************************************************************************************************************
When computing potential integrals with different bra and ket basis, the atom definition is taken from the bra basis.
*********************************************************************************************************************
*********************************************************************************************************************
When computing potential integrals with different bra and ket basis, the atom definition is taken from the bra basis.
*********************************************************************************************************************
*********************************************************************************************************************
When computing potential integrals with different bra and ket basis, the atom definition is taken from the bra basis.
*********************************************************************************************************************
*********************************************************************************************************************
When computing potential integrals with different bra and ket basis, the atom definition is taken from the bra basis.
*********************************************************************************************************************
*********************************************************************************************************************
When computing potential integrals with different bra and ket basis, the atom definition is taken from the bra basis.
*********************************************************************************************************************
*********************************************************************************************************************
When computing potential integrals with different bra and ket basis, the atom definition is taken from the bra basis.
*********************************************************************************************************************
*********************************************************************************************************************
When computing potential integrals with different bra and ket basis, the atom definition is taken from the bra basis.
*********************************************************************************************************************
*********************************************************************************************************************
When computing potential integrals with different bra and ket basis, the atom definition is taken from the bra basis.
*********************************************************************************************************************
*********************************************************************************************************************
When computing potential integrals with different bra and ket basis, the atom definition is taken from the bra basis.
*********************************************************************************************************************
*********************************************************************************************************************
When computing potential integrals with different bra and ket basis, the atom definition is taken from the bra basis.
*********************************************************************************************************************
*********************************************************************************************************************
When computing potential integrals with different bra and ket basis, the atom definition is taken from the bra basis.
*********************************************************************************************************************
*********************************************************************************************************************
When computing potential integrals with different bra and ket basis, the atom definition is taken from the bra basis.
*********************************************************************************************************************
*********************************************************************************************************************
When computing potential integrals with different bra and ket basis, the atom definition is taken from the bra basis.
*********************************************************************************************************************
*********************************************************************************************************************
When computing potential integrals with different bra and ket basis, the atom definition is taken from the bra basis.
*********************************************************************************************************************
*********************************************************************************************************************
When computing potential integrals with different bra and ket basis, the atom definition is taken from the bra basis.
*********************************************************************************************************************
*********************************************************************************************************************
When computing potential integrals with different bra and ket basis, the atom definition is taken from the bra basis.
*********************************************************************************************************************
*********************************************************************************************************************
When computing potential integrals with different bra and ket basis, the atom definition is taken from the bra basis.
*********************************************************************************************************************
*********************************************************************************************************************
When computing potential integrals with different bra and ket basis, the atom definition is taken from the bra basis.
*********************************************************************************************************************
*********************************************************************************************************************
When computing potential integrals with different bra and ket basis, the atom definition is taken from the bra basis.
*********************************************************************************************************************
*********************************************************************************************************************
When computing potential integrals with different bra and ket basis, the atom definition is taken from the bra basis.
*********************************************************************************************************************
*********************************************************************************************************************
When computing potential integrals with different bra and ket basis, the atom definition is taken from the bra basis.
*********************************************************************************************************************
*********************************************************************************************************************
When computing potential integrals with different bra and ket basis, the atom definition is taken from the bra basis.
*********************************************************************************************************************
*********************************************************************************************************************
When computing potential integrals with different bra and ket basis, the atom definition is taken from the bra basis.
*********************************************************************************************************************
*********************************************************************************************************************
When computing potential integrals with different bra and ket basis, the atom definition is taken from the bra basis.
*********************************************************************************************************************
*********************************************************************************************************************
When computing potential integrals with different bra and ket basis, the atom definition is taken from the bra basis.
*********************************************************************************************************************
*********************************************************************************************************************
When computing potential integrals with different bra and ket basis, the atom definition is taken from the bra basis.
*********************************************************************************************************************
*********************************************************************************************************************
When computing potential integrals with different bra and ket basis, the atom definition is taken from the bra basis.
*********************************************************************************************************************
*********************************************************************************************************************
When computing potential integrals with different bra and ket basis, the atom definition is taken from the bra basis.
*********************************************************************************************************************
*********************************************************************************************************************
When computing potential integrals with different bra and ket basis, the atom definition is taken from the bra basis.
*********************************************************************************************************************
*********************************************************************************************************************
When computing potential integrals with different bra and ket basis, the atom definition is taken from the bra basis.
*********************************************************************************************************************
*********************************************************************************************************************
When computing potential integrals with different bra and ket basis, the atom definition is taken from the bra basis.
*********************************************************************************************************************
*********************************************************************************************************************
When computing potential integrals with different bra and ket basis, the atom definition is taken from the bra basis.
*********************************************************************************************************************
*********************************************************************************************************************
When computing potential integrals with different bra and ket basis, the atom definition is taken from the bra basis.
*********************************************************************************************************************
FCHKWriter: !WARNING! method 'HF'' renamed to label 'HF'.
FCHKWriter: Writing farH_in17-esp_frag.fchk with label ' SCF Density'.

    Psi4 stopped on: Saturday, 18 November 2023 08:03AM
    Psi4 wall time for execution: 0:00:05.04

*** Psi4 exiting successfully. Buy a developer a beer!
