
    -----------------------------------------------------------------------
          Psi4: An Open-Source Ab Initio Electronic Structure Package
                               Psi4 1.6 release

                         Git: Rev {HEAD} 77475b5 


    D. G. A. Smith, L. A. Burns, A. C. Simmonett, R. M. Parrish,
    M. C. Schieber, R. Galvelis, P. Kraus, H. Kruse, R. Di Remigio,
    A. Alenaizan, A. M. James, S. Lehtola, J. P. Misiewicz, M. Scheurer,
    R. A. Shaw, J. B. Schriber, Y. Xie, Z. L. Glick, D. A. Sirianni,
    J. S. O'Brien, J. M. Waldrop, A. Kumar, E. G. Hohenstein,
    B. P. Pritchard, B. R. Brooks, H. F. Schaefer III, A. Yu. Sokolov,
    K. Patkowski, A. E. DePrince III, U. Bozkaya, R. A. King,
    F. A. Evangelista, J. M. Turney, T. D. Crawford, C. D. Sherrill,
    J. Chem. Phys. 152(18) 184108 (2020). https://doi.org/10.1063/5.0006002

                            Additional Code Authors
    E. T. Seidl, C. L. Janssen, E. F. Valeev, M. L. Leininger,
    J. F. Gonthier, R. M. Richard, H. R. McAlexander, M. Saitow, X. Wang,
    P. Verma, M. H. Lechner, and A. Jiang

             Previous Authors, Complete List of Code Contributors,
                       and Citations for Specific Modules
    https://github.com/psi4/psi4/blob/master/codemeta.json
    https://github.com/psi4/psi4/graphs/contributors
    http://psicode.org/psi4manual/master/introduction.html#citing-psifour

    -----------------------------------------------------------------------


    Psi4 started on: Saturday, 18 November 2023 08:10AM

    Process ID: 1114516
    Host:       node165.bme.utexas.edu
    PSIDATADIR: /home/liuchw/anaconda3/envs/poltype2022/share/psi4
    Memory:     500.0 MiB
    Threads:    1
    
  ==> Input File <==

--------------------------------------------------------------------------
molecule { 
0 1
 H   -2.261094    0.479793   -0.280398
 C   -1.412581    0.192617    0.336297
 O   -0.244752    0.708472   -0.298664
 C    0.878540    0.034111   -0.131151
 H   -1.343757   -0.893223    0.421765
 H   -1.509428    0.627483    1.332604
 O    1.025984   -0.970018    0.499459
 H    1.682028    0.550857   -0.682651
}
memory 20GB
set_num_threads(5)
psi4_io.set_default_path("/scratch/liuchw/Psi4-35_38_Index_0-farH_in17")
set freeze_core True
E, wfn = energy('wb97x-d/6-311+G*',return_wfn=True)
oeprop(wfn,"WIBERG_LOWDIN_INDICES")
clean()
--------------------------------------------------------------------------

  Memory set to  18.626 GiB by Python driver.
  Threads set to 5 by Python driver.

Scratch directory: /scratch/liuchw/Psi4-35_38_Index_0-farH_in17/

*** tstart() called on node165.bme.utexas.edu
*** at Sat Nov 18 08:10:04 2023

   => Loading Basis Set <=

    Name: 6-311+G*
    Role: ORBITAL
    Keyword: BASIS
    atoms 1, 5-6, 8 entry H          line    47 file /home/liuchw/anaconda3/envs/poltype2022/share/psi4/basis/6-311pgs.gbs 
    atoms 2, 4      entry C          line   130 file /home/liuchw/anaconda3/envs/poltype2022/share/psi4/basis/6-311pgs.gbs 
    atoms 3, 7      entry O          line   172 file /home/liuchw/anaconda3/envs/poltype2022/share/psi4/basis/6-311pgs.gbs 

   => WB97X-D: Empirical Dispersion <=

    Chai and Head-Gordon Dispersion Correction
    Chai, J.-D.; Head-Gordon, M. (2010), J. Chem. Phys., 132: 6615-6620

        s6 =       1.000000


         ---------------------------------------------------------
                                   SCF
               by Justin Turney, Rob Parrish, Andy Simmonett
                          and Daniel G. A. Smith
                              RKS Reference
                        5 Threads,  19073 MiB Core
         ---------------------------------------------------------

  ==> Geometry <==

    Molecular point group: c1
    Full point group: C1

    Geometry (in Angstrom), charge = 0, multiplicity = 1:

       Center              X                  Y                   Z               Mass       
    ------------   -----------------  -----------------  -----------------  -----------------
         H           -2.304880891234     0.491318516114    -0.388209416641     1.007825032230
         C           -1.456367891234     0.204142516114     0.228485583359    12.000000000000
         O           -0.288538891234     0.719997516114    -0.406475416641    15.994914619570
         C            0.834753108766     0.045636516114    -0.238962416641    12.000000000000
         H           -1.387543891234    -0.881697483886     0.313953583359     1.007825032230
         H           -1.553214891234     0.639008516114     1.224792583359     1.007825032230
         O            0.982197108766    -0.958492483886     0.391647583359    15.994914619570
         H            1.638241108766     0.562382516114    -0.790462416641     1.007825032230

  Running in c1 symmetry.

  Rotational constants: A =      0.69709  B =      0.22631  C =      0.17656 [cm^-1]
  Rotational constants: A =  20898.15051  B =   6784.73452  C =   5292.99564 [MHz]
  Nuclear repulsion =  122.854317886418755

  Charge       = 0
  Multiplicity = 1
  Electrons    = 32
  Nalpha       = 16
  Nbeta        = 16

  ==> Algorithm <==

  SCF Algorithm Type is DF.
  DIIS enabled.
  MOM disabled.
  Fractional occupation disabled.
  Guess Type is SAD.
  Energy threshold   = 1.00e-06
  Density threshold  = 1.00e-06
  Integral threshold = 1.00e-12

  ==> Primary Basis <==

  Basis Set: 6-311+G*
    Blend: 6-311+G*
    Number of shells: 52
    Number of basis functions: 100
    Number of Cartesian functions: 104
    Spherical Harmonics?: true
    Max angular momentum: 2

  ==> DFT Potential <==

   => LibXC <=

    Version 5.1.5
    S. Lehtola, C. Steigemann, M. J. Oliveira, and M. A. Marques, SoftwareX 7, 1 (2018) (10.1016/j.softx.2017.11.002)

   => Composite Functional: WB97X-D <= 

    wB97X-D Hyb-GGA Exchange-Correlation Functional

    J.-D. Chai and M. Head-Gordon, Phys. Chem. Chem. Phys. 10, 6615 (2008) (10.1039/B810189B)

    Deriv               =              1
    GGA                 =           TRUE
    Meta                =          FALSE

    Exchange Hybrid     =           TRUE
    MP2 Hybrid          =          FALSE

   => Exchange-Correlation Functionals <=

    1.0000   wB97X-D range-separated functional

   => Exact (HF) Exchange <=

    0.7780            HF,LR [omega = 0.2000]
    0.2220               HF 

   => LibXC Density Thresholds  <==

    XC_HYB_GGA_XC_WB97X_D:  1.00E-14 

   => Molecular Quadrature <=

    Radial Scheme          =       TREUTLER
    Pruning Scheme         =           NONE
    Nuclear Scheme         =       TREUTLER

    Blocking Scheme        =         OCTREE
    BS radius alpha        =              1
    Pruning alpha          =              1
    Radial Points          =             75
    Spherical Points       =            302
    Total Points           =         174099
    Total Blocks           =           1354
    Max Points             =            256
    Max Functions          =            100
    Weights Tolerance      =       1.00E-15

   => Loading Basis Set <=

    Name: (6-311+G* AUX)
    Role: JKFIT
    Keyword: DF_BASIS_SCF
    atoms 1, 5-6, 8 entry H          line   116 file /home/liuchw/anaconda3/envs/poltype2022/share/psi4/basis/heavy-aug-cc-pvtz-jkfit.gbs 
    atoms 2, 4      entry C          line   200 file /home/liuchw/anaconda3/envs/poltype2022/share/psi4/basis/heavy-aug-cc-pvtz-jkfit.gbs 
    atoms 3, 7      entry O          line   324 file /home/liuchw/anaconda3/envs/poltype2022/share/psi4/basis/heavy-aug-cc-pvtz-jkfit.gbs 

  ==> Integral Setup <==

  DFHelper Memory: AOs need 0.123 GiB; user supplied 13.551 GiB. Using in-core AOs.

  ==> MemDFJK: Density-Fitted J/K Matrices <==

    J tasked:                   Yes
    K tasked:                   Yes
    wK tasked:                  Yes
    Omega:                2.000E-01
    OpenMP threads:               5
    Memory [MiB]:             13876
    Algorithm:                 Core
    Schwarz Cutoff:           1E-12
    Mask sparsity (%):       0.8400
    Fitting Condition:        1E-10

   => Auxiliary Basis Set <=

  Basis Set: (6-311+G* AUX)
    Blend: HEAVY-AUG-CC-PVTZ-JKFIT
    Number of shells: 160
    Number of basis functions: 536
    Number of Cartesian functions: 664
    Spherical Harmonics?: true
    Max angular momentum: 4

  Cached 100.0% of DFT collocation blocks in 0.419 [GiB].

  Minimum eigenvalue in the overlap matrix is 1.1179180835E-03.
  Reciprocal condition number of the overlap matrix is 1.2871027026E-04.
    Using symmetric orthogonalization.

  ==> Pre-Iterations <==

  SCF Guess: Superposition of Atomic Densities via on-the-fly atomic UHF (no occupation information).

   -------------------------
    Irrep   Nso     Nmo    
   -------------------------
     A        100     100 
   -------------------------
    Total     100     100
   -------------------------

  ==> Iterations <==

                           Total Energy        Delta E     RMS |[F,P]|

   @DF-RKS iter SAD:  -228.36567788140104   -2.28366e+02   0.00000e+00 
   @DF-RKS iter   1:  -228.87662218290802   -5.10944e-01   6.77918e-03 DIIS/ADIIS
   @DF-RKS iter   2:  -228.85792923228374    1.86930e-02   7.55752e-03 DIIS/ADIIS
   @DF-RKS iter   3:  -229.04624821141263   -1.88319e-01   1.27619e-03 DIIS/ADIIS
   @DF-RKS iter   4:  -229.05186678617926   -5.61857e-03   4.15016e-04 DIIS/ADIIS
   @DF-RKS iter   5:  -229.05241851132038   -5.51725e-04   1.41542e-04 DIIS/ADIIS
   @DF-RKS iter   6:  -229.05249294345839   -7.44321e-05   2.82511e-05 DIIS
   @DF-RKS iter   7:  -229.05249677435376   -3.83090e-06   5.75224e-06 DIIS
   @DF-RKS iter   8:  -229.05249703817219   -2.63818e-07   2.39232e-06 DIIS
   @DF-RKS iter   9:  -229.05249707997683   -4.18046e-08   5.26115e-07 DIIS
  Energy and wave function converged.


  ==> Post-Iterations <==

   Electrons on quadrature grid:
      Ntotal   =   32.0000038745 ; deviation = 3.874e-06 

    Orbital Energies [Eh]
    ---------------------

    Doubly Occupied:                                                      

       1A    -19.311335     2A    -19.248062     3A    -10.421258  
       4A    -10.345210     5A     -1.233473     6A     -1.142457  
       7A     -0.852883     8A     -0.698009     9A     -0.638019  
      10A     -0.589708    11A     -0.577039    12A     -0.521177  
      13A     -0.498811    14A     -0.455333    15A     -0.404674  
      16A     -0.380831  

    Virtual:                                                              

      17A      0.066668    18A      0.068149    19A      0.081567  
      20A      0.098579    21A      0.101439    22A      0.108055  
      23A      0.128300    24A      0.137759    25A      0.176603  
      26A      0.213326    27A      0.221017    28A      0.234782  
      29A      0.256406    30A      0.260583    31A      0.292249  
      32A      0.296403    33A      0.308548    34A      0.327113  
      35A      0.346928    36A      0.360945    37A      0.377402  
      38A      0.390567    39A      0.417920    40A      0.507681  
      41A      0.518202    42A      0.542126    43A      0.587941  
      44A      0.626945    45A      0.633881    46A      0.654371  
      47A      0.697132    48A      0.744431    49A      0.756888  
      50A      0.803443    51A      0.933712    52A      0.989550  
      53A      1.106817    54A      1.122512    55A      1.167564  
      56A      1.186206    57A      1.223098    58A      1.258216  
      59A      1.311425    60A      1.363182    61A      1.469459  
      62A      1.525111    63A      1.588799    64A      1.626556  
      65A      1.641112    66A      1.688085    67A      1.711400  
      68A      1.794105    69A      1.895884    70A      2.066568  
      71A      2.445062    72A      2.497051    73A      2.504000  
      74A      2.563769    75A      2.675766    76A      2.892109  
      77A      2.918693    78A      2.961139    79A      3.034673  
      80A      3.082862    81A      3.136457    82A      3.248445  
      83A      3.257554    84A      3.312304    85A      3.359838  
      86A      3.468225    87A      3.682115    88A      3.794238  
      89A      3.978639    90A      4.085972    91A      5.051763  
      92A      5.110012    93A      5.187281    94A      5.338691  
      95A      5.641787    96A      5.922377    97A     23.612581  
      98A     23.923291    99A     49.968755   100A     50.078762  

    Final Occupation by Irrep:
              A 
    DOCC [    16 ]

  @DF-RKS Final Energy:  -229.05249707997683

   => Energetics <=

    Nuclear Repulsion Energy =            122.8543178864187553
    One-Electron Energy =                -555.2445763375051229
    Two-Electron Energy =                 223.8293396795120600
    DFT Exchange-Correlation Energy =     -20.4900147944877205
    Empirical Dispersion Energy =          -0.0015635139148355
    VV10 Nonlocal Energy =                  0.0000000000000000
    Total Energy =                       -229.0524970799768880

Computation Completed


Properties will be evaluated at   0.000000,   0.000000,   0.000000 [a0]

Properties computed using the SCF density matrix


 Multipole Moments:

 ------------------------------------------------------------------------------------
     Multipole            Electronic (a.u.)      Nuclear  (a.u.)        Total (a.u.)
 ------------------------------------------------------------------------------------

 L = 1.  Multiply by 2.5417464519 to convert [e a0] to [Debye]
 Dipole X            :          2.7772812           -3.3784930           -0.6012119
 Dipole Y            :         -0.2445283            0.7591531            0.5146248
 Dipole Z            :         -0.5393942            0.3374875           -0.2019068
 Magnitude           :                                                    0.8167378

 ------------------------------------------------------------------------------------

*** tstop() called on node165.bme.utexas.edu at Sat Nov 18 08:10:10 2023
Module time:
	user time   =      12.75 seconds =       0.21 minutes
	system time =       1.41 seconds =       0.02 minutes
	total time  =          6 seconds =       0.10 minutes
Total time:
	user time   =      12.75 seconds =       0.21 minutes
	system time =       1.41 seconds =       0.02 minutes
	total time  =          6 seconds =       0.10 minutes


Properties will be evaluated at   0.000000,   0.000000,   0.000000 [a0]
OEProp: No title given, name of density matrix used for the following properties is 'SCF density'


  Wiberg Bond Indices using Orthogonal Lowdin Orbitals:

  Irrep: 1 Size: 8 x 8

                 1                   2                   3                   4                   5

    1     0.00000000000000     0.90681626154957     0.05570978372873     0.01431653272912     0.00984737602493
    2     0.90681626154957     0.00000000000000     1.24626323535145     0.13142405039142     0.88831108137902
    3     0.05570978372873     1.24626323535145     0.00000000000000     1.57582889746033     0.04537015972643
    4     0.01431653272912     0.13142405039142     1.57582889746033     0.00000000000000     0.02335563560445
    5     0.00984737602493     0.88831108137902     0.04537015972643     0.02335563560445     0.00000000000000
    6     0.00922076354338     0.90347103262975     0.05052028622961     0.01796516448581     0.00854659101578
    7     0.00188795437884     0.08762934736132     0.24991489317720     2.40603532197662     0.02197597297158
    8     0.00017764527821     0.02586518430656     0.07586120975843     0.79915161306404     0.00078695576213

                 6                   7                   8

    1     0.00922076354338     0.00188795437884     0.00017764527821
    2     0.90347103262975     0.08762934736132     0.02586518430656
    3     0.05052028622961     0.24991489317720     0.07586120975843
    4     0.01796516448581     2.40603532197662     0.79915161306404
    5     0.00854659101578     0.02197597297158     0.00078695576213
    6     0.00000000000000     0.00478468517477     0.00008199745507
    7     0.00478468517477     0.00000000000000     0.08503941420957
    8     0.00008199745507     0.08503941420957     0.00000000000000



  Atomic Valences: 

 #  #
 Irrep: 1
      1:    0.997976317232767
      2:    4.189780192969099
      3:    3.299468465432180
      4:    4.968077215711797
      5:    0.998193772484320
      6:    0.994590520534164
      7:    2.857267589249906
      8:    0.986964019833996


    Psi4 stopped on: Saturday, 18 November 2023 08:10AM
    Psi4 wall time for execution: 0:00:07.17

*** Psi4 exiting successfully. Buy a developer a beer!
