
    -----------------------------------------------------------------------
          Psi4: An Open-Source Ab Initio Electronic Structure Package
                               Psi4 1.6 release

                         Git: Rev {HEAD} 77475b5 


    D. G. A. Smith, L. A. Burns, A. C. Simmonett, R. M. Parrish,
    M. C. Schieber, R. Galvelis, P. Kraus, H. Kruse, R. Di Remigio,
    A. Alenaizan, A. M. James, S. Lehtola, J. P. Misiewicz, M. Scheurer,
    R. A. Shaw, J. B. Schriber, Y. Xie, Z. L. Glick, D. A. Sirianni,
    J. S. O'Brien, J. M. Waldrop, A. Kumar, E. G. Hohenstein,
    B. P. Pritchard, B. R. Brooks, H. F. Schaefer III, A. Yu. Sokolov,
    K. Patkowski, A. E. DePrince III, U. Bozkaya, R. A. King,
    F. A. Evangelista, J. M. Turney, T. D. Crawford, C. D. Sherrill,
    J. Chem. Phys. 152(18) 184108 (2020). https://doi.org/10.1063/5.0006002

                            Additional Code Authors
    E. T. Seidl, C. L. Janssen, E. F. Valeev, M. L. Leininger,
    J. F. Gonthier, R. M. Richard, H. R. McAlexander, M. Saitow, X. Wang,
    P. Verma, M. H. Lechner, and A. Jiang

             Previous Authors, Complete List of Code Contributors,
                       and Citations for Specific Modules
    https://github.com/psi4/psi4/blob/master/codemeta.json
    https://github.com/psi4/psi4/graphs/contributors
    http://psicode.org/psi4manual/master/introduction.html#citing-psifour

    -----------------------------------------------------------------------


    Psi4 started on: Saturday, 18 November 2023 08:00AM

    Process ID: 1106439
    Host:       node165.bme.utexas.edu
    PSIDATADIR: /home/liuchw/anaconda3/envs/poltype2022/share/psi4
    Memory:     500.0 MiB
    Threads:    1
    
  ==> Input File <==

--------------------------------------------------------------------------
molecule { 
0 1
H         -1.68130       -0.10010       -2.92110
N         -1.86950       -0.60480       -2.05600
C         -3.13200       -0.30890       -1.55600
C         -4.06450       -1.44090       -1.76170
C         -0.69030       -0.69330       -1.27690
C         -3.56930        0.84960       -1.00940
C         -4.88910        1.21140       -0.43690
N         -3.52250        3.04850       -0.30400
C         -2.71040        2.09760       -0.89730
C         -4.78720        2.54830       -0.03700
C         -4.11830       -2.50030       -0.84590
C         -4.89140       -1.47140       -2.89490
C         -5.00460       -3.56020       -1.04690
C         -5.77650       -2.53260       -3.09260
C         -5.83500       -3.57330       -2.16680
C         -0.69900       -0.87610        0.10610
C          0.54570       -0.74670       -1.92620
C          0.49640       -1.04020        0.82360
C          1.74110       -0.91260       -1.20990
C          1.74620       -1.05080        0.18250
H         -3.20520        3.98790       -0.12020
O         -1.56570        2.29350       -1.25750
H         -3.47150       -2.50600        0.02660
H         -4.85310       -0.66750       -3.62570
H         -5.04800       -4.37620       -0.33030
H         -6.42130       -2.54800       -3.96760
H         -6.52760       -4.39750       -2.31960
H         -1.63560       -0.88150        0.65530
H          0.59670       -0.66530       -3.00930
H          0.40570       -1.13160        1.90150
H          2.65370       -0.96970       -1.79450
H         -5.71600        0.60000       -0.35090
H         -5.55090        3.08910        0.39820
H          2.62540       -1.15540        0.71270
}
memory 208GB
set_num_threads(51)
psi4_io.set_default_path("/scratch/liuchw/Psi4-farH_in17")
set maxiter 500
set freeze_core True
set PROPERTIES_ORIGIN ["COM"]
set cubeprop_tasks ['esp']
set basis MINIX 
E, wfn = properties('hf',properties=['dipole','WIBERG_LOWDIN_INDICES','MULLIKEN_CHARGES'],return_wfn=True)
cubeprop(wfn)
fchk(wfn, "farH_in17-esp_frag.fchk")
clean()
--------------------------------------------------------------------------

  Memory set to 193.715 GiB by Python driver.
  Threads set to 51 by Python driver.

*** tstart() called on node165.bme.utexas.edu
*** at Sat Nov 18 08:00:23 2023

   => Loading Basis Set <=

    Name: MINIX
    Role: ORBITAL
    Keyword: BASIS
    atoms 1, 21, 23-34 entry H          line    24 file /home/liuchw/anaconda3/envs/poltype2022/share/psi4/basis/minix.gbs 
    atoms 2, 8         entry N          line    88 file /home/liuchw/anaconda3/envs/poltype2022/share/psi4/basis/minix.gbs 
    atoms 3-7, 9-20    entry C          line    74 file /home/liuchw/anaconda3/envs/poltype2022/share/psi4/basis/minix.gbs 
    atoms 22           entry O          line   102 file /home/liuchw/anaconda3/envs/poltype2022/share/psi4/basis/minix.gbs 


         ---------------------------------------------------------
                                   SCF
               by Justin Turney, Rob Parrish, Andy Simmonett
                          and Daniel G. A. Smith
                              RHF Reference
                       51 Threads, 198364 MiB Core
         ---------------------------------------------------------

  ==> Geometry <==

    Molecular point group: c1
    Full point group: C1

    Geometry (in Angstrom), charge = 0, multiplicity = 1:

       Center              X                  Y                   Z               Mass       
    ------------   -----------------  -----------------  -----------------  -----------------
         H            0.937179343251     0.315429434533    -1.789609994244     1.007825032230
         N            0.748979343251    -0.189270565467    -0.924509994244    14.003074004430
         C           -0.513520656749     0.106629434533    -0.424509994244    12.000000000000
         C           -1.446020656749    -1.025370565467    -0.630209994244    12.000000000000
         C            1.928179343251    -0.277770565467    -0.145409994244    12.000000000000
         C           -0.950820656749     1.265129434533     0.122090005756    12.000000000000
         C           -2.270620656749     1.626929434533     0.694590005756    12.000000000000
         N           -0.904020656749     3.464029434533     0.827490005756    14.003074004430
         C           -0.091920656749     2.513129434533     0.234190005756    12.000000000000
         C           -2.168720656749     2.963829434533     1.094490005756    12.000000000000
         C           -1.499820656749    -2.084770565467     0.285590005756    12.000000000000
         C           -2.272920656749    -1.055870565467    -1.763409994244    12.000000000000
         C           -2.386120656749    -3.144670565467     0.084590005756    12.000000000000
         C           -3.158020656749    -2.117070565467    -1.961109994244    12.000000000000
         C           -3.216520656749    -3.157770565467    -1.035309994244    12.000000000000
         C            1.919479343251    -0.460570565467     1.237590005756    12.000000000000
         C            3.164179343251    -0.331170565467    -0.794709994244    12.000000000000
         C            3.114879343251    -0.624670565467     1.955090005756    12.000000000000
         C            4.359579343251    -0.497070565467    -0.078409994244    12.000000000000
         C            4.364679343251    -0.635270565467     1.313990005756    12.000000000000
         H           -0.586720656749     4.403429434533     1.011290005756     1.007825032230
         O            1.052779343251     2.709029434533    -0.126009994244    15.994914619570
         H           -0.853020656749    -2.090470565467     1.158090005756     1.007825032230
         H           -2.234620656749    -0.251970565467    -2.494209994244     1.007825032230
         H           -2.429520656749    -3.960670565467     0.801190005756     1.007825032230
         H           -3.802820656749    -2.132470565467    -2.836109994244     1.007825032230
         H           -3.909120656749    -3.981970565467    -1.188109994244     1.007825032230
         H            0.982879343251    -0.465970565467     1.786790005756     1.007825032230
         H            3.215179343251    -0.249770565467    -1.877809994244     1.007825032230
         H            3.024179343251    -0.716070565467     3.032990005756     1.007825032230
         H            5.272179343251    -0.554170565467    -0.663009994244     1.007825032230
         H           -3.097520656749     1.015529434533     0.780590005756     1.007825032230
         H           -2.932420656749     3.504629434533     1.529690005756     1.007825032230
         H            5.243879343251    -0.739870565467     1.844190005756     1.007825032230

  Running in c1 symmetry.

  Rotational constants: A =      0.01440  B =      0.00930  C =      0.00653 [cm^-1]
  Rotational constants: A =    431.61803  B =    278.89599  C =    195.86173 [MHz]
  Nuclear repulsion = 1417.547469715657598

  Charge       = 0
  Multiplicity = 1
  Electrons    = 138
  Nalpha       = 69
  Nbeta        = 69

  ==> Algorithm <==

  SCF Algorithm Type is DF.
  DIIS enabled.
  MOM disabled.
  Fractional occupation disabled.
  Guess Type is SAD.
  Energy threshold   = 1.00e-06
  Density threshold  = 1.00e-06
  Integral threshold = 1.00e-12

  ==> Primary Basis <==

  Basis Set: MINIX
    Blend: MINIX
    Number of shells: 74
    Number of basis functions: 114
    Number of Cartesian functions: 114
    Spherical Harmonics?: true
    Max angular momentum: 1

   => Loading Basis Set <=

    Name: (MINIX AUX)
    Role: JKFIT
    Keyword: DF_BASIS_SCF
    atoms 1, 21, 23-34 entry H          line    18 file /home/liuchw/anaconda3/envs/poltype2022/share/psi4/basis/def2-universal-jkfit.gbs 
    atoms 2, 8         entry N          line   258 file /home/liuchw/anaconda3/envs/poltype2022/share/psi4/basis/def2-universal-jkfit.gbs 
    atoms 3-7, 9-20    entry C          line   198 file /home/liuchw/anaconda3/envs/poltype2022/share/psi4/basis/def2-universal-jkfit.gbs 
    atoms 22           entry O          line   318 file /home/liuchw/anaconda3/envs/poltype2022/share/psi4/basis/def2-universal-jkfit.gbs 

  ==> Integral Setup <==

  DFHelper Memory: AOs need 0.183 GiB; user supplied 145.286 GiB. Using in-core AOs.

  ==> MemDFJK: Density-Fitted J/K Matrices <==

    J tasked:                   Yes
    K tasked:                   Yes
    wK tasked:                   No
    OpenMP threads:              51
    Memory [MiB]:            148773
    Algorithm:                 Core
    Schwarz Cutoff:           1E-12
    Mask sparsity (%):      10.5879
    Fitting Condition:        1E-10

   => Auxiliary Basis Set <=

  Basis Set: (MINIX AUX)
    Blend: DEF2-UNIVERSAL-JKFIT
    Number of shells: 584
    Number of basis functions: 1758
    Number of Cartesian functions: 2072
    Spherical Harmonics?: true
    Max angular momentum: 4

  Minimum eigenvalue in the overlap matrix is 1.7219145054E-01.
  Reciprocal condition number of the overlap matrix is 6.3705260458E-02.
    Using symmetric orthogonalization.

  ==> Pre-Iterations <==

  SCF Guess: Superposition of Atomic Densities via on-the-fly atomic UHF (no occupation information).

   -------------------------
    Irrep   Nso     Nmo    
   -------------------------
     A        114     114 
   -------------------------
    Total     114     114
   -------------------------

  ==> Iterations <==

                           Total Energy        Delta E     RMS |[F,P]|

   @DF-RHF iter SAD:  -821.23577776067486   -8.21236e+02   0.00000e+00 
   @DF-RHF iter   1:  -829.66249352023374   -8.42672e+00   4.35261e-03 DIIS/ADIIS
   @DF-RHF iter   2:  -829.79417266556993   -1.31679e-01   3.01374e-03 DIIS/ADIIS
   @DF-RHF iter   3:  -829.85631896611983   -6.21463e-02   3.96150e-04 DIIS/ADIIS
   @DF-RHF iter   4:  -829.85918521608335   -2.86625e-03   1.68284e-04 DIIS/ADIIS
   @DF-RHF iter   5:  -829.85963028586832   -4.45070e-04   6.96417e-05 DIIS
   @DF-RHF iter   6:  -829.85972133975508   -9.10539e-05   2.42022e-05 DIIS
   @DF-RHF iter   7:  -829.85973251421342   -1.11745e-05   1.04288e-05 DIIS
   @DF-RHF iter   8:  -829.85973460338073   -2.08917e-06   3.20071e-06 DIIS
   @DF-RHF iter   9:  -829.85973485360421   -2.50223e-07   1.39783e-06 DIIS
   @DF-RHF iter  10:  -829.85973488386503   -3.02608e-08   3.90926e-07 DIIS
  Energy and wave function converged.


  ==> Post-Iterations <==

    Orbital Energies [Eh]
    ---------------------

    Doubly Occupied:                                                      

       1A    -20.323532     2A    -15.470888     3A    -15.418585  
       4A    -11.336706     5A    -11.245895     6A    -11.242737  
       7A    -11.231246     8A    -11.198559     9A    -11.193179  
      10A    -11.178293    11A    -11.177938    12A    -11.176614  
      13A    -11.176385    14A    -11.174897    15A    -11.168690  
      16A    -11.168496    17A    -11.163375    18A    -11.156364  
      19A    -11.154664    20A    -11.154209    21A     -1.400333  
      22A     -1.277066    23A     -1.252337    24A     -1.164810  
      25A     -1.136411    26A     -1.085749    27A     -1.036901  
      28A     -1.020023    29A     -1.004390    30A     -1.001760  
      31A     -0.980407    32A     -0.903001    33A     -0.829041  
      34A     -0.826041    35A     -0.818414    36A     -0.814196  
      37A     -0.802774    38A     -0.746241    39A     -0.718170  
      40A     -0.705531    41A     -0.691034    42A     -0.668425  
      43A     -0.656570    44A     -0.638126    45A     -0.627490  
      46A     -0.619040    47A     -0.610920    48A     -0.601930  
      49A     -0.598082    50A     -0.589900    51A     -0.586960  
      52A     -0.579808    53A     -0.568142    54A     -0.554892  
      55A     -0.528073    56A     -0.518776    57A     -0.500907  
      58A     -0.493403    59A     -0.489907    60A     -0.473527  
      61A     -0.468251    62A     -0.437707    63A     -0.422518  
      64A     -0.401263    65A     -0.349865    66A     -0.345885  
      67A     -0.336069    68A     -0.296713    69A     -0.290013  

    Virtual:                                                              

      70A      0.098476    71A      0.181095    72A      0.185000  
      73A      0.195371    74A      0.206515    75A      0.254979  
      76A      0.336483    77A      0.417795    78A      0.435886  
      79A      0.493465    80A      0.523880    81A      0.542705  
      82A      0.568135    83A      0.584820    84A      0.609520  
      85A      0.612470    86A      0.619914    87A      0.638956  
      88A      0.650231    89A      0.656962    90A      0.672598  
      91A      0.679531    92A      0.683120    93A      0.685616  
      94A      0.696147    95A      0.701517    96A      0.721653  
      97A      0.769763    98A      0.786943    99A      0.834178  
     100A      0.862655   101A      0.865983   102A      0.871957  
     103A      0.875338   104A      0.881397   105A      0.886613  
     106A      0.896398   107A      0.913033   108A      0.930695  
     109A      1.024277   110A      1.047972   111A      1.060706  
     112A      1.089488   113A      1.113328   114A      1.130411  

    Final Occupation by Irrep:
              A 
    DOCC [    69 ]

  @DF-RHF Final Energy:  -829.85973488386503

   => Energetics <=

    Nuclear Repulsion Energy =           1417.5474697156575985
    One-Electron Energy =               -3942.8564232126855131
    Two-Electron Energy =                1695.4492186131626568
    Total Energy =                       -829.8597348838650305

Computation Completed


Properties will be evaluated at   0.000000,   0.000000,  -0.000000 [a0]

Properties computed using the HF density matrix


 Multipole Moments:

 ------------------------------------------------------------------------------------
     Multipole            Electronic (a.u.)      Nuclear  (a.u.)        Total (a.u.)
 ------------------------------------------------------------------------------------

 L = 1.  Multiply by 2.5417464519 to convert [e a0] to [Debye]
 Dipole X            :         -0.1299057           -1.0916015           -1.2215072
 Dipole Y            :          6.1048844           -5.5316782            0.5732062
 Dipole Z            :         -0.8342356            1.0271054            0.1928699
 Magnitude           :                                                    1.3630275

 ------------------------------------------------------------------------------------
  Mulliken Charges: (a.u.)
   Center  Symbol    Alpha    Beta     Spin     Total
       1     H     0.37135  0.37135  0.00000  0.25731
       2     N     3.70313  3.70313  0.00000 -0.40627
       3     C     2.93233  2.93233  0.00000  0.13534
       4     C     3.00546  3.00546  0.00000 -0.01092
       5     C     2.94102  2.94102  0.00000  0.11796
       6     C     3.02291  3.02291  0.00000 -0.04582
       7     C     3.09267  3.09267  0.00000 -0.18535
       8     N     3.70763  3.70763  0.00000 -0.41526
       9     C     2.80165  2.80165  0.00000  0.39670
      10     C     3.00218  3.00218  0.00000 -0.00436
      11     C     3.06441  3.06441  0.00000 -0.12882
      12     C     3.06590  3.06590  0.00000 -0.13181
      13     C     3.06881  3.06881  0.00000 -0.13762
      14     C     3.06932  3.06932  0.00000 -0.13864
      15     C     3.07000  3.07000  0.00000 -0.14001
      16     C     3.08007  3.08007  0.00000 -0.16015
      17     C     3.07625  3.07625  0.00000 -0.15250
      18     C     3.06098  3.06098  0.00000 -0.12196
      19     C     3.06136  3.06136  0.00000 -0.12272
      20     C     3.08505  3.08505  0.00000 -0.17010
      21     H     0.35703  0.35703  0.00000  0.28594
      22     O     4.20342  4.20342  0.00000 -0.40683
      23     H     0.42897  0.42897  0.00000  0.14207
      24     H     0.43077  0.43077  0.00000  0.13846
      25     H     0.42939  0.42939  0.00000  0.14121
      26     H     0.42981  0.42981  0.00000  0.14039
      27     H     0.43017  0.43017  0.00000  0.13967
      28     H     0.43382  0.43382  0.00000  0.13237
      29     H     0.43399  0.43399  0.00000  0.13202
      30     H     0.43165  0.43165  0.00000  0.13670
      31     H     0.43089  0.43089  0.00000  0.13821
      32     H     0.42567  0.42567  0.00000  0.14867
      33     H     0.42002  0.42002  0.00000  0.15997
      34     H     0.43191  0.43191  0.00000  0.13618

   Total alpha = 69.00000, Total beta = 69.00000, Total charge = -0.00000



  Wiberg Bond Indices using Orthogonal Lowdin Orbitals:

  Irrep: 1 Size: 34 x 34

                 1                   2                   3                   4                   5

    1     0.00000000000000     0.93131083568508     0.00225759110170     0.00127083456680     0.00060192807833
    2     0.93131083568508     0.00000000000000     1.02494005123654     0.01660350677026     1.06112964499054
    3     0.00225759110170     1.02494005123654     0.00000000000000     0.99206601180833     0.00186784662316
    4     0.00127083456680     0.01660350677026     0.99206601180833     0.00000000000000     0.00338986444035
    5     0.00060192807833     1.06112964499054     0.00186784662316     0.00338986444035     0.00000000000000
    6     0.01373287908755     0.01934860887726     1.75648625203062     0.00314924206824     0.01174608854093
    7     0.00007952739323     0.00975649147935     0.00572399459469     0.00297795495839     0.00023914518436
    8     0.00006118718081     0.00032203406426     0.00402751094850     0.00066454538458     0.00007248072195
    9     0.00043838210464     0.00396631158999     0.01496989844600     0.00972455025735     0.00041450970645
   10     0.00235773515726     0.00108676051481     0.07946092212885     0.00018294350830     0.00184535960238
   11     0.00013557976953     0.00629954687177     0.00282118172179     1.41360205635411     0.00051868772861
   12     0.00024606917840     0.00722921694191     0.00303207911972     1.41293049753372     0.00044077385231
   13     0.00004100358792     0.00027719604122     0.00686753915558     0.00308536941544     0.00006639733435
   14     0.00003015250376     0.00026919788991     0.00666894445345     0.00307762456008     0.00005642213208
   15     0.00006914047195     0.00307879751542     0.00028411985229     0.11230634108713     0.00024699690030
   16     0.00665859076485     0.03614197654993     0.00149111435188     0.00071201858067     1.38781940419158
   17     0.00225299239995     0.03284200121335     0.00611267625512     0.00077966975904     1.38228306147076
   18     0.00038878296593     0.00768882845032     0.00017210300807     0.00002605655937     0.00372103304246
   19     0.00006409863401     0.00777247089688     0.00067983232189     0.00012646450640     0.00352934233877
   20     0.00051700361647     0.01756749743250     0.00023294561460     0.00042943227647     0.10070992534571
   21     0.00000118330215     0.00005689712247     0.00035601678351     0.00027902063219     0.00000338076343
   22     0.00268312828512     0.00090640656881     0.06672047730217     0.00056266813551     0.00238556115350
   23     0.00000619341541     0.00010489532092     0.00279394580545     0.00049575941285     0.00003921162343
   24     0.00000014670553     0.00014382198110     0.00276884832554     0.00045122197310     0.00003370119576
   25     0.00000001805754     0.00002269512657     0.00041436678642     0.00694077476688     0.00001160817355
   26     0.00000926938731     0.00004679007834     0.00043269366232     0.00695483124070     0.00000294881276
   27     0.00000000288739     0.00000100521257     0.00010442276141     0.00022886626016     0.00000039945171
   28     0.00010298779952     0.00357463795165     0.00092400275600     0.00002918297373     0.00044668321432
   29     0.00066991663667     0.00333855583289     0.00013950942696     0.00002218446927     0.00042835227319
   30     0.00015916380345     0.00039802574423     0.00000896137379     0.00000071222469     0.00655800143379
   31     0.00002514450552     0.00032515669432     0.00017085449090     0.00000702426811     0.00658300361098
   32     0.00000094868385     0.00002019128092     0.00074279037418     0.00019490532103     0.00000016077461
   33     0.00000075791316     0.00027784964741     0.00019945928330     0.00003203085448     0.00000623675034
   34     0.00000198549618     0.00015679261910     0.00001127041702     0.00000141968925     0.00016208712598

                 6                   7                   8                   9                  10

    1     0.01373287908755     0.00007952739323     0.00006118718081     0.00043838210464     0.00235773515726
    2     0.01934860887726     0.00975649147935     0.00032203406426     0.00396631158999     0.00108676051481
    3     1.75648625203062     0.00572399459469     0.00402751094850     0.01496989844600     0.07946092212885
    4     0.00314924206824     0.00297795495839     0.00066454538458     0.00972455025735     0.00018294350830
    5     0.01174608854093     0.00023914518436     0.00007248072195     0.00041450970645     0.00184535960238
    6     0.00000000000000     1.08768683753921     0.01253603270003     0.99142073530512     0.00355243325766
    7     1.08768683753921     0.00000000000000     0.08650422889954     0.01063952449054     1.77033127618096
    8     0.01253603270003     0.08650422889954     0.00000000000000     1.08967098062687     1.11544860944788
    9     0.99142073530512     0.01063952449054     1.08967098062687     0.00000000000000     0.00625236909135
   10     0.00355243325766     1.77033127618096     1.11544860944788     0.00625236909135     0.00000000000000
   11     0.01230265284744     0.00027099862005     0.00013500356537     0.00086724798889     0.00138674543187
   12     0.01264185423575     0.00023123812367     0.00011186347616     0.00082654325322     0.00144674761506
   13     0.00087651398878     0.00006181070135     0.00002580766131     0.00017820724135     0.00016764875868
   14     0.00095231629099     0.00007522973718     0.00002765804730     0.00014510305459     0.00014692897645
   15     0.00137099096699     0.00006993736742     0.00005762325990     0.00029432854633     0.00011950030296
   16     0.00159500795987     0.00013306530949     0.00000784592964     0.00007443609620     0.00018516601203
   17     0.00121258868427     0.00018138686250     0.00001389848442     0.00018841535751     0.00013707473963
   18     0.00002111932372     0.00000351008321     0.00000164124069     0.00001670925674     0.00000392424534
   19     0.00020236119425     0.00003286566034     0.00000296484503     0.00002163280553     0.00003419322912
   20     0.00059238570882     0.00006051544630     0.00000366431132     0.00005599356889     0.00006021166365
   21     0.00763571110919     0.00610570662173     0.94093637809950     0.00029441886255     0.00013959306133
   22     0.04738445161740     0.01276132757380     0.13162957867294     1.81400961381449     0.01108204873906
   23     0.00005321773027     0.00002897478877     0.00001025193255     0.00008311766032     0.00000081690563
   24     0.00003817744011     0.00002874862665     0.00000937097827     0.00007623197856     0.00000186294731
   25     0.00030741329912     0.00000799589322     0.00000363632874     0.00003507006152     0.00005238459543
   26     0.00029646194764     0.00000811905303     0.00000302360278     0.00002819583371     0.00005076073870
   27     0.00000097648782     0.00000096904733     0.00000016689518     0.00000174185778     0.00000003952844
   28     0.00018765166905     0.00001719099183     0.00000023558769     0.00000666333155     0.00000441202860
   29     0.00004689376574     0.00000569101273     0.00000064649590     0.00000382171572     0.00000942441472
   30     0.00005359539635     0.00000018732103     0.00000028793680     0.00000225637848     0.00001116040920
   31     0.00004990938976     0.00000448036323     0.00000052222636     0.00000426804650     0.00001075512829
   32     0.00044332200547     0.97441046530730     0.00607583741195     0.00545081139983     0.00114845377670
   33     0.00684669519682     0.00146384626428     0.00060159721502     0.00654051885206     0.97094838501057
   34     0.00000168036660     0.00000041898673     0.00000006701381     0.00000039513822     0.00000036712270

                11                  12                  13                  14                  15

    1     0.00013557976953     0.00024606917840     0.00004100358792     0.00003015250376     0.00006914047195
    2     0.00629954687177     0.00722921694191     0.00027719604122     0.00026919788991     0.00307879751542
    3     0.00282118172179     0.00303207911972     0.00686753915558     0.00666894445345     0.00028411985229
    4     1.41360205635411     1.41293049753372     0.00308536941544     0.00307762456008     0.11230634108713
    5     0.00051868772861     0.00044077385231     0.00006639733435     0.00005642213208     0.00024699690030
    6     0.01230265284744     0.01264185423575     0.00087651398878     0.00095231629099     0.00137099096699
    7     0.00027099862005     0.00023123812367     0.00006181070135     0.00007522973718     0.00006993736742
    8     0.00013500356537     0.00011186347616     0.00002580766131     0.00002765804730     0.00005762325990
    9     0.00086724798889     0.00082654325322     0.00017820724135     0.00014510305459     0.00029432854633
   10     0.00138674543187     0.00144674761506     0.00016764875868     0.00014692897645     0.00011950030296
   11     0.00000000000000     0.00332078336733     1.44190050576081     0.11405677608266     0.00314718585260
   12     0.00332078336733     0.00000000000000     0.11378659737828     1.44126998805362     0.00317598909291
   13     1.44190050576081     0.11378659737828     0.00000000000000     0.00322755697052     1.43845939066486
   14     0.11405677608266     1.44126998805362     0.00322755697052     0.00000000000000     1.43908627405967
   15     0.00314718585260     0.00317598909291     1.43845939066486     1.43908627405967     0.00000000000000
   16     0.00050172948475     0.00012936316682     0.00002805742175     0.00001688018691     0.00009121186688
   17     0.00018267647185     0.00020945818291     0.00001857417215     0.00001760965700     0.00011926707678
   18     0.00006230195376     0.00000906811779     0.00000702930344     0.00000051449260     0.00000621893498
   19     0.00005092974994     0.00003620809577     0.00000266462050     0.00000509089406     0.00002210532003
   20     0.00008579256868     0.00007573826199     0.00001234918781     0.00000930616243     0.00005444587909
   21     0.00005236951367     0.00004847480348     0.00000556081496     0.00000426582233     0.00002854643883
   22     0.00145632736884     0.00149137458259     0.00015153503584     0.00015555539750     0.00011348397890
   23     0.96831542482535     0.00693694565214     0.00075608921641     0.00025779186888     0.00704837787315
   24     0.00688612728133     0.96932861312669     0.00026074815402     0.00073473480398     0.00706860136815
   25     0.00071481930090     0.00024161056458     0.96779921050460     0.00713266035941     0.00071753472920
   26     0.00024074177219     0.00069821913352     0.00713756661361     0.96786978952220     0.00072576894498
   27     0.00720370434650     0.00720118070113     0.00070582339062     0.00069879093533     0.96816897080623
   28     0.00003400007695     0.00001413199417     0.00000436821565     0.00000063972914     0.00000726715355
   29     0.00000753013923     0.00000877236871     0.00000053898705     0.00000038374731     0.00000459602189
   30     0.00000329612992     0.00000001420072     0.00000032995567     0.00000003611926     0.00000010390405
   31     0.00000691686286     0.00000633775828     0.00000026423043     0.00000028899440     0.00000404725161
   32     0.00000168433948     0.00000768098005     0.00000153324665     0.00000350016836     0.00000074480405
   33     0.00000060256042     0.00000035399473     0.00000052543353     0.00000049604299     0.00000040021318
   34     0.00000232223101     0.00000080322696     0.00000002920473     0.00000000602056     0.00000059300738

                16                  17                  18                  19                  20

    1     0.00665859076485     0.00225299239995     0.00038878296593     0.00006409863401     0.00051700361647
    2     0.03614197654993     0.03284200121335     0.00768882845032     0.00777247089688     0.01756749743250
    3     0.00149111435188     0.00611267625512     0.00017210300807     0.00067983232189     0.00023294561460
    4     0.00071201858067     0.00077966975904     0.00002605655937     0.00012646450640     0.00042943227647
    5     1.38781940419158     1.38228306147076     0.00372103304246     0.00352934233877     0.10070992534571
    6     0.00159500795987     0.00121258868427     0.00002111932372     0.00020236119425     0.00059238570882
    7     0.00013306530949     0.00018138686250     0.00000351008321     0.00003286566034     0.00006051544630
    8     0.00000784592964     0.00001389848442     0.00000164124069     0.00000296484503     0.00000366431132
    9     0.00007443609620     0.00018841535751     0.00001670925674     0.00002163280553     0.00005599356889
   10     0.00018516601203     0.00013707473963     0.00000392424534     0.00003419322912     0.00006021166365
   11     0.00050172948475     0.00018267647185     0.00006230195376     0.00005092974994     0.00008579256868
   12     0.00012936316682     0.00020945818291     0.00000906811779     0.00003620809577     0.00007573826199
   13     0.00002805742175     0.00001857417215     0.00000702930344     0.00000266462050     0.00001234918781
   14     0.00001688018691     0.00001760965700     0.00000051449260     0.00000509089406     0.00000930616243
   15     0.00009121186688     0.00011926707678     0.00000621893498     0.00002210532003     0.00005444587909
   16     0.00000000000000     0.00516156222973     1.44591181384479     0.10843055034417     0.00485149724033
   17     0.00516156222973     0.00000000000000     0.11211832390210     1.45087157190365     0.00473758399833
   18     1.44591181384479     0.11211832390210     0.00000000000000     0.00349400037235     1.43412630267515
   19     0.10843055034417     1.45087157190365     0.00349400037235     0.00000000000000     1.43262810898001
   20     0.00485149724033     0.00473758399833     1.43412630267515     1.43262810898001     0.00000000000000
   21     0.00000149275748     0.00000226727684     0.00000032418153     0.00000028821798     0.00000102967914
   22     0.00027448668093     0.00020348698712     0.00005294453896     0.00004527954315     0.00008434744592
   23     0.00006846685650     0.00002022508868     0.00000627103636     0.00000214485552     0.00000409188742
   24     0.00000894069712     0.00001101585005     0.00000012356642     0.00000172127872     0.00000537414672
   25     0.00000461267058     0.00000181276470     0.00000076816514     0.00000075146551     0.00000089902324
   26     0.00000235296891     0.00000248849540     0.00000002508962     0.00000040701551     0.00000148536909
   27     0.00000225252969     0.00000029615454     0.00000045117860     0.00000005081878     0.00000038086087
   28     0.96778018195042     0.00678079795456     0.00090817623421     0.00036912755211     0.00679006260362
   29     0.00657166248744     0.96907808214087     0.00039254217601     0.00088789741924     0.00677566515618
   30     0.00081464623649     0.00030776268223     0.96935049445146     0.00714709664907     0.00063762544589
   31     0.00028078132165     0.00083701327440     0.00736021058055     0.96880547197993     0.00068581742266
   32     0.00000066116130     0.00000102314974     0.00000010208781     0.00000008094820     0.00000040191549
   33     0.00001076952143     0.00001030503351     0.00000006214283     0.00000128341478     0.00000577868786
   34     0.00656888208793     0.00671326633135     0.00099736976498     0.00106052913674     0.97099677573146

                21                  22                  23                  24                  25

    1     0.00000118330215     0.00268312828512     0.00000619341541     0.00000014670553     0.00000001805754
    2     0.00005689712247     0.00090640656881     0.00010489532092     0.00014382198110     0.00002269512657
    3     0.00035601678351     0.06672047730217     0.00279394580545     0.00276884832554     0.00041436678642
    4     0.00027902063219     0.00056266813551     0.00049575941285     0.00045122197310     0.00694077476688
    5     0.00000338076343     0.00238556115350     0.00003921162343     0.00003370119576     0.00001160817355
    6     0.00763571110919     0.04738445161740     0.00005321773027     0.00003817744011     0.00030741329912
    7     0.00610570662173     0.01276132757380     0.00002897478877     0.00002874862665     0.00000799589322
    8     0.94093637809950     0.13162957867294     0.00001025193255     0.00000937097827     0.00000363632874
    9     0.00029441886255     1.81400961381449     0.00008311766032     0.00007623197856     0.00003507006152
   10     0.00013959306133     0.01108204873906     0.00000081690563     0.00000186294731     0.00005238459543
   11     0.00005236951367     0.00145632736884     0.96831542482535     0.00688612728133     0.00071481930090
   12     0.00004847480348     0.00149137458259     0.00693694565214     0.96932861312669     0.00024161056458
   13     0.00000556081496     0.00015153503584     0.00075608921641     0.00026074815402     0.96779921050460
   14     0.00000426582233     0.00015555539750     0.00025779186888     0.00073473480398     0.00713266035941
   15     0.00002854643883     0.00011348397890     0.00704837787315     0.00706860136815     0.00071753472920
   16     0.00000149275748     0.00027448668093     0.00006846685650     0.00000894069712     0.00000461267058
   17     0.00000226727684     0.00020348698712     0.00002022508868     0.00001101585005     0.00000181276470
   18     0.00000032418153     0.00005294453896     0.00000627103636     0.00000012356642     0.00000076816514
   19     0.00000028821798     0.00004527954315     0.00000214485552     0.00000172127872     0.00000075146551
   20     0.00000102967914     0.00008434744592     0.00000409188742     0.00000537414672     0.00000089902324
   21     0.00000000000000     0.00134440594281     0.00000312904732     0.00000276296414     0.00000091906034
   22     0.00134440594281     0.00000000000000     0.00000729858354     0.00000582849686     0.00005355385792
   23     0.00000312904732     0.00000729858354     0.00000000000000     0.00051725813501     0.00348488147132
   24     0.00000276296414     0.00000582849686     0.00051725813501     0.00000000000000     0.00010437423685
   25     0.00000091906034     0.00005355385792     0.00348488147132     0.00010437423685     0.00000000000000
   26     0.00000068363890     0.00005252392993     0.00010570255723     0.00348164143381     0.00045695733531
   27     0.00000006870292     0.00000003990407     0.00044511483823     0.00044997497541     0.00351313313232
   28     0.00000021184379     0.00002708058647     0.00034080287684     0.00000051269225     0.00000014180571
   29     0.00000007053032     0.00001189372091     0.00000002521532     0.00000025880082     0.00000003440645
   30     0.00000000028089     0.00001191096564     0.00000005942025     0.00000000011241     0.00000000721893
   31     0.00000005056263     0.00000949015106     0.00000032586965     0.00000018688656     0.00000006091991
   32     0.00044866920631     0.00100061275004     0.00000268192480     0.00000387255186     0.00000048272422
   33     0.00119800532163     0.00101643523585     0.00000028351211     0.00000020048357     0.00000007083639
   34     0.00000000975632     0.00000014536513     0.00000014712872     0.00000001401898     0.00000005393129

                26                  27                  28                  29                  30

    1     0.00000926938731     0.00000000288739     0.00010298779952     0.00066991663667     0.00015916380345
    2     0.00004679007834     0.00000100521257     0.00357463795165     0.00333855583289     0.00039802574423
    3     0.00043269366232     0.00010442276141     0.00092400275600     0.00013950942696     0.00000896137379
    4     0.00695483124070     0.00022886626016     0.00002918297373     0.00002218446927     0.00000071222469
    5     0.00000294881276     0.00000039945171     0.00044668321432     0.00042835227319     0.00655800143379
    6     0.00029646194764     0.00000097648782     0.00018765166905     0.00004689376574     0.00005359539635
    7     0.00000811905303     0.00000096904733     0.00001719099183     0.00000569101273     0.00000018732103
    8     0.00000302360278     0.00000016689518     0.00000023558769     0.00000064649590     0.00000028793680
    9     0.00002819583371     0.00000174185778     0.00000666333155     0.00000382171572     0.00000225637848
   10     0.00005076073870     0.00000003952844     0.00000441202860     0.00000942441472     0.00001116040920
   11     0.00024074177219     0.00720370434650     0.00003400007695     0.00000753013923     0.00000329612992
   12     0.00069821913352     0.00720118070113     0.00001413199417     0.00000877236871     0.00000001420072
   13     0.00713756661361     0.00070582339062     0.00000436821565     0.00000053898705     0.00000032995567
   14     0.96786978952220     0.00069879093533     0.00000063972914     0.00000038374731     0.00000003611926
   15     0.00072576894498     0.96816897080623     0.00000726715355     0.00000459602189     0.00000010390405
   16     0.00000235296891     0.00000225252969     0.96778018195042     0.00657166248744     0.00081464623649
   17     0.00000248849540     0.00000029615454     0.00678079795456     0.96907808214087     0.00030776268223
   18     0.00000002508962     0.00000045117860     0.00090817623421     0.00039254217601     0.96935049445146
   19     0.00000040701551     0.00000005081878     0.00036912755211     0.00088789741924     0.00714709664907
   20     0.00000148536909     0.00000038086087     0.00679006260362     0.00677566515618     0.00063762544589
   21     0.00000068363890     0.00000006870292     0.00000021184379     0.00000007053032     0.00000000028089
   22     0.00005252392993     0.00000003990407     0.00002708058647     0.00001189372091     0.00001191096564
   23     0.00010570255723     0.00044511483823     0.00034080287684     0.00000002521532     0.00000005942025
   24     0.00348164143381     0.00044997497541     0.00000051269225     0.00000025880082     0.00000000011241
   25     0.00045695733531     0.00351313313232     0.00000014180571     0.00000003440645     0.00000000721893
   26     0.00000000000000     0.00351708262011     0.00000031528338     0.00000007480831     0.00000000004361
   27     0.00351708262011     0.00000000000000     0.00000001314304     0.00000001073858     0.00000002089847
   28     0.00000031528338     0.00000001314304     0.00000000000000     0.00075231524071     0.00354067249761
   29     0.00000007480831     0.00000001073858     0.00075231524071     0.00000000000000     0.00006068590781
   30     0.00000000004361     0.00000002089847     0.00354067249761     0.00006068590781     0.00000000000000
   31     0.00000002295925     0.00000000098098     0.00007130353010     0.00356203969566     0.00062282191983
   32     0.00000057966473     0.00000000543707     0.00000003493058     0.00000000055008     0.00000000654160
   33     0.00000006708488     0.00000000744839     0.00000013178384     0.00000009773217     0.00000001321333
   34     0.00000000005979     0.00000001255248     0.00031144637422     0.00032114615850     0.00295505494456

                31                  32                  33                  34

    1     0.00002514450552     0.00000094868385     0.00000075791316     0.00000198549618
    2     0.00032515669432     0.00002019128092     0.00027784964741     0.00015679261910
    3     0.00017085449090     0.00074279037418     0.00019945928330     0.00001127041702
    4     0.00000702426811     0.00019490532103     0.00003203085448     0.00000141968925
    5     0.00658300361098     0.00000016077461     0.00000623675034     0.00016208712598
    6     0.00004990938976     0.00044332200547     0.00684669519682     0.00000168036660
    7     0.00000448036323     0.97441046530730     0.00146384626428     0.00000041898673
    8     0.00000052222636     0.00607583741195     0.00060159721502     0.00000006701381
    9     0.00000426804650     0.00545081139983     0.00654051885206     0.00000039513822
   10     0.00001075512829     0.00114845377670     0.97094838501057     0.00000036712270
   11     0.00000691686286     0.00000168433948     0.00000060256042     0.00000232223101
   12     0.00000633775828     0.00000768098005     0.00000035399473     0.00000080322696
   13     0.00000026423043     0.00000153324665     0.00000052543353     0.00000002920473
   14     0.00000028899440     0.00000350016836     0.00000049604299     0.00000000602056
   15     0.00000404725161     0.00000074480405     0.00000040021318     0.00000059300738
   16     0.00028078132165     0.00000066116130     0.00001076952143     0.00656888208793
   17     0.00083701327440     0.00000102314974     0.00001030503351     0.00671326633135
   18     0.00736021058055     0.00000010208781     0.00000006214283     0.00099736976498
   19     0.96880547197993     0.00000008094820     0.00000128341478     0.00106052913674
   20     0.00068581742266     0.00000040191549     0.00000577868786     0.97099677573146
   21     0.00000005056263     0.00044866920631     0.00119800532163     0.00000000975632
   22     0.00000949015106     0.00100061275004     0.00101643523585     0.00000014536513
   23     0.00000032586965     0.00000268192480     0.00000028351211     0.00000014712872
   24     0.00000018688656     0.00000387255186     0.00000020048357     0.00000001401898
   25     0.00000006091991     0.00000048272422     0.00000007083639     0.00000005393129
   26     0.00000002295925     0.00000057966473     0.00000006708488     0.00000000005979
   27     0.00000000098098     0.00000000543707     0.00000000744839     0.00000001255248
   28     0.00007130353010     0.00000003493058     0.00000013178384     0.00031144637422
   29     0.00356203969566     0.00000000055008     0.00000009773217     0.00032114615850
   30     0.00062282191983     0.00000000654160     0.00000001321333     0.00295505494456
   31     0.00000000000000     0.00000000507654     0.00000011841629     0.00301066842429
   32     0.00000000507654     0.00000000000000     0.00143888930982     0.00000000043119
   33     0.00000011841629     0.00143888930982     0.00000000000000     0.00000001596478
   34     0.00301066842429     0.00000000043119     0.00000001596478     0.00000000000000



  Atomic Valences: 

 #  #
 Irrep: 1
      1:    0.966175161126992
      2:    3.197004696192635
      3:    3.985950234321751
      4:    3.993305586616979
      5:    3.977360248582759
      6:    3.994773058028875
      7:    3.969903660483447
      8:    3.388967181193051
      9:    3.956703003718842
     10:    3.967667014270929
     11:    3.986574248940471
     12:    3.987134590135072
     13:    3.985914342369864
     14:    3.985998513736891
     15:    3.985948901513654
     16:    3.982331481460109
     17:    3.983410236005043
     18:    3.986849146967290
     19:    3.986329587007942
     20:    3.982800435314109
     21:    0.958951912722596
     22:    2.097695302912781
     23:    0.991939924336319
     24:    0.992425018213640
     25:    0.992025313573827
     26:    0.992127590701578
     27:    0.992245977484155
     28:    0.993027384356861
     29:    0.993101320193376
     30:    0.992645011761518
     31:    0.992445363793499
     32:    0.991401140235802
     33:    0.990602290375746
     34:    0.993275775828972


*** tstop() called on node165.bme.utexas.edu at Sat Nov 18 08:00:26 2023
Module time:
	user time   =      78.81 seconds =       1.31 minutes
	system time =       2.77 seconds =       0.05 minutes
	total time  =          3 seconds =       0.05 minutes
Total time:
	user time   =      78.81 seconds =       1.31 minutes
	system time =       2.77 seconds =       0.05 minutes
	total time  =          3 seconds =       0.05 minutes
  ==> One Electron Grid Properties (v2.0) <==

  ==> CubicScalarGrid <==

    Filepath     = .
    Total Points =          1502336
    XYZ Blocking =               10
    X Points     =              128
    Y Points     =              121
    Z Points     =               97
    X Spacing    =        2.000E-01
    Y Spacing    =        2.000E-01
    Z Spacing    =        2.000E-01
    X Minimum    =       -1.141E+01
    Y Minimum    =       -1.160E+01
    Z Minimum    =       -9.414E+00
    X Maximum    =        1.399E+01
    Y Maximum    =        1.240E+01
    Z Maximum    =        9.786E+00

  Basis Set: MINIX
    Blend: MINIX
    Number of shells: 74
    Number of basis functions: 114
    Number of Cartesian functions: 114
    Spherical Harmonics?: true
    Max angular momentum: 1

*********************************************************************************************************************
When computing potential integrals with different bra and ket basis, the atom definition is taken from the bra basis.
*********************************************************************************************************************
*********************************************************************************************************************
When computing potential integrals with different bra and ket basis, the atom definition is taken from the bra basis.
*********************************************************************************************************************
*********************************************************************************************************************
When computing potential integrals with different bra and ket basis, the atom definition is taken from the bra basis.
*********************************************************************************************************************
*********************************************************************************************************************
When computing potential integrals with different bra and ket basis, the atom definition is taken from the bra basis.
*********************************************************************************************************************
*********************************************************************************************************************
When computing potential integrals with different bra and ket basis, the atom definition is taken from the bra basis.
*********************************************************************************************************************
*********************************************************************************************************************
When computing potential integrals with different bra and ket basis, the atom definition is taken from the bra basis.
*********************************************************************************************************************
*********************************************************************************************************************
When computing potential integrals with different bra and ket basis, the atom definition is taken from the bra basis.
*********************************************************************************************************************
*********************************************************************************************************************
When computing potential integrals with different bra and ket basis, the atom definition is taken from the bra basis.
*********************************************************************************************************************
*********************************************************************************************************************
When computing potential integrals with different bra and ket basis, the atom definition is taken from the bra basis.
*********************************************************************************************************************
*********************************************************************************************************************
When computing potential integrals with different bra and ket basis, the atom definition is taken from the bra basis.
*********************************************************************************************************************
*********************************************************************************************************************
When computing potential integrals with different bra and ket basis, the atom definition is taken from the bra basis.
*********************************************************************************************************************
*********************************************************************************************************************
When computing potential integrals with different bra and ket basis, the atom definition is taken from the bra basis.
*********************************************************************************************************************
*********************************************************************************************************************
When computing potential integrals with different bra and ket basis, the atom definition is taken from the bra basis.
*********************************************************************************************************************
*********************************************************************************************************************
When computing potential integrals with different bra and ket basis, the atom definition is taken from the bra basis.
*********************************************************************************************************************
*********************************************************************************************************************
When computing potential integrals with different bra and ket basis, the atom definition is taken from the bra basis.
*********************************************************************************************************************
*********************************************************************************************************************
When computing potential integrals with different bra and ket basis, the atom definition is taken from the bra basis.
*********************************************************************************************************************
*********************************************************************************************************************
When computing potential integrals with different bra and ket basis, the atom definition is taken from the bra basis.
*********************************************************************************************************************
*********************************************************************************************************************
When computing potential integrals with different bra and ket basis, the atom definition is taken from the bra basis.
*********************************************************************************************************************
*********************************************************************************************************************
When computing potential integrals with different bra and ket basis, the atom definition is taken from the bra basis.
*********************************************************************************************************************
*********************************************************************************************************************
When computing potential integrals with different bra and ket basis, the atom definition is taken from the bra basis.
*********************************************************************************************************************
*********************************************************************************************************************
When computing potential integrals with different bra and ket basis, the atom definition is taken from the bra basis.
*********************************************************************************************************************
*********************************************************************************************************************
When computing potential integrals with different bra and ket basis, the atom definition is taken from the bra basis.
*********************************************************************************************************************
*********************************************************************************************************************
When computing potential integrals with different bra and ket basis, the atom definition is taken from the bra basis.
*********************************************************************************************************************
*********************************************************************************************************************
When computing potential integrals with different bra and ket basis, the atom definition is taken from the bra basis.
*********************************************************************************************************************
*********************************************************************************************************************
When computing potential integrals with different bra and ket basis, the atom definition is taken from the bra basis.
*********************************************************************************************************************
*********************************************************************************************************************
When computing potential integrals with different bra and ket basis, the atom definition is taken from the bra basis.
*********************************************************************************************************************
*********************************************************************************************************************
When computing potential integrals with different bra and ket basis, the atom definition is taken from the bra basis.
*********************************************************************************************************************
*********************************************************************************************************************
When computing potential integrals with different bra and ket basis, the atom definition is taken from the bra basis.
*********************************************************************************************************************
*********************************************************************************************************************
When computing potential integrals with different bra and ket basis, the atom definition is taken from the bra basis.
*********************************************************************************************************************
*********************************************************************************************************************
When computing potential integrals with different bra and ket basis, the atom definition is taken from the bra basis.
*********************************************************************************************************************
*********************************************************************************************************************
When computing potential integrals with different bra and ket basis, the atom definition is taken from the bra basis.
*********************************************************************************************************************
*********************************************************************************************************************
When computing potential integrals with different bra and ket basis, the atom definition is taken from the bra basis.
*********************************************************************************************************************
*********************************************************************************************************************
When computing potential integrals with different bra and ket basis, the atom definition is taken from the bra basis.
*********************************************************************************************************************
*********************************************************************************************************************
When computing potential integrals with different bra and ket basis, the atom definition is taken from the bra basis.
*********************************************************************************************************************
*********************************************************************************************************************
When computing potential integrals with different bra and ket basis, the atom definition is taken from the bra basis.
*********************************************************************************************************************
*********************************************************************************************************************
When computing potential integrals with different bra and ket basis, the atom definition is taken from the bra basis.
*********************************************************************************************************************
*********************************************************************************************************************
When computing potential integrals with different bra and ket basis, the atom definition is taken from the bra basis.
*********************************************************************************************************************
*********************************************************************************************************************
When computing potential integrals with different bra and ket basis, the atom definition is taken from the bra basis.
*********************************************************************************************************************
*********************************************************************************************************************
When computing potential integrals with different bra and ket basis, the atom definition is taken from the bra basis.
*********************************************************************************************************************
*********************************************************************************************************************
When computing potential integrals with different bra and ket basis, the atom definition is taken from the bra basis.
*********************************************************************************************************************
*********************************************************************************************************************
When computing potential integrals with different bra and ket basis, the atom definition is taken from the bra basis.
*********************************************************************************************************************
*********************************************************************************************************************
When computing potential integrals with different bra and ket basis, the atom definition is taken from the bra basis.
*********************************************************************************************************************
*********************************************************************************************************************
When computing potential integrals with different bra and ket basis, the atom definition is taken from the bra basis.
*********************************************************************************************************************
*********************************************************************************************************************
When computing potential integrals with different bra and ket basis, the atom definition is taken from the bra basis.
*********************************************************************************************************************
*********************************************************************************************************************
When computing potential integrals with different bra and ket basis, the atom definition is taken from the bra basis.
*********************************************************************************************************************
*********************************************************************************************************************
When computing potential integrals with different bra and ket basis, the atom definition is taken from the bra basis.
*********************************************************************************************************************
*********************************************************************************************************************
When computing potential integrals with different bra and ket basis, the atom definition is taken from the bra basis.
*********************************************************************************************************************
*********************************************************************************************************************
When computing potential integrals with different bra and ket basis, the atom definition is taken from the bra basis.
*********************************************************************************************************************
*********************************************************************************************************************
When computing potential integrals with different bra and ket basis, the atom definition is taken from the bra basis.
*********************************************************************************************************************
*********************************************************************************************************************
When computing potential integrals with different bra and ket basis, the atom definition is taken from the bra basis.
*********************************************************************************************************************
*********************************************************************************************************************
When computing potential integrals with different bra and ket basis, the atom definition is taken from the bra basis.
*********************************************************************************************************************
FCHKWriter: !WARNING! method 'HF'' renamed to label 'HF'.
FCHKWriter: Writing farH_in17-esp_frag.fchk with label ' SCF Density'.

    Psi4 stopped on: Saturday, 18 November 2023 08:00AM
    Psi4 wall time for execution: 0:00:14.04

*** Psi4 exiting successfully. Buy a developer a beer!
