
    -----------------------------------------------------------------------
          Psi4: An Open-Source Ab Initio Electronic Structure Package
                               Psi4 1.3.2 release

                         Git: Rev {HEAD} ecbda83 


    R. M. Parrish, L. A. Burns, D. G. A. Smith, A. C. Simmonett,
    A. E. DePrince III, E. G. Hohenstein, U. Bozkaya, A. Yu. Sokolov,
    R. Di Remigio, R. M. Richard, J. F. Gonthier, A. M. James,
    H. R. McAlexander, A. Kumar, M. Saitow, X. Wang, B. P. Pritchard,
    P. Verma, H. F. Schaefer III, K. Patkowski, R. A. King, E. F. Valeev,
    F. A. Evangelista, J. M. Turney, T. D. Crawford, and C. D. Sherrill,
    J. Chem. Theory Comput. 13(7) pp 3185--3197 (2017).
    (doi: 10.1021/acs.jctc.7b00174)


                         Additional Contributions by
    P. Kraus, H. Kruse, M. H. Lechner, M. C. Schieber, R. A. Shaw,
    A. Alenaizan, R. Galvelis, Z. L. Glick, S. Lehtola, and J. P. Misiewicz

    -----------------------------------------------------------------------


    Psi4 started on: Thursday, 04 November 2021 06:10PM

    Process ID: 60666
    Host:       node44.bme.utexas.edu
    PSIDATADIR: /home/bdw2292/miniconda3/envs/amoebamdpoltype/share/psi4
    Memory:     500.0 MiB
    Threads:    1
    
  ==> Input File <==

--------------------------------------------------------------------------
molecule { 
0 1
C -0.185035074998 -0.665285082337 -0.680204733427
N -0.178666286389 -1.699834129155 -1.665450029127
C -1.402892413515 -0.070794584475 -0.395092170126
N -3.206289479686 0.873184941779 0.657331631224
C -2.651245898814 -0.494103215965 -1.023211704248
C -1.822269691760 0.827533267076 0.742115140976
C -3.687067805604 0.103975475276 -0.387643117722
C 1.171177000251 -0.373573375106 -0.172370313357
C 2.260848654308 -1.035483987361 -0.780253842954
C 1.459455840754 0.624155703812 0.777532375010
C 3.571126391102 -0.747531361118 -0.414770361420
C 2.774874565717 0.894522172853 1.144746323409
C 3.841214004838 0.228625165011 0.543261938890
H 0.070376869620 -1.347475103883 -2.589274357666
H -3.749778990781 1.410345579052 1.319817363542
O -1.202424195648 1.438323194598 1.615948714173
H 2.070935431281 -1.832464870669 -1.488789020795
H 0.651271196892 1.162772635552 1.252124237783
H 4.387480634747 -1.282776788877 -0.893891361389
H 2.964400076905 1.659259085476 1.894153136855
H 4.865832759163 0.450991332223 0.831421795654
H -1.101966897175 -2.115891846973 -1.744850109073
H -2.761793819053 -1.071533100114 -1.929482461275
H -4.747258105267 0.054849892590 -0.599850735158
}
memory 8.333333333333334GB
set_num_threads(1)
psi4_io.set_default_path("/scratch/bdw2292/Psi4-7_Index_0-farH_in17")
set maxiter 500
set freeze_core True
set PROPERTIES_ORIGIN ["COM"]
set cubeprop_tasks ['esp']
E, wfn = properties('mp2/aug-cc-pVTZ',properties=['dipole'],return_wfn=True)
cubeprop(wfn)
fchk(wfn, "7_Index_0-esp.fchk")
oeprop(wfn,"GRID_ESP","WIBERG_LOWDIN_INDICES","MULLIKEN_CHARGES")
clean()
--------------------------------------------------------------------------

  Memory set to   7.761 GiB by Python driver.
  Threads set to 1 by Python driver.
    SCF Algorithm Type (re)set to DF.

*** tstart() called on node44.bme.utexas.edu
*** at Thu Nov  4 18:10:53 2021

   => Loading Basis Set <=

    Name: AUG-CC-PVTZ
    Role: ORBITAL
    Keyword: BASIS
    atoms 1, 3, 5-13   entry C          line   235 file /home/bdw2292/miniconda3/envs/amoebamdpoltype/share/psi4/basis/aug-cc-pvtz.gbs 
    atoms 2, 4         entry N          line   281 file /home/bdw2292/miniconda3/envs/amoebamdpoltype/share/psi4/basis/aug-cc-pvtz.gbs 
    atoms 14-15, 17-24 entry H          line    36 file /home/bdw2292/miniconda3/envs/amoebamdpoltype/share/psi4/basis/aug-cc-pvtz.gbs 
    atoms 16           entry O          line   327 file /home/bdw2292/miniconda3/envs/amoebamdpoltype/share/psi4/basis/aug-cc-pvtz.gbs 


         ---------------------------------------------------------
                                   SCF
               by Justin Turney, Rob Parrish, Andy Simmonett
                          and Daniel G. A. Smith
                              RHF Reference
                        1 Threads,   7947 MiB Core
         ---------------------------------------------------------

  ==> Geometry <==

    Molecular point group: c1
    Full point group: C1

    Geometry (in Angstrom), charge = 0, multiplicity = 1:

       Center              X                  Y                   Z               Mass       
    ------------   -----------------  -----------------  -----------------  -----------------
         C           -0.185035074998    -0.665285082337    -0.680204733427    12.000000000000
         N           -0.178666286389    -1.699834129155    -1.665450029127    14.003074004430
         C           -1.402892413515    -0.070794584475    -0.395092170126    12.000000000000
         N           -3.206289479686     0.873184941779     0.657331631224    14.003074004430
         C           -2.651245898814    -0.494103215965    -1.023211704248    12.000000000000
         C           -1.822269691760     0.827533267076     0.742115140976    12.000000000000
         C           -3.687067805604     0.103975475276    -0.387643117722    12.000000000000
         C            1.171177000251    -0.373573375106    -0.172370313357    12.000000000000
         C            2.260848654308    -1.035483987361    -0.780253842954    12.000000000000
         C            1.459455840754     0.624155703812     0.777532375010    12.000000000000
         C            3.571126391102    -0.747531361118    -0.414770361420    12.000000000000
         C            2.774874565717     0.894522172853     1.144746323409    12.000000000000
         C            3.841214004838     0.228625165011     0.543261938890    12.000000000000
         H            0.070376869620    -1.347475103883    -2.589274357666     1.007825032230
         H           -3.749778990781     1.410345579052     1.319817363542     1.007825032230
         O           -1.202424195648     1.438323194598     1.615948714173    15.994914619570
         H            2.070935431281    -1.832464870669    -1.488789020795     1.007825032230
         H            0.651271196892     1.162772635552     1.252124237783     1.007825032230
         H            4.387480634747    -1.282776788877    -0.893891361389     1.007825032230
         H            2.964400076905     1.659259085476     1.894153136855     1.007825032230
         H            4.865832759163     0.450991332223     0.831421795654     1.007825032230
         H           -1.101966897175    -2.115891846973    -1.744850109073     1.007825032230
         H           -2.761793819053    -1.071533100114    -1.929482461275     1.007825032230
         H           -4.747258105267     0.054849892590    -0.599850735158     1.007825032230

  Running in c1 symmetry.

  Rotational constants: A =      0.05196  B =      0.01509  C =      0.01173 [cm^-1]
  Rotational constants: A =   1557.82902  B =    452.38845  C =    351.69704 [MHz]
  Nuclear repulsion =  814.973163903446448

  Charge       = 0
  Multiplicity = 1
  Electrons    = 98
  Nalpha       = 49
  Nbeta        = 49

  ==> Algorithm <==

  SCF Algorithm Type is DF.
  DIIS enabled.
  MOM disabled.
  Fractional occupation disabled.
  Guess Type is SAD.
  Energy threshold   = 1.00e-10
  Density threshold  = 1.00e-10
  Integral threshold = 0.00e+00

  ==> Primary Basis <==

  Basis Set: AUG-CC-PVTZ
    Blend: AUG-CC-PVTZ
    Number of shells: 286
    Number of basis function: 874
    Number of Cartesian functions: 1020
    Spherical Harmonics?: true
    Max angular momentum: 3

   => Loading Basis Set <=

    Name: (AUG-CC-PVTZ AUX)
    Role: JKFIT
    Keyword: DF_BASIS_SCF
    atoms 1, 3, 5-13   entry C          line   162 file /home/bdw2292/miniconda3/envs/amoebamdpoltype/share/psi4/basis/aug-cc-pvtz-jkfit.gbs 
    atoms 2, 4         entry N          line   224 file /home/bdw2292/miniconda3/envs/amoebamdpoltype/share/psi4/basis/aug-cc-pvtz-jkfit.gbs 
    atoms 14-15, 17-24 entry H          line    70 file /home/bdw2292/miniconda3/envs/amoebamdpoltype/share/psi4/basis/aug-cc-pvtz-jkfit.gbs 
    atoms 16           entry O          line   286 file /home/bdw2292/miniconda3/envs/amoebamdpoltype/share/psi4/basis/aug-cc-pvtz-jkfit.gbs 

  ==> Pre-Iterations <==

   -------------------------------------------------------
    Irrep   Nso     Nmo     Nalpha   Nbeta   Ndocc  Nsocc
   -------------------------------------------------------
     A        874     874       0       0       0       0
   -------------------------------------------------------
    Total     874     874      49      49      49       0
   -------------------------------------------------------

  ==> Integral Setup <==

  ==> DiskDFJK: Density-Fitted J/K Matrices <==

    J tasked:                  Yes
    K tasked:                  Yes
    wK tasked:                  No
    OpenMP threads:              1
    Integrals threads:           1
    Memory [MiB]:             5960
    Algorithm:                Core
    Integral Cache:           NONE
    Schwarz Cutoff:          1E-12
    Fitting Condition:       1E-10

   => Auxiliary Basis Set <=

  Basis Set: (AUG-CC-PVTZ AUX)
    Blend: AUG-CC-PVTZ-JKFIT
    Number of shells: 560
    Number of basis function: 1916
    Number of Cartesian functions: 2384
    Spherical Harmonics?: true
    Max angular momentum: 4

  Minimum eigenvalue in the overlap matrix is 5.7522168295E-07.
  Using Symmetric Orthogonalization.

  SCF Guess: Superposition of Atomic Densities via on-the-fly atomic UHF.

  ==> Iterations <==

                           Total Energy        Delta E     RMS |[F,P]|

   @DF-RHF iter SAD:  -605.80175230372038   -6.05802e+02   0.00000e+00 
   @DF-RHF iter   1:  -605.92164997529494   -1.19898e-01   9.62486e-04 DIIS
   @DF-RHF iter   2:  -606.23445898109458   -3.12809e-01   4.83262e-04 DIIS
   @DF-RHF iter   3:  -606.30718109030158   -7.27221e-02   1.00937e-04 DIIS
   @DF-RHF iter   4:  -606.31200401812634   -4.82293e-03   4.81458e-05 DIIS
   @DF-RHF iter   5:  -606.31294052436760   -9.36506e-04   1.03289e-05 DIIS
   @DF-RHF iter   6:  -606.31304946612477   -1.08942e-04   4.32437e-06 DIIS
   @DF-RHF iter   7:  -606.31307405801999   -2.45919e-05   1.88504e-06 DIIS
   @DF-RHF iter   8:  -606.31307842493970   -4.36692e-06   6.63333e-07 DIIS
   @DF-RHF iter   9:  -606.31307900761624   -5.82677e-07   3.48611e-07 DIIS
   @DF-RHF iter  10:  -606.31307913771150   -1.30095e-07   1.33069e-07 DIIS
   @DF-RHF iter  11:  -606.31307916750984   -2.97983e-08   5.27114e-08 DIIS
   @DF-RHF iter  12:  -606.31307917171216   -4.20232e-09   2.33852e-08 DIIS
   @DF-RHF iter  13:  -606.31307917260290   -8.90736e-10   1.01982e-08 DIIS
   @DF-RHF iter  14:  -606.31307917278389   -1.80989e-10   4.57317e-09 DIIS
   @DF-RHF iter  15:  -606.31307917283550   -5.16138e-11   2.40860e-09 DIIS
   @DF-RHF iter  16:  -606.31307917284084   -5.34328e-12   1.06268e-09 DIIS
   @DF-RHF iter  17:  -606.31307917283402    6.82121e-12   4.47350e-10 DIIS
   @DF-RHF iter  18:  -606.31307917286529   -3.12639e-11   2.08584e-10 DIIS
   @DF-RHF iter  19:  -606.31307917284460    2.06910e-11   8.91550e-11 DIIS
  Energy and wave function converged.


  ==> Post-Iterations <==

    Orbital Energies [Eh]
    ---------------------

    Doubly Occupied:                                                      

       1A    -20.522165     2A    -15.599979     3A    -15.572989  
       4A    -11.360149     5A    -11.318920     6A    -11.286159  
       7A    -11.248573     8A    -11.246850     9A    -11.240385  
      10A    -11.237747    11A    -11.233325    12A    -11.231960  
      13A    -11.228829    14A    -11.226418    15A     -1.379243  
      16A     -1.274052    17A     -1.234206    18A     -1.147675  
      19A     -1.070882    20A     -1.033221    21A     -1.011006  
      22A     -0.980310    23A     -0.897363    24A     -0.835675  
      25A     -0.818478    26A     -0.801770    27A     -0.745908  
      28A     -0.712823    29A     -0.705626    30A     -0.674697  
      31A     -0.647883    32A     -0.638660    33A     -0.615675  
      34A     -0.609968    35A     -0.607142    36A     -0.599425  
      37A     -0.586167    38A     -0.581645    39A     -0.548082  
      40A     -0.512054    41A     -0.505495    42A     -0.488157  
      43A     -0.476342    44A     -0.458331    45A     -0.420614  
      46A     -0.402529    47A     -0.347468    48A     -0.332058  
      49A     -0.279051  

    Virtual:                                                              

      50A      0.021168    51A      0.026882    52A      0.032206  
      53A      0.039815    54A      0.040489    55A      0.043612  
      56A      0.048960    57A      0.054564    58A      0.058691  
      59A      0.067273    60A      0.073967    61A      0.080860  
      62A      0.091678    63A      0.093403    64A      0.094800  
      65A      0.102528    66A      0.105593    67A      0.108381  
      68A      0.112516    69A      0.113331    70A      0.116822  
      71A      0.118940    72A      0.122547    73A      0.127868  
      74A      0.129724    75A      0.132129    76A      0.132688  
      77A      0.139411    78A      0.141183    79A      0.144492  
      80A      0.144918    81A      0.148475    82A      0.152848  
      83A      0.164007    84A      0.167615    85A      0.168716  
      86A      0.172098    87A      0.175070    88A      0.179119  
      89A      0.184972    90A      0.186910    91A      0.189942  
      92A      0.192422    93A      0.195503    94A      0.203766  
      95A      0.208024    96A      0.210232    97A      0.219360  
      98A      0.219893    99A      0.223890   100A      0.224847  
     101A      0.228312   102A      0.237627   103A      0.240315  
     104A      0.249819   105A      0.250663   106A      0.260449  
     107A      0.262053   108A      0.266717   109A      0.269704  
     110A      0.272351   111A      0.277258   112A      0.279829  
     113A      0.281704   114A      0.287334   115A      0.289196  
     116A      0.297723   117A      0.300029   118A      0.302732  
     119A      0.307444   120A      0.310599   121A      0.313930  
     122A      0.318632   123A      0.322410   124A      0.326574  
     125A      0.333315   126A      0.335992   127A      0.338042  
     128A      0.338855   129A      0.343943   130A      0.351078  
     131A      0.356486   132A      0.360755   133A      0.367414  
     134A      0.369500   135A      0.375470   136A      0.380732  
     137A      0.382568   138A      0.384851   139A      0.394567  
     140A      0.400104   141A      0.402250   142A      0.406829  
     143A      0.410907   144A      0.415890   145A      0.418899  
     146A      0.419347   147A      0.421965   148A      0.427463  
     149A      0.429325   150A      0.434275   151A      0.437782  
     152A      0.439026   153A      0.442163   154A      0.449163  
     155A      0.450126   156A      0.459515   157A      0.463576  
     158A      0.466532   159A      0.469644   160A      0.469795  
     161A      0.475611   162A      0.479524   163A      0.482375  
     164A      0.486209   165A      0.488347   166A      0.492158  
     167A      0.494753   168A      0.498429   169A      0.502416  
     170A      0.504578   171A      0.507675   172A      0.511940  
     173A      0.512779   174A      0.515764   175A      0.521347  
     176A      0.522981   177A      0.526960   178A      0.533088  
     179A      0.535222   180A      0.537387   181A      0.537940  
     182A      0.544437   183A      0.545203   184A      0.551972  
     185A      0.556599   186A      0.562353   187A      0.566570  
     188A      0.568733   189A      0.573638   190A      0.576480  
     191A      0.581581   192A      0.585598   193A      0.589146  
     194A      0.601286   195A      0.605015   196A      0.608854  
     197A      0.616815   198A      0.620515   199A      0.628910  
     200A      0.631556   201A      0.639476   202A      0.640216  
     203A      0.649491   204A      0.655152   205A      0.663829  
     206A      0.674298   207A      0.676619   208A      0.680748  
     209A      0.687383   210A      0.690265   211A      0.693630  
     212A      0.695434   213A      0.702076   214A      0.710594  
     215A      0.717462   216A      0.720689   217A      0.721620  
     218A      0.728551   219A      0.733316   220A      0.743369  
     221A      0.747338   222A      0.755598   223A      0.759847  
     224A      0.764777   225A      0.769388   226A      0.770051  
     227A      0.776568   228A      0.780432   229A      0.790214  
     230A      0.796000   231A      0.797865   232A      0.804763  
     233A      0.807724   234A      0.814332   235A      0.819951  
     236A      0.822981   237A      0.833822   238A      0.843034  
     239A      0.843880   240A      0.845516   241A      0.854927  
     242A      0.856592   243A      0.866284   244A      0.870131  
     245A      0.874682   246A      0.878804   247A      0.882716  
     248A      0.886976   249A      0.888741   250A      0.898731  
     251A      0.904096   252A      0.907794   253A      0.912857  
     254A      0.915273   255A      0.916861   256A      0.925494  
     257A      0.930514   258A      0.933799   259A      0.936156  
     260A      0.945220   261A      0.948546   262A      0.951773  
     263A      0.959691   264A      0.963400   265A      0.965578  
     266A      0.970071   267A      0.977592   268A      0.983188  
     269A      0.984912   270A      0.989806   271A      0.994734  
     272A      0.997556   273A      0.999184   274A      1.005603  
     275A      1.006189   276A      1.011648   277A      1.015825  
     278A      1.017584   279A      1.021696   280A      1.033073  
     281A      1.037989   282A      1.040837   283A      1.043715  
     284A      1.048517   285A      1.056401   286A      1.058532  
     287A      1.059788   288A      1.069999   289A      1.073803  
     290A      1.074903   291A      1.076505   292A      1.087214  
     293A      1.090267   294A      1.097725   295A      1.099043  
     296A      1.101319   297A      1.104553   298A      1.107124  
     299A      1.115097   300A      1.115499   301A      1.123413  
     302A      1.131683   303A      1.135468   304A      1.138116  
     305A      1.143602   306A      1.149138   307A      1.149793  
     308A      1.149900   309A      1.158759   310A      1.162922  
     311A      1.168276   312A      1.173793   313A      1.174667  
     314A      1.181111   315A      1.185605   316A      1.188085  
     317A      1.196522   318A      1.199218   319A      1.202744  
     320A      1.208841   321A      1.215664   322A      1.221332  
     323A      1.226045   324A      1.234827   325A      1.238675  
     326A      1.242059   327A      1.245160   328A      1.253929  
     329A      1.257540   330A      1.259642   331A      1.267061  
     332A      1.276407   333A      1.282156   334A      1.287150  
     335A      1.288212   336A      1.290293   337A      1.295620  
     338A      1.311164   339A      1.312273   340A      1.322688  
     341A      1.328252   342A      1.334327   343A      1.340324  
     344A      1.348275   345A      1.355839   346A      1.358008  
     347A      1.364279   348A      1.368054   349A      1.377291  
     350A      1.378581   351A      1.384987   352A      1.387715  
     353A      1.392892   354A      1.395351   355A      1.400277  
     356A      1.406372   357A      1.411131   358A      1.426677  
     359A      1.430170   360A      1.432254   361A      1.436283  
     362A      1.444500   363A      1.451110   364A      1.456024  
     365A      1.463788   366A      1.465450   367A      1.476765  
     368A      1.480463   369A      1.491081   370A      1.497637  
     371A      1.501254   372A      1.509966   373A      1.515375  
     374A      1.521771   375A      1.532280   376A      1.544409  
     377A      1.547231   378A      1.549177   379A      1.557513  
     380A      1.561683   381A      1.569740   382A      1.585612  
     383A      1.588002   384A      1.592750   385A      1.598360  
     386A      1.608899   387A      1.615827   388A      1.618519  
     389A      1.624669   390A      1.632723   391A      1.636321  
     392A      1.649454   393A      1.655641   394A      1.666160  
     395A      1.668473   396A      1.689165   397A      1.695747  
     398A      1.707063   399A      1.710769   400A      1.715439  
     401A      1.718027   402A      1.737091   403A      1.740794  
     404A      1.746634   405A      1.755671   406A      1.761693  
     407A      1.772545   408A      1.774997   409A      1.779806  
     410A      1.780902   411A      1.788527   412A      1.793851  
     413A      1.803262   414A      1.813859   415A      1.819021  
     416A      1.827302   417A      1.838314   418A      1.849591  
     419A      1.858523   420A      1.863654   421A      1.875533  
     422A      1.879158   423A      1.883008   424A      1.894524  
     425A      1.898858   426A      1.901287   427A      1.903290  
     428A      1.919824   429A      1.926550   430A      1.930514  
     431A      1.938586   432A      1.944028   433A      1.950540  
     434A      1.957774   435A      1.967003   436A      1.974147  
     437A      1.981384   438A      1.989262   439A      2.003429  
     440A      2.007163   441A      2.019326   442A      2.026947  
     443A      2.034743   444A      2.042043   445A      2.046114  
     446A      2.049991   447A      2.055823   448A      2.062858  
     449A      2.067926   450A      2.077095   451A      2.082630  
     452A      2.085034   453A      2.088738   454A      2.099222  
     455A      2.104312   456A      2.110502   457A      2.118095  
     458A      2.130302   459A      2.137632   460A      2.142477  
     461A      2.149953   462A      2.152318   463A      2.157659  
     464A      2.165753   465A      2.175936   466A      2.179626  
     467A      2.187502   468A      2.200068   469A      2.208797  
     470A      2.213233   471A      2.219859   472A      2.235887  
     473A      2.238121   474A      2.250842   475A      2.256264  
     476A      2.264345   477A      2.271370   478A      2.282046  
     479A      2.291005   480A      2.300349   481A      2.316626  
     482A      2.323908   483A      2.329726   484A      2.344072  
     485A      2.350167   486A      2.357443   487A      2.367970  
     488A      2.378817   489A      2.392390   490A      2.395330  
     491A      2.408579   492A      2.417167   493A      2.425409  
     494A      2.437426   495A      2.455709   496A      2.457804  
     497A      2.464054   498A      2.474265   499A      2.476399  
     500A      2.480166   501A      2.490708   502A      2.499586  
     503A      2.513720   504A      2.521309   505A      2.543469  
     506A      2.547260   507A      2.549735   508A      2.567114  
     509A      2.570325   510A      2.594851   511A      2.598213  
     512A      2.602775   513A      2.609813   514A      2.625604  
     515A      2.633954   516A      2.645158   517A      2.652322  
     518A      2.656024   519A      2.669799   520A      2.683104  
     521A      2.699808   522A      2.709192   523A      2.722085  
     524A      2.728336   525A      2.744779   526A      2.755820  
     527A      2.767186   528A      2.773178   529A      2.784662  
     530A      2.788162   531A      2.805346   532A      2.825185  
     533A      2.844432   534A      2.862537   535A      2.867736  
     536A      2.881146   537A      2.890797   538A      2.910698  
     539A      2.923230   540A      2.944025   541A      2.960524  
     542A      2.998919   543A      3.007094   544A      3.028314  
     545A      3.047587   546A      3.060847   547A      3.067099  
     548A      3.083496   549A      3.112472   550A      3.125356  
     551A      3.164353   552A      3.181065   553A      3.205790  
     554A      3.214494   555A      3.224180   556A      3.230913  
     557A      3.249526   558A      3.261108   559A      3.267828  
     560A      3.293229   561A      3.301815   562A      3.316836  
     563A      3.328797   564A      3.338835   565A      3.355752  
     566A      3.373590   567A      3.374597   568A      3.388568  
     569A      3.397684   570A      3.406464   571A      3.420472  
     572A      3.432924   573A      3.439863   574A      3.446803  
     575A      3.452511   576A      3.454126   577A      3.468110  
     578A      3.482803   579A      3.493255   580A      3.498845  
     581A      3.511999   582A      3.523521   583A      3.528635  
     584A      3.538905   585A      3.544335   586A      3.546208  
     587A      3.563001   588A      3.569770   589A      3.574934  
     590A      3.585542   591A      3.589492   592A      3.605530  
     593A      3.616488   594A      3.623304   595A      3.625976  
     596A      3.635586   597A      3.639891   598A      3.651164  
     599A      3.661352   600A      3.672210   601A      3.683518  
     602A      3.688468   603A      3.695456   604A      3.710640  
     605A      3.722758   606A      3.727030   607A      3.727995  
     608A      3.737554   609A      3.747350   610A      3.767385  
     611A      3.774174   612A      3.779902   613A      3.784840  
     614A      3.799634   615A      3.810500   616A      3.817948  
     617A      3.834356   618A      3.845326   619A      3.852740  
     620A      3.867175   621A      3.872121   622A      3.886821  
     623A      3.890092   624A      3.897700   625A      3.906173  
     626A      3.912168   627A      3.921119   628A      3.928759  
     629A      3.933664   630A      3.947477   631A      3.955468  
     632A      3.960173   633A      3.976769   634A      3.988645  
     635A      3.996639   636A      4.001646   637A      4.006958  
     638A      4.012272   639A      4.025875   640A      4.031269  
     641A      4.033758   642A      4.041674   643A      4.053685  
     644A      4.061397   645A      4.064504   646A      4.077735  
     647A      4.090107   648A      4.095953   649A      4.102949  
     650A      4.119239   651A      4.126856   652A      4.136691  
     653A      4.150748   654A      4.160298   655A      4.165105  
     656A      4.166417   657A      4.181931   658A      4.190951  
     659A      4.199377   660A      4.208198   661A      4.217910  
     662A      4.225065   663A      4.228563   664A      4.247218  
     665A      4.252296   666A      4.266272   667A      4.270465  
     668A      4.277551   669A      4.286728   670A      4.293851  
     671A      4.299563   672A      4.304550   673A      4.311740  
     674A      4.321140   675A      4.327200   676A      4.338407  
     677A      4.345726   678A      4.348973   679A      4.359107  
     680A      4.362672   681A      4.363205   682A      4.378646  
     683A      4.386419   684A      4.393214   685A      4.409501  
     686A      4.411997   687A      4.428917   688A      4.437936  
     689A      4.442911   690A      4.454982   691A      4.462977  
     692A      4.473338   693A      4.476525   694A      4.483318  
     695A      4.489213   696A      4.508702   697A      4.512942  
     698A      4.517710   699A      4.524286   700A      4.527602  
     701A      4.540751   702A      4.548400   703A      4.560495  
     704A      4.564490   705A      4.576735   706A      4.595497  
     707A      4.604383   708A      4.611969   709A      4.621199  
     710A      4.628950   711A      4.652773   712A      4.671289  
     713A      4.675436   714A      4.692021   715A      4.700491  
     716A      4.708461   717A      4.716684   718A      4.736936  
     719A      4.743746   720A      4.756467   721A      4.760883  
     722A      4.777992   723A      4.793774   724A      4.798398  
     725A      4.808127   726A      4.816767   727A      4.834005  
     728A      4.853252   729A      4.865039   730A      4.875519  
     731A      4.888609   732A      4.890093   733A      4.899728  
     734A      4.916114   735A      4.943587   736A      4.952600  
     737A      4.960780   738A      4.968157   739A      4.976953  
     740A      4.983715   741A      4.995443   742A      5.007603  
     743A      5.026948   744A      5.043899   745A      5.049046  
     746A      5.067711   747A      5.079023   748A      5.089124  
     749A      5.111347   750A      5.116241   751A      5.117829  
     752A      5.124312   753A      5.138861   754A      5.140021  
     755A      5.149214   756A      5.156756   757A      5.167239  
     758A      5.172600   759A      5.181725   760A      5.197784  
     761A      5.208807   762A      5.210042   763A      5.228833  
     764A      5.252817   765A      5.265969   766A      5.274091  
     767A      5.299626   768A      5.307606   769A      5.327484  
     770A      5.349057   771A      5.351878   772A      5.362852  
     773A      5.377633   774A      5.385875   775A      5.398334  
     776A      5.423422   777A      5.440456   778A      5.445254  
     779A      5.454506   780A      5.471382   781A      5.496053  
     782A      5.502897   783A      5.519027   784A      5.566830  
     785A      5.580893   786A      5.593185   787A      5.611334  
     788A      5.628744   789A      5.638963   790A      5.641562  
     791A      5.667311   792A      5.709054   793A      5.727320  
     794A      5.748781   795A      5.753244   796A      5.795532  
     797A      5.798831   798A      5.812057   799A      5.826935  
     800A      5.834400   801A      5.851404   802A      5.885160  
     803A      5.931850   804A      5.940591   805A      5.973765  
     806A      5.984941   807A      6.004316   808A      6.056300  
     809A      6.075504   810A      6.116806   811A      6.145981  
     812A      6.176606   813A      6.192307   814A      6.219118  
     815A      6.224552   816A      6.243394   817A      6.274768  
     818A      6.294862   819A      6.322791   820A      6.330255  
     821A      6.347223   822A      6.359857   823A      6.424083  
     824A      6.451201   825A      6.477704   826A      6.501325  
     827A      6.530249   828A      6.577104   829A      6.602819  
     830A      6.649946   831A      6.713101   832A      6.763163  
     833A      6.782886   834A      6.806197   835A      6.824004  
     836A      6.864313   837A      6.918699   838A      6.944654  
     839A      6.950154   840A      6.989378   841A      7.023808  
     842A      7.037416   843A      7.055740   844A      7.094842  
     845A      7.136593   846A      7.156575   847A      7.200199  
     848A      7.262233   849A      7.368786   850A      7.403116  
     851A      7.417814   852A      7.439083   853A      7.510098  
     854A      7.746232   855A      7.766800   856A      7.870624  
     857A      7.893609   858A      7.956989   859A      8.037843  
     860A      8.185513   861A     16.249719   862A     16.486100  
     863A     16.726344   864A     17.082535   865A     17.416362  
     866A     18.053270   867A     18.870532   868A     19.113544  
     869A     19.286770   870A     19.497191   871A     20.269976  
     872A     20.506124   873A     21.126373   874A     21.312943  

    Final Occupation by Irrep:
              A 
    DOCC [    49 ]

  @DF-RHF Final Energy:  -606.31307917284460

   => Energetics <=

    Nuclear Repulsion Energy =            814.9731639034464479
    One-Electron Energy =               -2441.5042259278534402
    Two-Electron Energy =                1020.2179828515623967
    Total Energy =                       -606.3130791728445956

Computation Completed

*** tstop() called on node44.bme.utexas.edu at Thu Nov  4 18:25:01 2021
Module time:
	user time   =     842.54 seconds =      14.04 minutes
	system time =       5.09 seconds =       0.08 minutes
	total time  =        848 seconds =      14.13 minutes
Total time:
	user time   =     842.54 seconds =      14.04 minutes
	system time =       5.09 seconds =       0.08 minutes
	total time  =        848 seconds =      14.13 minutes
   => Loading Basis Set <=

    Name: (AUG-CC-PVTZ AUX)
    Role: RIFIT
    Keyword: DF_BASIS_MP2
    atoms 1, 3, 5-13   entry C          line   148 file /home/bdw2292/miniconda3/envs/amoebamdpoltype/share/psi4/basis/aug-cc-pvtz-ri.gbs 
    atoms 2, 4         entry N          line   206 file /home/bdw2292/miniconda3/envs/amoebamdpoltype/share/psi4/basis/aug-cc-pvtz-ri.gbs 
    atoms 14-15, 17-24 entry H          line    30 file /home/bdw2292/miniconda3/envs/amoebamdpoltype/share/psi4/basis/aug-cc-pvtz-ri.gbs 
    atoms 16           entry O          line   264 file /home/bdw2292/miniconda3/envs/amoebamdpoltype/share/psi4/basis/aug-cc-pvtz-ri.gbs 


*** tstart() called on node44.bme.utexas.edu
*** at Thu Nov  4 18:25:01 2021


  //>>>>>>>>>>>>>>>>>>>>>>>>>>>>>>>>>>>//
  //               DFMP2               //
  //<<<<<<<<<<<<<<<<<<<<<<<<<<<<<<<<<<<//

	 --------------------------------------------------------
	                          DF-MP2                         
	      2nd-Order Density-Fitted Moller-Plesset Theory     
	              RMP2 Wavefunction,   1 Threads             
	                                                         
	        Rob Parrish, Justin Turney, Andy Simmonett,      
	           Ed Hohenstein, and C. David Sherrill          
	 --------------------------------------------------------

   => Auxiliary Basis Set <=

  Basis Set: (AUG-CC-PVTZ AUX)
    Blend: AUG-CC-PVTZ-RI
    Number of shells: 532
    Number of basis function: 1944
    Number of Cartesian functions: 2454
    Spherical Harmonics?: true
    Max angular momentum: 4

	 --------------------------------------------------------
	                 NBF =   874, NAUX =  1944
	 --------------------------------------------------------
	   CLASS    FOCC     OCC    AOCC    AVIR     VIR    FVIR
	   PAIRS      14      49      35     825     825       0
	 --------------------------------------------------------


         ------------------------------------------------------------
                                     CPHF                           
                                  Rob Parrish                       
         ------------------------------------------------------------

  ==> Geometry <==

    Molecular point group: c1
    Full point group: C1

    Geometry (in Angstrom), charge = 0, multiplicity = 1:

       Center              X                  Y                   Z               Mass       
    ------------   -----------------  -----------------  -----------------  -----------------
         C           -0.185035074998    -0.665285082337    -0.680204733427    12.000000000000
         N           -0.178666286389    -1.699834129155    -1.665450029127    14.003074004430
         C           -1.402892413515    -0.070794584475    -0.395092170126    12.000000000000
         N           -3.206289479686     0.873184941779     0.657331631224    14.003074004430
         C           -2.651245898814    -0.494103215965    -1.023211704248    12.000000000000
         C           -1.822269691760     0.827533267076     0.742115140976    12.000000000000
         C           -3.687067805604     0.103975475276    -0.387643117722    12.000000000000
         C            1.171177000251    -0.373573375106    -0.172370313357    12.000000000000
         C            2.260848654308    -1.035483987361    -0.780253842954    12.000000000000
         C            1.459455840754     0.624155703812     0.777532375010    12.000000000000
         C            3.571126391102    -0.747531361118    -0.414770361420    12.000000000000
         C            2.774874565717     0.894522172853     1.144746323409    12.000000000000
         C            3.841214004838     0.228625165011     0.543261938890    12.000000000000
         H            0.070376869620    -1.347475103883    -2.589274357666     1.007825032230
         H           -3.749778990781     1.410345579052     1.319817363542     1.007825032230
         O           -1.202424195648     1.438323194598     1.615948714173    15.994914619570
         H            2.070935431281    -1.832464870669    -1.488789020795     1.007825032230
         H            0.651271196892     1.162772635552     1.252124237783     1.007825032230
         H            4.387480634747    -1.282776788877    -0.893891361389     1.007825032230
         H            2.964400076905     1.659259085476     1.894153136855     1.007825032230
         H            4.865832759163     0.450991332223     0.831421795654     1.007825032230
         H           -1.101966897175    -2.115891846973    -1.744850109073     1.007825032230
         H           -2.761793819053    -1.071533100114    -1.929482461275     1.007825032230
         H           -4.747258105267     0.054849892590    -0.599850735158     1.007825032230

  Nuclear repulsion =  814.973163903446448
  Reference energy  = -606.313079172844596

  ==> Basis Set <==

  Basis Set: AUG-CC-PVTZ
    Blend: AUG-CC-PVTZ
    Number of shells: 286
    Number of basis function: 874
    Number of Cartesian functions: 1020
    Spherical Harmonics?: true
    Max angular momentum: 3

  ==> CGRSolver (by Rob Parrish) <==

   Number of roots    =         1
   Preconditioning    =    JACOBI
   Convergence cutoff =     1E-06
   Maximum iterations =       100

  ==> CPHFRHamiltonian (by Rob Parrish) <== 

  ==> DiskDFJK: Density-Fitted J/K Matrices <==

    J tasked:                  Yes
    K tasked:                  Yes
    wK tasked:                  No
    OpenMP threads:              1
    Integrals threads:           1
    Memory [MiB]:             5960
    Algorithm:                Core
    Integral Cache:           NONE
    Schwarz Cutoff:          1E-12
    Fitting Condition:       1E-10

   => Auxiliary Basis Set <=

  Basis Set: (AUG-CC-PVTZ AUX)
    Blend: AUG-CC-PVTZ-JKFIT
    Number of shells: 560
    Number of basis function: 1916
    Number of Cartesian functions: 2384
    Spherical Harmonics?: true
    Max angular momentum: 4

  ==> CPHF Iterations <==

  => Iterations <=

             Iter  Converged  Remaining    Residual
  CGR           1          0          1   1.399E-01
  CGR           2          0          1   4.503E-02
  CGR           3          0          1   2.299E-02
  CGR           4          0          1   7.932E-03
  CGR           5          0          1   4.896E-03
  CGR           6          0          1   2.317E-03
  CGR           7          0          1   7.555E-04
  CGR           8          0          1   2.671E-04
  CGR           9          0          1   7.835E-05
  CGR          10          0          1   2.876E-05
  CGR          11          0          1   1.057E-05
  CGR          12          0          1   4.435E-06
  CGR          13          0          1   2.325E-06
  CGR          14          1          0   7.762E-07

    CGRSolver converged.

	-----------------------------------------------------------
	 ==================> DF-MP2 Energies <==================== 
	-----------------------------------------------------------
	 Reference Energy          =    -606.3130791728445956 [Eh]
	 Singles Energy            =      -0.0000000000000000 [Eh]
	 Same-Spin Energy          =      -0.6238840403371859 [Eh]
	 Opposite-Spin Energy      =      -1.7888075381568549 [Eh]
	 Correlation Energy        =      -2.4126915784940408 [Eh]
	 Total Energy              =    -608.7257707513385867 [Eh]
	-----------------------------------------------------------
	 ================> DF-SCS-MP2 Energies <================== 
	-----------------------------------------------------------
	 SCS Same-Spin Scale       =       0.3333333333333333 [-]
	 SCS Opposite-Spin Scale   =       1.2000000000000000 [-]
	 SCS Same-Spin Energy      =      -0.2079613467790620 [Eh]
	 SCS Opposite-Spin Energy  =      -2.1465690457882256 [Eh]
	 SCS Correlation Energy    =      -2.3545303925672876 [Eh]
	 SCS Total Energy          =    -608.6676095654119081 [Eh]
	-----------------------------------------------------------



Properties will be evaluated at  -0.000000,  -0.000000,   0.000000 [a0]

Properties computed using the MP2 density matrix

  Nuclear Dipole Moment: [e a0]
     X:     2.4879      Y:    -2.7205      Z:    -3.6910

  Electronic Dipole Moment: [e a0]
     X:    -3.3946      Y:     2.4004      Z:     2.7264

  Dipole Moment: [e a0]
     X:    -0.9067      Y:    -0.3202      Z:    -0.9647     Total:     1.3621

  Dipole Moment: [D]
     X:    -2.3046      Y:    -0.8138      Z:    -2.4519     Total:     3.4620


*** tstop() called on node44.bme.utexas.edu at Thu Nov  4 19:07:02 2021
Module time:
	user time   =    2500.60 seconds =      41.68 minutes
	system time =      20.27 seconds =       0.34 minutes
	total time  =       2521 seconds =      42.02 minutes
Total time:
	user time   =    3343.38 seconds =      55.72 minutes
	system time =      25.36 seconds =       0.42 minutes
	total time  =       3369 seconds =      56.15 minutes
  ==> One Electron Grid Properties (v2.0) <==

  ==> CubicScalarGrid <==

    Filepath     = .
    Total Points =           853776
    XYZ Blocking =               10
    X Points     =              132
    Y Points     =               77
    Z Points     =               84
    X Spacing    =        2.000E-01
    Y Spacing    =        2.000E-01
    Z Spacing    =        2.000E-01
    X Minimum    =       -1.299E+01
    Y Minimum    =       -8.031E+00
    Z Minimum    =       -8.957E+00
    X Maximum    =        1.321E+01
    Y Maximum    =        7.169E+00
    Z Maximum    =        7.643E+00

  Basis Set: AUG-CC-PVTZ
    Blend: AUG-CC-PVTZ
    Number of shells: 286
    Number of basis function: 874
    Number of Cartesian functions: 1020
    Spherical Harmonics?: true
    Max angular momentum: 3



Properties will be evaluated at  -0.000000,  -0.000000,   0.000000 [a0]
OEProp: No title given, name of density matrix used for the following properties is 'DF-MP2 relaxed density'
  Mulliken Charges: (a.u.)
   Center  Symbol    Alpha    Beta     Spin     Total
       1     C     2.58535  2.58535  0.00000  0.82930
       2     N     3.87279  3.87279  0.00000 -0.74558
       3     C     2.43589  2.43589  0.00000  1.12821
       4     N     3.45270  3.45270  0.00000  0.09460
       5     C     3.22902  3.22902  0.00000 -0.45804
       6     C     3.04523  3.04523  0.00000 -0.09047
       7     C     3.48362  3.48362  0.00000 -0.96725
       8     C     2.14109  2.14109  0.00000  1.71781
       9     C     3.40114  3.40114  0.00000 -0.80229
      10     C     3.51861  3.51861  0.00000 -1.03721
      11     C     3.38206  3.38206  0.00000 -0.76412
      12     C     3.43140  3.43140  0.00000 -0.86279
      13     C     3.15956  3.15956  0.00000 -0.31912
      14     H     0.43688  0.43688  0.00000  0.12625
      15     H     0.45342  0.45342  0.00000  0.09315
      16     O     4.40318  4.40318  0.00000 -0.80637
      17     H     0.45421  0.45421  0.00000  0.09157
      18     H     0.29536  0.29536  0.00000  0.40929
      19     H     0.29559  0.29559  0.00000  0.40883
      20     H     0.28429  0.28429  0.00000  0.43141
      21     H     0.25815  0.25815  0.00000  0.48371
      22     H     0.49625  0.49625  0.00000  0.00751
      23     H     0.32162  0.32162  0.00000  0.35676
      24     H     0.16258  0.16258  0.00000  0.67485

   Total alpha = 49.00000, Total beta = 49.00000, Total charge = -0.00000



  Wiberg Bond Indices using Orthogonal Lowdin Orbitals:

  Irrep: 1 Size: 24 x 24

                 1                   2                   3                   4                   5

    1     0.00000000000000     1.30742992312667     1.28438076171193     0.05107080228312     0.35400724071028
    2     1.30742992312667     0.00000000000000     0.34024089921351     0.00859985127009     0.12298613065280
    3     1.28438076171193     0.34024089921351     0.00000000000000     0.36862525657274     1.12939831662687
    4     0.05107080228312     0.00859985127009     0.36862525657274     0.00000000000000     0.45889884443902
    5     0.35400724071028     0.12298613065280     1.12939831662687     0.45889884443902     0.00000000000000
    6     0.30959625472397     0.04710621545207     1.00974601240470     1.36175587950131     0.36566976045886
    7     0.08666610254677     0.02182897736153     0.46128372358173     1.38583345918305     1.44763152049098
    8     1.04760155186310     0.29625727512458     0.29418562986838     0.00791804430284     0.04814665244471
    9     0.32470040575992     0.14945058729420     0.04844979485257     0.00138042273905     0.00836318183367
   10     0.30164574702890     0.03932869347369     0.07827574468655     0.00590371360534     0.01041541220764
   11     0.05746600334818     0.02092382567982     0.00959055168683     0.00071823603569     0.00264467615134
   12     0.05358611939841     0.00640783155386     0.01273031625758     0.00112589018440     0.00252704397623
   13     0.02394196062941     0.00506816537500     0.00792000702595     0.00089863732237     0.00266883099454
   14     0.31566052259923     1.06063971531202     0.05950389165026     0.00134830401018     0.02352566728528
   15     0.00488972869681     0.00110939711790     0.05194779646302     1.03110383273427     0.05900786181185
   16     0.06862705096597     0.01226012419043     0.32605344475716     0.42359389107703     0.04759854635702
   17     0.08352026428974     0.11627777572997     0.00901313619744     0.00036827718052     0.00229867270067
   18     0.06281040110217     0.00435056652412     0.03374993506279     0.00919653552140     0.00411837230839
   19     0.00532647497834     0.00212022932604     0.00092819836514     0.00007077094057     0.00022313941498
   20     0.00480102160012     0.00088297277058     0.00106075355302     0.00008856919586     0.00015853444691
   21     0.00340556837697     0.00085496383739     0.00178036604292     0.00024191526365     0.00071448355906
   22     0.32862612837233     1.07092705513826     0.10097167940000     0.00476001199303     0.10404517999774
   23     0.05953317942212     0.05833200295338     0.24691474924860     0.05787389839743     0.82507561930529
   24     0.01121197498771     0.00301276720517     0.06087451956202     0.26914494318072     0.32031422784853

                 6                   7                   8                   9                  10

    1     0.30959625472397     0.08666610254677     1.04760155186310     0.32470040575992     0.30164574702890
    2     0.04710621545207     0.02182897736153     0.29625727512458     0.14945058729420     0.03932869347369
    3     1.00974601240470     0.46128372358173     0.29418562986838     0.04844979485257     0.07827574468655
    4     1.36175587950131     1.38583345918305     0.00791804430284     0.00138042273905     0.00590371360534
    5     0.36566976045886     1.44763152049098     0.04814665244471     0.00836318183367     0.01041541220764
    6     0.00000000000000     0.42649360622682     0.06596306629653     0.00844184861766     0.05877837811792
    7     0.42649360622682     0.00000000000000     0.01418500119036     0.00370392970725     0.00527701117242
    8     0.06596306629653     0.01418500119036     0.00000000000000     1.20306999471640     1.20964646967902
    9     0.00844184861766     0.00370392970725     1.20306999471640     0.00000000000000     0.37250281748776
   10     0.05877837811792     0.00527701117242     1.20964646967902     0.37250281748776     0.00000000000000
   11     0.00297839516728     0.00194473031520     0.38617419604493     1.31750928134011     0.19411138548180
   12     0.01053438402618     0.00205052750850     0.38993387824932     0.19688110204696     1.30086523891392
   13     0.00380474924122     0.00242635183132     0.18678569319126     0.40939368280395     0.40452522170096
   14     0.00648485464158     0.00365810752280     0.05936081401616     0.04357365441187     0.00594239206936
   15     0.31701909700380     0.29702656774873     0.00076239688461     0.00013654022100     0.00098886267733
   16     2.59232298558419     0.06116946592913     0.03319994888783     0.00478373409811     0.11210976255653
   17     0.00161090681815     0.00095417170193     0.28275852421904     0.79791456264090     0.04681869936904
   18     0.10787556117229     0.00285062077642     0.28471462229959     0.04768930634046     0.79090950457371
   19     0.00027378745552     0.00012925549781     0.05194711751956     0.31680903415941     0.02141416616059
   20     0.00129908138030     0.00010363641983     0.05222500632994     0.02168600070445     0.31372573751317
   21     0.00086751716316     0.00066624034544     0.01995306110630     0.05326872125447     0.05266523242276
   22     0.01116697179662     0.02206656977165     0.04477955169527     0.01923365345469     0.00421349718926
   23     0.04499611232216     0.33569913291745     0.00493372454589     0.00136377637842     0.00103859544686
   24     0.04897892965946     0.85685612376599     0.00280923136996     0.00087988747400     0.00108589962998

                11                  12                  13                  14                  15

    1     0.05746600334818     0.05358611939841     0.02394196062941     0.31566052259923     0.00488972869681
    2     0.02092382567982     0.00640783155386     0.00506816537500     1.06063971531202     0.00110939711790
    3     0.00959055168683     0.01273031625758     0.00792000702595     0.05950389165026     0.05194779646302
    4     0.00071823603569     0.00112589018440     0.00089863732237     0.00134830401018     1.03110383273427
    5     0.00264467615134     0.00252704397623     0.00266883099454     0.02352566728528     0.05900786181185
    6     0.00297839516728     0.01053438402618     0.00380474924122     0.00648485464158     0.31701909700380
    7     0.00194473031520     0.00205052750850     0.00242635183132     0.00365810752280     0.29702656774873
    8     0.38617419604493     0.38993387824932     0.18678569319126     0.05936081401616     0.00076239688461
    9     1.31750928134011     0.19688110204696     0.40939368280395     0.04357365441187     0.00013654022100
   10     0.19411138548180     1.30086523891392     0.40452522170096     0.00594239206936     0.00098886267733
   11     0.00000000000000     0.41471377834171     1.32525715291892     0.00626529218597     0.00004940005569
   12     0.41471377834171     0.00000000000000     1.32504225920233     0.00134772654624     0.00014946677907
   13     1.32525715291892     1.32504225920233     0.00000000000000     0.00139655431022     0.00004700239527
   14     0.00626529218597     0.00134772654624     0.00139655431022     0.00000000000000     0.00022662586807
   15     0.00004940005569     0.00014946677907     0.00004700239527     0.00022662586807     0.00000000000000
   16     0.00229311614789     0.01989797612814     0.00403215872899     0.00218969279050     0.08115369639272
   17     0.30457141421011     0.02058156256626     0.05204645807312     0.03925579571785     0.00005538107536
   18     0.02062125330466     0.30232375767509     0.05209568737294     0.00078091720621     0.00144087778395
   19     0.84359213129596     0.05406231891855     0.31151018188268     0.00069666783361     0.00001544944361
   20     0.05399972532766     0.84075506206312     0.31148618089387     0.00024414304413     0.00003038749587
   21     0.31227685416052     0.31250844100196     0.84894372908998     0.00025749540932     0.00001312559406
   22     0.00178066508005     0.00092182434398     0.00060455209260     0.31842503267918     0.00077423770808
   23     0.00024703779325     0.00020516568181     0.00016213498683     0.01241271800302     0.00533096964514
   24     0.00051973341873     0.00053785328538     0.00065765226140     0.00060507328319     0.04553618430691

                16                  17                  18                  19                  20

    1     0.06862705096597     0.08352026428974     0.06281040110217     0.00532647497834     0.00480102160012
    2     0.01226012419043     0.11627777572997     0.00435056652412     0.00212022932604     0.00088297277058
    3     0.32605344475716     0.00901313619744     0.03374993506279     0.00092819836514     0.00106075355302
    4     0.42359389107703     0.00036827718052     0.00919653552140     0.00007077094057     0.00008856919586
    5     0.04759854635702     0.00229867270067     0.00411837230839     0.00022313941498     0.00015853444691
    6     2.59232298558419     0.00161090681815     0.10787556117229     0.00027378745552     0.00129908138030
    7     0.06116946592913     0.00095417170193     0.00285062077642     0.00012925549781     0.00010363641983
    8     0.03319994888783     0.28275852421904     0.28471462229959     0.05194711751956     0.05222500632994
    9     0.00478373409811     0.79791456264090     0.04768930634046     0.31680903415941     0.02168600070445
   10     0.11210976255653     0.04681869936904     0.79090950457371     0.02141416616059     0.31372573751317
   11     0.00229311614789     0.30457141421011     0.02062125330466     0.84359213129596     0.05399972532766
   12     0.01989797612814     0.02058156256626     0.30232375767509     0.05406231891855     0.84075506206312
   13     0.00403215872899     0.05204645807312     0.05209568737294     0.31151018188268     0.31148618089387
   14     0.00218969279050     0.03925579571785     0.00078091720621     0.00069666783361     0.00024414304413
   15     0.08115369639272     0.00005538107536     0.00144087778395     0.00001544944361     0.00003038749587
   16     0.00000000000000     0.00099900158502     0.29725360445311     0.00018771519839     0.00237741951129
   17     0.00099900158502     0.00000000000000     0.00345198593319     0.06230732520411     0.00267278919684
   18     0.29725360445311     0.00345198593319     0.00000000000000     0.00266597733422     0.06171651380702
   19     0.00018771519839     0.06230732520411     0.00266597733422     0.00000000000000     0.00404526507524
   20     0.00237741951129     0.00267278919684     0.06171651380702     0.00404526507524     0.00000000000000
   21     0.00093316924981     0.00376976951225     0.00382191122563     0.05938261181587     0.05950424036074
   22     0.00228269949574     0.01813412701706     0.00067558225092     0.00021193184871     0.00017266430014
   23     0.00549469995584     0.00085718199980     0.00053259536813     0.00003962454232     0.00004202291475
   24     0.00555789229473     0.00023520505629     0.00054631562862     0.00003554488748     0.00003313364721

                21                  22                  23                  24

    1     0.00340556837697     0.32862612837233     0.05953317942212     0.01121197498771
    2     0.00085496383739     1.07092705513826     0.05833200295338     0.00301276720517
    3     0.00178036604292     0.10097167940000     0.24691474924860     0.06087451956202
    4     0.00024191526365     0.00476001199303     0.05787389839743     0.26914494318072
    5     0.00071448355906     0.10404517999774     0.82507561930529     0.32031422784853
    6     0.00086751716316     0.01116697179662     0.04499611232216     0.04897892965946
    7     0.00066624034544     0.02206656977165     0.33569913291745     0.85685612376599
    8     0.01995306110630     0.04477955169527     0.00493372454589     0.00280923136996
    9     0.05326872125447     0.01923365345469     0.00136377637842     0.00087988747400
   10     0.05266523242276     0.00421349718926     0.00103859544686     0.00108589962998
   11     0.31227685416052     0.00178066508005     0.00024703779325     0.00051973341873
   12     0.31250844100196     0.00092182434398     0.00020516568181     0.00053785328538
   13     0.84894372908998     0.00060455209260     0.00016213498683     0.00065765226140
   14     0.00025749540932     0.31842503267918     0.01241271800302     0.00060507328319
   15     0.00001312559406     0.00077423770808     0.00533096964514     0.04553618430691
   16     0.00093316924981     0.00228269949574     0.00549469995584     0.00555789229473
   17     0.00376976951225     0.01813412701706     0.00085718199980     0.00023520505629
   18     0.00382191122563     0.00067558225092     0.00053259536813     0.00054631562862
   19     0.05938261181587     0.00021193184871     0.00003962454232     0.00003554488748
   20     0.05950424036074     0.00017266430014     0.00004202291475     0.00003313364721
   21     0.00000000000000     0.00014336382808     0.00004682604960     0.00018172908711
   22     0.00014336382808     0.00000000000000     0.06865732861082     0.00216511356932
   23     0.00004682604960     0.06865732861082     0.00000000000000     0.05562965045784
   24     0.00018172908711     0.00216511356932     0.05562965045784     0.00000000000000



  Atomic Valences: 

 #  #
 Irrep: 1
      1:  6.1505052
      2:  4.6963959
      3:  5.9376255
      4:  5.4505200
      5:  5.3404379
      6:  6.8037644
      7:  5.4405048
      8:  5.9873115
      9:  5.3511859
     10:  5.3321882
     11:  5.2802488
     12:  5.2696895
     13:  5.2807150
     14:  1.9638017
     15:  1.8988149
     16:  4.1063718
     17:  1.8504730
     18:  2.0961924
     19:  1.7379949
     20:  1.7331109
     21:  1.7362013
     22:  2.1257394
     23:  1.7854187
     24:  1.6874096


 Electrostatic potential computed on the grid and written to grid_esp.dat

    Psi4 stopped on: Thursday, 04 November 2021 07:53PM
    Psi4 wall time for execution: 1:43:05.54

*** Psi4 exiting successfully. Buy a developer a beer!
