
    -----------------------------------------------------------------------
          Psi4: An Open-Source Ab Initio Electronic Structure Package
                               Psi4 1.3.2 release

                         Git: Rev {HEAD} ecbda83 


    R. M. Parrish, L. A. Burns, D. G. A. Smith, A. C. Simmonett,
    A. E. DePrince III, E. G. Hohenstein, U. Bozkaya, A. Yu. Sokolov,
    R. Di Remigio, R. M. Richard, J. F. Gonthier, A. M. James,
    H. R. McAlexander, A. Kumar, M. Saitow, X. Wang, B. P. Pritchard,
    P. Verma, H. F. Schaefer III, K. Patkowski, R. A. King, E. F. Valeev,
    F. A. Evangelista, J. M. Turney, T. D. Crawford, and C. D. Sherrill,
    J. Chem. Theory Comput. 13(7) pp 3185--3197 (2017).
    (doi: 10.1021/acs.jctc.7b00174)


                         Additional Contributions by
    P. Kraus, H. Kruse, M. H. Lechner, M. C. Schieber, R. A. Shaw,
    A. Alenaizan, R. Galvelis, Z. L. Glick, S. Lehtola, and J. P. Misiewicz

    -----------------------------------------------------------------------


    Psi4 started on: Thursday, 04 November 2021 06:03PM

    Process ID: 60324
    Host:       node44.bme.utexas.edu
    PSIDATADIR: /home/bdw2292/miniconda3/envs/amoebamdpoltype/share/psi4
    Memory:     500.0 MiB
    Threads:    1
    
  ==> Input File <==

--------------------------------------------------------------------------
molecule { 
0 1
C -0.185035074998 -0.665285082337 -0.680204733427
N -0.178666286389 -1.699834129155 -1.665450029127
C -1.402892413515 -0.070794584475 -0.395092170126
N -3.206289479686 0.873184941779 0.657331631224
C -2.651245898814 -0.494103215965 -1.023211704248
C -1.822269691760 0.827533267076 0.742115140976
C -3.687067805604 0.103975475276 -0.387643117722
C 1.171177000251 -0.373573375106 -0.172370313357
C 2.260848654308 -1.035483987361 -0.780253842954
C 1.459455840754 0.624155703812 0.777532375010
C 3.571126391102 -0.747531361118 -0.414770361420
C 2.774874565717 0.894522172853 1.144746323409
C 3.841214004838 0.228625165011 0.543261938890
H 0.070376869620 -1.347475103883 -2.589274357666
H -3.749778990781 1.410345579052 1.319817363542
O -1.202424195648 1.438323194598 1.615948714173
H 2.070935431281 -1.832464870669 -1.488789020795
H 0.651271196892 1.162772635552 1.252124237783
H 4.387480634747 -1.282776788877 -0.893891361389
H 2.964400076905 1.659259085476 1.894153136855
H 4.865832759163 0.450991332223 0.831421795654
H -1.101966897175 -2.115891846973 -1.744850109073
H -2.761793819053 -1.071533100114 -1.929482461275
H -4.747258105267 0.054849892590 -0.599850735158
}
memory 8.333333333333334GB
set_num_threads(1)
psi4_io.set_default_path("/scratch/bdw2292/Psi4-7_Index_0-farH_in17")
set freeze_core True
set PROPERTIES_ORIGIN ["COM"]
set cubeprop_tasks ['esp']
E, wfn = properties('mp2/6-311G**',properties=['dipole'],return_wfn=True)
cubeprop(wfn)
fchk(wfn, "7_Index_0-dma.fchk")
clean()
--------------------------------------------------------------------------

  Memory set to   7.761 GiB by Python driver.
  Threads set to 1 by Python driver.
    SCF Algorithm Type (re)set to DF.

*** tstart() called on node44.bme.utexas.edu
*** at Thu Nov  4 18:03:37 2021

   => Loading Basis Set <=

    Name: 6-311G**
    Role: ORBITAL
    Keyword: BASIS
    atoms 1, 3, 5-13   entry C          line   113 file /home/bdw2292/miniconda3/envs/amoebamdpoltype/share/psi4/basis/6-311gss.gbs 
    atoms 2, 4         entry N          line   132 file /home/bdw2292/miniconda3/envs/amoebamdpoltype/share/psi4/basis/6-311gss.gbs 
    atoms 14-15, 17-24 entry H          line    32 file /home/bdw2292/miniconda3/envs/amoebamdpoltype/share/psi4/basis/6-311gss.gbs 
    atoms 16           entry O          line   151 file /home/bdw2292/miniconda3/envs/amoebamdpoltype/share/psi4/basis/6-311gss.gbs 


         ---------------------------------------------------------
                                   SCF
               by Justin Turney, Rob Parrish, Andy Simmonett
                          and Daniel G. A. Smith
                              RHF Reference
                        1 Threads,   7947 MiB Core
         ---------------------------------------------------------

  ==> Geometry <==

    Molecular point group: c1
    Full point group: C1

    Geometry (in Angstrom), charge = 0, multiplicity = 1:

       Center              X                  Y                   Z               Mass       
    ------------   -----------------  -----------------  -----------------  -----------------
         C           -0.185035074998    -0.665285082337    -0.680204733427    12.000000000000
         N           -0.178666286389    -1.699834129155    -1.665450029127    14.003074004430
         C           -1.402892413515    -0.070794584475    -0.395092170126    12.000000000000
         N           -3.206289479686     0.873184941779     0.657331631224    14.003074004430
         C           -2.651245898814    -0.494103215965    -1.023211704248    12.000000000000
         C           -1.822269691760     0.827533267076     0.742115140976    12.000000000000
         C           -3.687067805604     0.103975475276    -0.387643117722    12.000000000000
         C            1.171177000251    -0.373573375106    -0.172370313357    12.000000000000
         C            2.260848654308    -1.035483987361    -0.780253842954    12.000000000000
         C            1.459455840754     0.624155703812     0.777532375010    12.000000000000
         C            3.571126391102    -0.747531361118    -0.414770361420    12.000000000000
         C            2.774874565717     0.894522172853     1.144746323409    12.000000000000
         C            3.841214004838     0.228625165011     0.543261938890    12.000000000000
         H            0.070376869620    -1.347475103883    -2.589274357666     1.007825032230
         H           -3.749778990781     1.410345579052     1.319817363542     1.007825032230
         O           -1.202424195648     1.438323194598     1.615948714173    15.994914619570
         H            2.070935431281    -1.832464870669    -1.488789020795     1.007825032230
         H            0.651271196892     1.162772635552     1.252124237783     1.007825032230
         H            4.387480634747    -1.282776788877    -0.893891361389     1.007825032230
         H            2.964400076905     1.659259085476     1.894153136855     1.007825032230
         H            4.865832759163     0.450991332223     0.831421795654     1.007825032230
         H           -1.101966897175    -2.115891846973    -1.744850109073     1.007825032230
         H           -2.761793819053    -1.071533100114    -1.929482461275     1.007825032230
         H           -4.747258105267     0.054849892590    -0.599850735158     1.007825032230

  Running in c1 symmetry.

  Rotational constants: A =      0.05196  B =      0.01509  C =      0.01173 [cm^-1]
  Rotational constants: A =   1557.82902  B =    452.38845  C =    351.69704 [MHz]
  Nuclear repulsion =  814.973163903446448

  Charge       = 0
  Multiplicity = 1
  Electrons    = 98
  Nalpha       = 49
  Nbeta        = 49

  ==> Algorithm <==

  SCF Algorithm Type is DF.
  DIIS enabled.
  MOM disabled.
  Fractional occupation disabled.
  Guess Type is SAD.
  Energy threshold   = 1.00e-10
  Density threshold  = 1.00e-10
  Integral threshold = 0.00e+00

  ==> Primary Basis <==

  Basis Set: 6-311G**
    Blend: 6-311G**
    Number of shells: 152
    Number of basis function: 312
    Number of Cartesian functions: 326
    Spherical Harmonics?: true
    Max angular momentum: 2

   => Loading Basis Set <=

    Name: (6-311G** AUX)
    Role: JKFIT
    Keyword: DF_BASIS_SCF
    atoms 1, 3, 5-13   entry C          line   125 file /home/bdw2292/miniconda3/envs/amoebamdpoltype/share/psi4/basis/cc-pvtz-jkfit.gbs 
    atoms 2, 4         entry N          line   177 file /home/bdw2292/miniconda3/envs/amoebamdpoltype/share/psi4/basis/cc-pvtz-jkfit.gbs 
    atoms 14-15, 17-24 entry H          line    51 file /home/bdw2292/miniconda3/envs/amoebamdpoltype/share/psi4/basis/cc-pvtz-jkfit.gbs 
    atoms 16           entry O          line   229 file /home/bdw2292/miniconda3/envs/amoebamdpoltype/share/psi4/basis/cc-pvtz-jkfit.gbs 

  ==> Pre-Iterations <==

   -------------------------------------------------------
    Irrep   Nso     Nmo     Nalpha   Nbeta   Ndocc  Nsocc
   -------------------------------------------------------
     A        312     312       0       0       0       0
   -------------------------------------------------------
    Total     312     312      49      49      49       0
   -------------------------------------------------------

  ==> Integral Setup <==

  DFHelper Memory: AOs need 0.844 GiB; user supplied 5.821 GiB. Using in-core AOs.

  ==> MemDFJK: Density-Fitted J/K Matrices <==

    J tasked:                   Yes
    K tasked:                   Yes
    wK tasked:                   No
    OpenMP threads:               1
    Memory [MiB]:              5960
    Algorithm:                 Core
    Schwarz Cutoff:           1E-12
    Mask sparsity (%):      20.6279
    Fitting Condition:        1E-10

   => Auxiliary Basis Set <=

  Basis Set: (6-311G** AUX)
    Blend: CC-PVTZ-JKFIT
    Number of shells: 450
    Number of basis function: 1406
    Number of Cartesian functions: 1694
    Spherical Harmonics?: true
    Max angular momentum: 4

  Minimum eigenvalue in the overlap matrix is 1.8895386140E-04.
  Using Symmetric Orthogonalization.

  SCF Guess: Superposition of Atomic Densities via on-the-fly atomic UHF.

  ==> Iterations <==

                           Total Energy        Delta E     RMS |[F,P]|

   @DF-RHF iter SAD:  -605.60550458707201   -6.05606e+02   0.00000e+00 
   @DF-RHF iter   1:  -605.93327298161103   -3.27768e-01   2.37073e-03 DIIS
   @DF-RHF iter   2:  -606.17536113732649   -2.42088e-01   1.25384e-03 DIIS
   @DF-RHF iter   3:  -606.23364169104366   -5.82806e-02   3.10961e-04 DIIS
   @DF-RHF iter   4:  -606.23892846377794   -5.28677e-03   1.27431e-04 DIIS
   @DF-RHF iter   5:  -606.23986294875590   -9.34485e-04   2.56458e-05 DIIS
   @DF-RHF iter   6:  -606.23995957464649   -9.66259e-05   1.13767e-05 DIIS
   @DF-RHF iter   7:  -606.23998112780873   -2.15532e-05   5.01100e-06 DIIS
   @DF-RHF iter   8:  -606.23998496384002   -3.83603e-06   1.79285e-06 DIIS
   @DF-RHF iter   9:  -606.23998545384416   -4.90004e-07   9.01853e-07 DIIS
   @DF-RHF iter  10:  -606.23998556836978   -1.14526e-07   3.35330e-07 DIIS
   @DF-RHF iter  11:  -606.23998559213453   -2.37648e-08   1.29411e-07 DIIS
   @DF-RHF iter  12:  -606.23998559493327   -2.79874e-09   4.88330e-08 DIIS
   @DF-RHF iter  13:  -606.23998559540451   -4.71232e-10   2.21731e-08 DIIS
   @DF-RHF iter  14:  -606.23998559550114   -9.66338e-11   9.60281e-09 DIIS
   @DF-RHF iter  15:  -606.23998559552740   -2.62617e-11   4.69257e-09 DIIS
   @DF-RHF iter  16:  -606.23998559553286   -5.45697e-12   2.23418e-09 DIIS
   @DF-RHF iter  17:  -606.23998559553024    2.61480e-12   9.87132e-10 DIIS
   @DF-RHF iter  18:  -606.23998559553343   -3.18323e-12   4.49192e-10 DIIS
   @DF-RHF iter  19:  -606.23998559553195    1.47793e-12   1.93698e-10 DIIS
   @DF-RHF iter  20:  -606.23998559553434   -2.38742e-12   6.81364e-11 DIIS
  Energy and wave function converged.


  ==> Post-Iterations <==

    Orbital Energies [Eh]
    ---------------------

    Doubly Occupied:                                                      

       1A    -20.515803     2A    -15.595350     3A    -15.568821  
       4A    -11.359179     5A    -11.316655     6A    -11.284933  
       7A    -11.246790     8A    -11.244741     9A    -11.238174  
      10A    -11.235311    11A    -11.231089    12A    -11.229785  
      13A    -11.226604    14A    -11.224063    15A     -1.377750  
      16A     -1.272607    17A     -1.232999    18A     -1.145929  
      19A     -1.069556    20A     -1.031707    21A     -1.009322  
      22A     -0.979232    23A     -0.896111    24A     -0.834155  
      25A     -0.816886    26A     -0.800531    27A     -0.744543  
      28A     -0.711407    29A     -0.704262    30A     -0.673422  
      31A     -0.646290    32A     -0.637257    33A     -0.613972  
      34A     -0.608096    35A     -0.605058    36A     -0.597512  
      37A     -0.584688    38A     -0.580208    39A     -0.546573  
      40A     -0.509449    41A     -0.503670    42A     -0.486166  
      43A     -0.473088    44A     -0.456026    45A     -0.417336  
      46A     -0.399910    47A     -0.344912    48A     -0.329592  
      49A     -0.276307  

    Virtual:                                                              

      50A      0.050473    51A      0.138141    52A      0.145349  
      53A      0.158141    54A      0.161581    55A      0.167408  
      56A      0.187729    57A      0.195859    58A      0.200105  
      59A      0.210685    60A      0.222356    61A      0.254601  
      62A      0.263431    63A      0.291121    64A      0.305826  
      65A      0.335689    66A      0.367181    67A      0.380898  
      68A      0.389179    69A      0.425830    70A      0.434509  
      71A      0.442142    72A      0.451390    73A      0.458401  
      74A      0.475165    75A      0.484362    76A      0.494274  
      77A      0.510804    78A      0.525353    79A      0.546180  
      80A      0.559314    81A      0.563207    82A      0.570353  
      83A      0.585801    84A      0.596217    85A      0.600543  
      86A      0.606408    87A      0.610735    88A      0.618164  
      89A      0.627287    90A      0.631965    91A      0.642784  
      92A      0.653794    93A      0.657058    94A      0.660585  
      95A      0.669833    96A      0.690602    97A      0.699355  
      98A      0.722391    99A      0.735531   100A      0.750191  
     101A      0.765276   102A      0.773104   103A      0.783936  
     104A      0.803157   105A      0.807030   106A      0.815030  
     107A      0.817311   108A      0.821476   109A      0.838455  
     110A      0.849056   111A      0.853969   112A      0.866175  
     113A      0.875964   114A      0.890431   115A      0.913219  
     116A      0.931990   117A      0.940133   118A      0.942509  
     119A      0.958437   120A      0.965382   121A      0.986573  
     122A      0.995472   123A      1.006397   124A      1.031222  
     125A      1.033304   126A      1.043968   127A      1.076391  
     128A      1.088020   129A      1.098178   130A      1.110800  
     131A      1.125889   132A      1.134688   133A      1.143570  
     134A      1.157719   135A      1.177692   136A      1.184357  
     137A      1.201500   138A      1.222597   139A      1.245502  
     140A      1.272517   141A      1.282430   142A      1.295706  
     143A      1.325699   144A      1.340676   145A      1.356453  
     146A      1.376684   147A      1.380402   148A      1.395391  
     149A      1.409280   150A      1.412627   151A      1.428275  
     152A      1.434333   153A      1.462932   154A      1.493661  
     155A      1.510074   156A      1.553996   157A      1.609222  
     158A      1.643637   159A      1.680003   160A      1.689560  
     161A      1.711022   162A      1.728969   163A      1.741926  
     164A      1.749139   165A      1.764613   166A      1.782560  
     167A      1.788945   168A      1.808238   169A      1.825812  
     170A      1.826539   171A      1.834225   172A      1.863730  
     173A      1.876822   174A      1.887699   175A      1.899160  
     176A      1.906827   177A      1.931945   178A      1.944960  
     179A      1.964365   180A      1.974160   181A      1.998415  
     182A      2.007549   183A      2.020353   184A      2.029442  
     185A      2.039743   186A      2.056370   187A      2.071372  
     188A      2.076583   189A      2.091609   190A      2.112490  
     191A      2.142108   192A      2.160169   193A      2.165331  
     194A      2.197022   195A      2.203331   196A      2.218929  
     197A      2.224442   198A      2.230864   199A      2.242488  
     200A      2.247330   201A      2.262122   202A      2.281215  
     203A      2.305789   204A      2.328728   205A      2.342207  
     206A      2.345617   207A      2.379970   208A      2.392405  
     209A      2.436595   210A      2.482024   211A      2.492544  
     212A      2.527190   213A      2.604018   214A      2.609567  
     215A      2.650707   216A      2.665422   217A      2.675670  
     218A      2.691202   219A      2.713914   220A      2.720654  
     221A      2.746237   222A      2.755234   223A      2.774229  
     224A      2.794944   225A      2.829928   226A      2.838009  
     227A      2.858604   228A      2.886071   229A      2.914679  
     230A      2.924262   231A      2.931720   232A      2.945681  
     233A      2.946178   234A      2.952173   235A      2.965070  
     236A      2.978978   237A      2.986687   238A      3.003842  
     239A      3.018278   240A      3.031124   241A      3.071317  
     242A      3.079594   243A      3.096172   244A      3.125211  
     245A      3.134141   246A      3.149658   247A      3.160463  
     248A      3.193958   249A      3.215588   250A      3.237909  
     251A      3.246904   252A      3.276761   253A      3.280038  
     254A      3.290578   255A      3.303307   256A      3.335391  
     257A      3.353249   258A      3.393856   259A      3.425821  
     260A      3.454120   261A      3.463603   262A      3.508098  
     263A      3.570356   264A      3.619780   265A      3.629751  
     266A      3.686472   267A      3.748515   268A      3.754653  
     269A      3.784946   270A      3.792986   271A      3.836283  
     272A      3.840869   273A      3.890284   274A      3.901582  
     275A      3.916705   276A      3.976892   277A      4.010792  
     278A      4.021114   279A      4.083592   280A      4.245620  
     281A      4.262458   282A      4.327753   283A      4.391025  
     284A      4.438312   285A      4.446547   286A      4.550628  
     287A      4.561759   288A      4.599419   289A      4.654573  
     290A      4.980492   291A      5.201392   292A      5.273234  
     293A      5.345011   294A      5.405720   295A      5.507253  
     296A      5.561499   297A      5.757985   298A      6.293256  
     299A     24.628227   300A     24.792049   301A     24.934078  
     302A     24.967799   303A     25.081068   304A     25.096771  
     305A     25.210131   306A     25.219268   307A     25.270621  
     308A     25.349139   309A     25.352682   310A     37.008725  
     311A     37.038489   312A     51.722507  

    Final Occupation by Irrep:
              A 
    DOCC [    49 ]

  @DF-RHF Final Energy:  -606.23998559553434

   => Energetics <=

    Nuclear Repulsion Energy =            814.9731639034464479
    One-Electron Energy =               -2441.5586442799503857
    Two-Electron Energy =                1020.3454947809696023
    Total Energy =                       -606.2399855955343355

Computation Completed

*** tstop() called on node44.bme.utexas.edu at Thu Nov  4 18:04:28 2021
Module time:
	user time   =      48.64 seconds =       0.81 minutes
	system time =       1.17 seconds =       0.02 minutes
	total time  =         51 seconds =       0.85 minutes
Total time:
	user time   =      48.64 seconds =       0.81 minutes
	system time =       1.17 seconds =       0.02 minutes
	total time  =         51 seconds =       0.85 minutes
   => Loading Basis Set <=

    Name: (6-311G** AUX)
    Role: RIFIT
    Keyword: DF_BASIS_MP2
    atoms 1, 3, 5-13   entry C          line   209 file /home/bdw2292/miniconda3/envs/amoebamdpoltype/share/psi4/basis/cc-pvtz-ri.gbs 
    atoms 2, 4         entry N          line   257 file /home/bdw2292/miniconda3/envs/amoebamdpoltype/share/psi4/basis/cc-pvtz-ri.gbs 
    atoms 14-15, 17-24 entry H          line    19 file /home/bdw2292/miniconda3/envs/amoebamdpoltype/share/psi4/basis/cc-pvtz-ri.gbs 
    atoms 16           entry O          line   305 file /home/bdw2292/miniconda3/envs/amoebamdpoltype/share/psi4/basis/cc-pvtz-ri.gbs 


*** tstart() called on node44.bme.utexas.edu
*** at Thu Nov  4 18:04:28 2021


  //>>>>>>>>>>>>>>>>>>>>>>>>>>>>>>>>>>>//
  //               DFMP2               //
  //<<<<<<<<<<<<<<<<<<<<<<<<<<<<<<<<<<<//

	 --------------------------------------------------------
	                          DF-MP2                         
	      2nd-Order Density-Fitted Moller-Plesset Theory     
	              RMP2 Wavefunction,   1 Threads             
	                                                         
	        Rob Parrish, Justin Turney, Andy Simmonett,      
	           Ed Hohenstein, and C. David Sherrill          
	 --------------------------------------------------------

   => Auxiliary Basis Set <=

  Basis Set: (6-311G** AUX)
    Blend: CC-PVTZ-RI
    Number of shells: 422
    Number of basis function: 1434
    Number of Cartesian functions: 1764
    Spherical Harmonics?: true
    Max angular momentum: 4

	 --------------------------------------------------------
	                 NBF =   312, NAUX =  1434
	 --------------------------------------------------------
	   CLASS    FOCC     OCC    AOCC    AVIR     VIR    FVIR
	   PAIRS      14      49      35     263     263       0
	 --------------------------------------------------------

  DFHelper Memory: AOs need 0.844 GiB; user supplied 5.821 GiB. Using in-core AOs.


         ------------------------------------------------------------
                                     CPHF                           
                                  Rob Parrish                       
         ------------------------------------------------------------

  ==> Geometry <==

    Molecular point group: c1
    Full point group: C1

    Geometry (in Angstrom), charge = 0, multiplicity = 1:

       Center              X                  Y                   Z               Mass       
    ------------   -----------------  -----------------  -----------------  -----------------
         C           -0.185035074998    -0.665285082337    -0.680204733427    12.000000000000
         N           -0.178666286389    -1.699834129155    -1.665450029127    14.003074004430
         C           -1.402892413515    -0.070794584475    -0.395092170126    12.000000000000
         N           -3.206289479686     0.873184941779     0.657331631224    14.003074004430
         C           -2.651245898814    -0.494103215965    -1.023211704248    12.000000000000
         C           -1.822269691760     0.827533267076     0.742115140976    12.000000000000
         C           -3.687067805604     0.103975475276    -0.387643117722    12.000000000000
         C            1.171177000251    -0.373573375106    -0.172370313357    12.000000000000
         C            2.260848654308    -1.035483987361    -0.780253842954    12.000000000000
         C            1.459455840754     0.624155703812     0.777532375010    12.000000000000
         C            3.571126391102    -0.747531361118    -0.414770361420    12.000000000000
         C            2.774874565717     0.894522172853     1.144746323409    12.000000000000
         C            3.841214004838     0.228625165011     0.543261938890    12.000000000000
         H            0.070376869620    -1.347475103883    -2.589274357666     1.007825032230
         H           -3.749778990781     1.410345579052     1.319817363542     1.007825032230
         O           -1.202424195648     1.438323194598     1.615948714173    15.994914619570
         H            2.070935431281    -1.832464870669    -1.488789020795     1.007825032230
         H            0.651271196892     1.162772635552     1.252124237783     1.007825032230
         H            4.387480634747    -1.282776788877    -0.893891361389     1.007825032230
         H            2.964400076905     1.659259085476     1.894153136855     1.007825032230
         H            4.865832759163     0.450991332223     0.831421795654     1.007825032230
         H           -1.101966897175    -2.115891846973    -1.744850109073     1.007825032230
         H           -2.761793819053    -1.071533100114    -1.929482461275     1.007825032230
         H           -4.747258105267     0.054849892590    -0.599850735158     1.007825032230

  Nuclear repulsion =  814.973163903446448
  Reference energy  = -606.239985595534336

  ==> Basis Set <==

  Basis Set: 6-311G**
    Blend: 6-311G**
    Number of shells: 152
    Number of basis function: 312
    Number of Cartesian functions: 326
    Spherical Harmonics?: true
    Max angular momentum: 2

  ==> CGRSolver (by Rob Parrish) <==

   Number of roots    =         1
   Preconditioning    =    JACOBI
   Convergence cutoff =     1E-06
   Maximum iterations =       100

  ==> CPHFRHamiltonian (by Rob Parrish) <== 

  ==> MemDFJK: Density-Fitted J/K Matrices <==

    J tasked:                   Yes
    K tasked:                   Yes
    wK tasked:                   No
    OpenMP threads:               1
    Memory [MiB]:              5960
    Algorithm:                 Core
    Schwarz Cutoff:           1E-12
    Mask sparsity (%):      20.6279
    Fitting Condition:        1E-10

   => Auxiliary Basis Set <=

  Basis Set: (6-311G** AUX)
    Blend: CC-PVTZ-JKFIT
    Number of shells: 450
    Number of basis function: 1406
    Number of Cartesian functions: 1694
    Spherical Harmonics?: true
    Max angular momentum: 4

  ==> CPHF Iterations <==

  => Iterations <=

             Iter  Converged  Remaining    Residual
  CGR           1          0          1   1.359E-01
  CGR           2          0          1   4.500E-02
  CGR           3          0          1   2.296E-02
  CGR           4          0          1   8.315E-03
  CGR           5          0          1   4.839E-03
  CGR           6          0          1   2.174E-03
  CGR           7          0          1   6.887E-04
  CGR           8          0          1   2.219E-04
  CGR           9          0          1   5.977E-05
  CGR          10          0          1   2.212E-05
  CGR          11          0          1   7.829E-06
  CGR          12          0          1   2.907E-06
  CGR          13          0          1   1.484E-06
  CGR          14          1          0   4.983E-07

    CGRSolver converged.

	-----------------------------------------------------------
	 ==================> DF-MP2 Energies <==================== 
	-----------------------------------------------------------
	 Reference Energy          =    -606.2399855955343355 [Eh]
	 Singles Energy            =      -0.0000000000000000 [Eh]
	 Same-Spin Energy          =      -0.5523633695495889 [Eh]
	 Opposite-Spin Energy      =      -1.4972249505220969 [Eh]
	 Correlation Energy        =      -2.0495883200716856 [Eh]
	 Total Energy              =    -608.2895739156060699 [Eh]
	-----------------------------------------------------------
	 ================> DF-SCS-MP2 Energies <================== 
	-----------------------------------------------------------
	 SCS Same-Spin Scale       =       0.3333333333333333 [-]
	 SCS Opposite-Spin Scale   =       1.2000000000000000 [-]
	 SCS Same-Spin Energy      =      -0.1841211231831963 [Eh]
	 SCS Opposite-Spin Energy  =      -1.7966699406265163 [Eh]
	 SCS Correlation Energy    =      -1.9807910638097126 [Eh]
	 SCS Total Energy          =    -608.2207766593440965 [Eh]
	-----------------------------------------------------------



Properties will be evaluated at  -0.000000,  -0.000000,   0.000000 [a0]

Properties computed using the MP2 density matrix

  Nuclear Dipole Moment: [e a0]
     X:     2.4879      Y:    -2.7205      Z:    -3.6910

  Electronic Dipole Moment: [e a0]
     X:    -3.4873      Y:     2.4587      Z:     2.7496

  Dipole Moment: [e a0]
     X:    -0.9994      Y:    -0.2618      Z:    -0.9414     Total:     1.3977

  Dipole Moment: [D]
     X:    -2.5402      Y:    -0.6654      Z:    -2.3929     Total:     3.5527


*** tstop() called on node44.bme.utexas.edu at Thu Nov  4 18:07:13 2021
Module time:
	user time   =     160.54 seconds =       2.68 minutes
	system time =       3.94 seconds =       0.07 minutes
	total time  =        165 seconds =       2.75 minutes
Total time:
	user time   =     209.42 seconds =       3.49 minutes
	system time =       5.12 seconds =       0.09 minutes
	total time  =        216 seconds =       3.60 minutes
  ==> One Electron Grid Properties (v2.0) <==

  ==> CubicScalarGrid <==

    Filepath     = .
    Total Points =           853776
    XYZ Blocking =               10
    X Points     =              132
    Y Points     =               77
    Z Points     =               84
    X Spacing    =        2.000E-01
    Y Spacing    =        2.000E-01
    Z Spacing    =        2.000E-01
    X Minimum    =       -1.299E+01
    Y Minimum    =       -8.031E+00
    Z Minimum    =       -8.957E+00
    X Maximum    =        1.321E+01
    Y Maximum    =        7.169E+00
    Z Maximum    =        7.643E+00

  Basis Set: 6-311G**
    Blend: 6-311G**
    Number of shells: 152
    Number of basis function: 312
    Number of Cartesian functions: 326
    Spherical Harmonics?: true
    Max angular momentum: 2


    Psi4 stopped on: Thursday, 04 November 2021 06:10PM
    Psi4 wall time for execution: 0:07:12.36

*** Psi4 exiting successfully. Buy a developer a beer!
