
    -----------------------------------------------------------------------
          Psi4: An Open-Source Ab Initio Electronic Structure Package
                               Psi4 1.3.2 release

                         Git: Rev {HEAD} ecbda83 


    R. M. Parrish, L. A. Burns, D. G. A. Smith, A. C. Simmonett,
    A. E. DePrince III, E. G. Hohenstein, U. Bozkaya, A. Yu. Sokolov,
    R. Di Remigio, R. M. Richard, J. F. Gonthier, A. M. James,
    H. R. McAlexander, A. Kumar, M. Saitow, X. Wang, B. P. Pritchard,
    P. Verma, H. F. Schaefer III, K. Patkowski, R. A. King, E. F. Valeev,
    F. A. Evangelista, J. M. Turney, T. D. Crawford, and C. D. Sherrill,
    J. Chem. Theory Comput. 13(7) pp 3185--3197 (2017).
    (doi: 10.1021/acs.jctc.7b00174)


                         Additional Contributions by
    P. Kraus, H. Kruse, M. H. Lechner, M. C. Schieber, R. A. Shaw,
    A. Alenaizan, R. Galvelis, Z. L. Glick, S. Lehtola, and J. P. Misiewicz

    -----------------------------------------------------------------------


    Psi4 started on: Thursday, 04 November 2021 02:10PM

    Process ID: 34071
    Host:       node44.bme.utexas.edu
    PSIDATADIR: /home/bdw2292/miniconda3/envs/amoebamdpoltype/share/psi4
    Memory:     500.0 MiB
    Threads:    1
    
  ==> Input File <==

--------------------------------------------------------------------------
molecule { 
0 1
C          3.32760        1.04510        0.55700
N          2.01500        1.48570        1.02620
C          4.10300        0.54460        1.49040
N          4.75960       -0.28370        3.57990
C          5.45820        0.01300        1.45740
C          3.68450        0.32970        2.90270
C          5.83990       -0.47630        2.69740
C          3.53340        1.16240       -0.86330
C          3.87280        0.15870       -1.73820
C          3.35530        2.44010       -1.39440
C          4.03720        0.37270       -3.08890
C          3.52170        2.63130       -2.72740
C          3.85900        1.63490       -3.60150
H          2.04670        2.35900        1.59500
H          4.76100       -0.55540        4.58480
O          2.58000        0.63820        3.39650
H          4.01560       -0.83530       -1.35160
H          3.08980        3.27710       -0.76290
H          4.30510       -0.43950       -3.75400
H          3.38170        3.62370       -3.13930
H          3.98460        1.81640       -4.66570
H          1.18060        1.00380        0.82430
H          6.05830        0.00180        0.61790
H          6.74980       -0.90370        2.93090
}
memory 100GB
set_num_threads(12)
psi4_io.set_default_path("/scratch/bdw2292/Psi4-farH_in17")
set maxiter 500
set freeze_core True
set PROPERTIES_ORIGIN ["COM"]
set cubeprop_tasks ['esp']
E, wfn = properties('hf/MINIX',properties=['dipole'],return_wfn=True)
cubeprop(wfn)
fchk(wfn, "farH_in17-esp_frag.fchk")
oeprop(wfn,"WIBERG_LOWDIN_INDICES","MULLIKEN_CHARGES")
clean()
--------------------------------------------------------------------------

  Memory set to  93.132 GiB by Python driver.
  Threads set to 12 by Python driver.

*** tstart() called on node44.bme.utexas.edu
*** at Thu Nov  4 14:10:02 2021

   => Loading Basis Set <=

    Name: MINIX
    Role: ORBITAL
    Keyword: BASIS
    atoms 1, 3, 5-13   entry C          line    74 file /home/bdw2292/miniconda3/envs/amoebamdpoltype/share/psi4/basis/minix.gbs 
    atoms 2, 4         entry N          line    88 file /home/bdw2292/miniconda3/envs/amoebamdpoltype/share/psi4/basis/minix.gbs 
    atoms 14-15, 17-24 entry H          line    24 file /home/bdw2292/miniconda3/envs/amoebamdpoltype/share/psi4/basis/minix.gbs 
    atoms 16           entry O          line   102 file /home/bdw2292/miniconda3/envs/amoebamdpoltype/share/psi4/basis/minix.gbs 


         ---------------------------------------------------------
                                   SCF
               by Justin Turney, Rob Parrish, Andy Simmonett
                          and Daniel G. A. Smith
                              RHF Reference
                       12 Threads,  95367 MiB Core
         ---------------------------------------------------------

  ==> Geometry <==

    Molecular point group: c1
    Full point group: C1

    Geometry (in Angstrom), charge = 0, multiplicity = 1:

       Center              X                  Y                   Z               Mass       
    ------------   -----------------  -----------------  -----------------  -----------------
         C           -0.494029364155     0.213545462160     0.213191401037    12.000000000000
         N           -1.806629364155     0.654145462160     0.682391401037    14.003074004430
         C            0.281370635845    -0.286954537840     1.146591401037    12.000000000000
         N            0.937970635845    -1.115254537840     3.236091401037    14.003074004430
         C            1.636570635845    -0.818554537840     1.113591401037    12.000000000000
         C           -0.137129364155    -0.501854537840     2.558891401037    12.000000000000
         C            2.018270635845    -1.307854537840     2.353591401037    12.000000000000
         C           -0.288229364155     0.330845462160    -1.207108598963    12.000000000000
         C            0.051170635845    -0.672854537840    -2.082008598963    12.000000000000
         C           -0.466329364155     1.608545462160    -1.738208598963    12.000000000000
         C            0.215570635845    -0.458854537840    -3.432708598963    12.000000000000
         C           -0.299929364155     1.799745462160    -3.071208598963    12.000000000000
         C            0.037370635845     0.803345462160    -3.945308598963    12.000000000000
         H           -1.774929364155     1.527445462160     1.251191401037     1.007825032230
         H            0.939370635845    -1.386954537840     4.240991401037     1.007825032230
         O           -1.241629364155    -0.193354537840     3.052691401037    15.994914619570
         H            0.193970635845    -1.666854537840    -1.695408598963     1.007825032230
         H           -0.731829364155     2.445545462160    -1.106708598963     1.007825032230
         H            0.483470635845    -1.271054537840    -4.097808598963     1.007825032230
         H           -0.439929364155     2.792145462160    -3.483108598963     1.007825032230
         H            0.162970635845     0.984845462160    -5.009508598963     1.007825032230
         H           -2.641029364155     0.172245462160     0.480491401037     1.007825032230
         H            2.236670635845    -0.829754537840     0.274091401037     1.007825032230
         H            2.928170635845    -1.735254537840     2.587091401037     1.007825032230

  Running in c1 symmetry.

  Rotational constants: A =      0.05578  B =      0.01370  C =      0.01179 [cm^-1]
  Rotational constants: A =   1672.23123  B =    410.69051  C =    353.47858 [MHz]
  Nuclear repulsion =  815.127715670132602

  Charge       = 0
  Multiplicity = 1
  Electrons    = 98
  Nalpha       = 49
  Nbeta        = 49

  ==> Algorithm <==

  SCF Algorithm Type is DF.
  DIIS enabled.
  MOM disabled.
  Fractional occupation disabled.
  Guess Type is SAD.
  Energy threshold   = 1.00e-06
  Density threshold  = 1.00e-06
  Integral threshold = 0.00e+00

  ==> Primary Basis <==

  Basis Set: MINIX
    Blend: MINIX
    Number of shells: 52
    Number of basis function: 80
    Number of Cartesian functions: 80
    Spherical Harmonics?: true
    Max angular momentum: 1

   => Loading Basis Set <=

    Name: (MINIX AUX)
    Role: JKFIT
    Keyword: DF_BASIS_SCF
    atoms 1, 3, 5-13   entry C          line   203 file /home/bdw2292/miniconda3/envs/amoebamdpoltype/share/psi4/basis/def2-svp-jkfit.gbs 
    atoms 2, 4         entry N          line   263 file /home/bdw2292/miniconda3/envs/amoebamdpoltype/share/psi4/basis/def2-svp-jkfit.gbs 
    atoms 14-15, 17-24 entry H          line    23 file /home/bdw2292/miniconda3/envs/amoebamdpoltype/share/psi4/basis/def2-svp-jkfit.gbs 
    atoms 16           entry O          line   323 file /home/bdw2292/miniconda3/envs/amoebamdpoltype/share/psi4/basis/def2-svp-jkfit.gbs 

  ==> Pre-Iterations <==

   -------------------------------------------------------
    Irrep   Nso     Nmo     Nalpha   Nbeta   Ndocc  Nsocc
   -------------------------------------------------------
     A         80      80       0       0       0       0
   -------------------------------------------------------
    Total      80      80      49      49      49       0
   -------------------------------------------------------

  ==> Integral Setup <==

  DFHelper Memory: AOs need 0.068 GiB; user supplied 69.849 GiB. Using in-core AOs.

  ==> MemDFJK: Density-Fitted J/K Matrices <==

    J tasked:                   Yes
    K tasked:                   Yes
    wK tasked:                   No
    OpenMP threads:              12
    Memory [MiB]:             71525
    Algorithm:                 Core
    Schwarz Cutoff:           1E-12
    Mask sparsity (%):       7.0625
    Fitting Condition:        1E-10

   => Auxiliary Basis Set <=

  Basis Set: (MINIX AUX)
    Blend: DEF2-SVP-JKFIT
    Number of shells: 410
    Number of basis function: 1236
    Number of Cartesian functions: 1458
    Spherical Harmonics?: true
    Max angular momentum: 4

  Minimum eigenvalue in the overlap matrix is 1.6069693778E-01.
  Using Symmetric Orthogonalization.

  SCF Guess: Superposition of Atomic Densities via on-the-fly atomic UHF.

  ==> Iterations <==

                           Total Energy        Delta E     RMS |[F,P]|

   @DF-RHF iter SAD:  -596.03301633001274   -5.96033e+02   0.00000e+00 
   @DF-RHF iter   1:  -601.67803385438503   -5.64502e+00   6.25473e-03 DIIS
   @DF-RHF iter   2:  -601.79783858568965   -1.19805e-01   4.70923e-03 DIIS
   @DF-RHF iter   3:  -601.87383690744093   -7.59983e-02   5.35700e-04 DIIS
   @DF-RHF iter   4:  -601.87666021421478   -2.82331e-03   2.42004e-04 DIIS
   @DF-RHF iter   5:  -601.87720080725580   -5.40593e-04   9.37172e-05 DIIS
   @DF-RHF iter   6:  -601.87730432773583   -1.03520e-04   3.37098e-05 DIIS
   @DF-RHF iter   7:  -601.87731710599405   -1.27783e-05   1.34788e-05 DIIS
   @DF-RHF iter   8:  -601.87731925334970   -2.14736e-06   4.77689e-06 DIIS
   @DF-RHF iter   9:  -601.87731957539427   -3.22045e-07   1.88633e-06 DIIS
   @DF-RHF iter  10:  -601.87731962633529   -5.09410e-08   8.64240e-07 DIIS
  Energy and wave function converged.


  ==> Post-Iterations <==

    Orbital Energies [Eh]
    ---------------------

    Doubly Occupied:                                                      

       1A    -20.292483     2A    -15.448990     3A    -15.338328  
       4A    -11.310943     5A    -11.236704     6A    -11.224879  
       7A    -11.200244     8A    -11.184960     9A    -11.183973  
      10A    -11.183370    11A    -11.182314    12A    -11.181192  
      13A    -11.178393    14A    -11.149990    15A     -1.358062  
      16A     -1.248971    17A     -1.199193    18A     -1.156366  
      19A     -1.056449    20A     -1.042234    21A     -1.032783  
      22A     -0.977410    23A     -0.897341    24A     -0.836938  
      25A     -0.828905    26A     -0.789818    27A     -0.744629  
      28A     -0.703285    29A     -0.689719    30A     -0.659529  
      31A     -0.643185    32A     -0.625523    33A     -0.623098  
      34A     -0.603131    35A     -0.594679    36A     -0.592279  
      37A     -0.578608    38A     -0.564179    39A     -0.538550  
      40A     -0.529284    41A     -0.503422    42A     -0.485728  
      43A     -0.442766    44A     -0.429511    45A     -0.400572  
      46A     -0.362233    47A     -0.361327    48A     -0.343383  
      49A     -0.274836  

    Virtual:                                                              

      50A      0.101563    51A      0.187385    52A      0.197397  
      53A      0.264171    54A      0.366831    55A      0.432141  
      56A      0.496528    57A      0.517162    58A      0.546490  
      59A      0.596413    60A      0.605165    61A      0.636807  
      62A      0.653095    63A      0.661679    64A      0.678160  
      65A      0.695518    66A      0.710647    67A      0.712993  
      68A      0.744328    69A      0.805347    70A      0.821960  
      71A      0.844358    72A      0.875810    73A      0.884522  
      74A      0.897835    75A      0.927917    76A      0.947175  
      77A      1.022581    78A      1.086511    79A      1.138611  
      80A      1.167196  

    Final Occupation by Irrep:
              A 
    DOCC [    49 ]

  @DF-RHF Final Energy:  -601.87731962633529

   => Energetics <=

    Nuclear Repulsion Energy =            815.1277156701326021
    One-Electron Energy =               -2435.9806961772114846
    Two-Electron Energy =                1018.9756608807435896
    Total Energy =                       -601.8773196263352929

Computation Completed


Properties will be evaluated at   0.000000,  -0.000000,   0.000000 [a0]

Properties computed using the HF density matrix

  Nuclear Dipole Moment: [e a0]
     X:     1.2686      Y:     0.9682      Z:    -6.1453

  Electronic Dipole Moment: [e a0]
     X:    -0.4599      Y:    -1.1550      Z:     5.8286

  Dipole Moment: [e a0]
     X:     0.8087      Y:    -0.1868      Z:    -0.3167     Total:     0.8884

  Dipole Moment: [D]
     X:     2.0555      Y:    -0.4749      Z:    -0.8050     Total:     2.2580


*** tstop() called on node44.bme.utexas.edu at Thu Nov  4 14:10:06 2021
Module time:
	user time   =      26.14 seconds =       0.44 minutes
	system time =       1.33 seconds =       0.02 minutes
	total time  =          4 seconds =       0.07 minutes
Total time:
	user time   =      26.14 seconds =       0.44 minutes
	system time =       1.33 seconds =       0.02 minutes
	total time  =          4 seconds =       0.07 minutes
  ==> One Electron Grid Properties (v2.0) <==

  ==> CubicScalarGrid <==

    Filepath     = .
    Total Points =          1018584
    XYZ Blocking =               10
    X Points     =               94
    Y Points     =               84
    Z Points     =              129
    X Spacing    =        2.000E-01
    Y Spacing    =        2.000E-01
    Z Spacing    =        2.000E-01
    X Minimum    =       -9.029E+00
    Y Minimum    =       -7.301E+00
    Z Minimum    =       -1.353E+01
    X Maximum    =        9.571E+00
    Y Maximum    =        9.299E+00
    Z Maximum    =        1.207E+01

  Basis Set: MINIX
    Blend: MINIX
    Number of shells: 52
    Number of basis function: 80
    Number of Cartesian functions: 80
    Spherical Harmonics?: true
    Max angular momentum: 1



Properties will be evaluated at   0.000000,  -0.000000,   0.000000 [a0]
OEProp: No title given, name of density matrix used for the following properties is 'SCF density'
  Mulliken Charges: (a.u.)
   Center  Symbol    Alpha    Beta     Spin     Total
       1     C     2.93742  2.93742  0.00000  0.12516
       2     N     3.75486  3.75486  0.00000 -0.50971
       3     C     3.02950  3.02950  0.00000 -0.05900
       4     N     3.70366  3.70366  0.00000 -0.40733
       5     C     3.09114  3.09114  0.00000 -0.18227
       6     C     2.80642  2.80642  0.00000  0.38715
       7     C     3.01005  3.01005  0.00000 -0.02011
       8     C     3.01551  3.01551  0.00000 -0.03101
       9     C     3.06546  3.06546  0.00000 -0.13092
      10     C     3.05940  3.05940  0.00000 -0.11879
      11     C     3.06973  3.06973  0.00000 -0.13946
      12     C     3.07197  3.07197  0.00000 -0.14394
      13     C     3.06862  3.06862  0.00000 -0.13723
      14     H     0.38188  0.38188  0.00000  0.23624
      15     H     0.36130  0.36130  0.00000  0.27740
      16     O     4.20085  4.20085  0.00000 -0.40171
      17     H     0.42761  0.42761  0.00000  0.14479
      18     H     0.42673  0.42673  0.00000  0.14655
      19     H     0.42847  0.42847  0.00000  0.14305
      20     H     0.43006  0.43006  0.00000  0.13988
      21     H     0.42748  0.42748  0.00000  0.14505
      22     H     0.37896  0.37896  0.00000  0.24207
      23     H     0.43154  0.43154  0.00000  0.13692
      24     H     0.42138  0.42138  0.00000  0.15723

   Total alpha = 49.00000, Total beta = 49.00000, Total charge = -0.00000



  Wiberg Bond Indices using Orthogonal Lowdin Orbitals:

  Irrep: 1 Size: 24 x 24

                 1                   2                   3                   4                   5

    1     0.00000000000000     1.02647493577283     1.72509401045633     0.00394277892992     0.00498924479835
    2     1.02647493577283     0.00000000000000     0.02512021984851     0.00073842873220     0.01389502478805
    3     1.72509401045633     0.02512021984851     0.00000000000000     0.01282431538784     1.08757819300035
    4     0.00394277892992     0.00073842873220     0.01282431538784     0.00000000000000     0.08195726699978
    5     0.00498924479835     0.01389502478805     1.08757819300035     0.08195726699978     0.00000000000000
    6     0.01412133685257     0.00923075520397     1.01072290683199     1.09071055186120     0.00957482237252
    7     0.07689510935453     0.00436007124083     0.00422341695833     1.09971494465344     1.78186785301521
    8     1.02949540638463     0.01526676194977     0.00355885389849     0.00060441477551     0.00270605621713
    9     0.00324094867192     0.01084659466336     0.01862860695872     0.00014565444288     0.00011045649408
   10     0.00471585822344     0.00639027012001     0.02004581808563     0.00017229067441     0.00014886770706
   11     0.00725713794639     0.00054433152726     0.00045263631594     0.00002110129481     0.00010937276940
   12     0.00664950617650     0.00097999226260     0.00080685642291     0.00001915511227     0.00008628191365
   13     0.00050221004054     0.00312555789238     0.00714650171796     0.00009803405113     0.00004095503893
   14     0.00129194895149     0.95423794295570     0.00776296150214     0.00007321459848     0.00004519815140
   15     0.00031104212849     0.00008596231982     0.00739456006694     0.94225629855347     0.00576036327973
   16     0.07199811594464     0.00506226305073     0.03935079575992     0.12810283027406     0.01092042465793
   17     0.00304760306501     0.00017641964070     0.00012640639267     0.00001057125158     0.00010568213531
   18     0.00253922650581     0.00026351617840     0.00019542598256     0.00000963764184     0.00001897662719
   19     0.00032560032101     0.00017277345117     0.00015108776527     0.00000274885703     0.00000560996559
   20     0.00037717911091     0.00001117031018     0.00035117977214     0.00000467032425     0.00000760034855
   21     0.00013017327765     0.00000513595466     0.00000238492636     0.00000046973367     0.00000065103176
   22     0.00101138157666     0.95817401314084     0.00854086080994     0.00002125148389     0.00035466163602
   23     0.00087016914222     0.00001529398671     0.00076920855951     0.00702799381067     0.97345619546375
   24     0.00013056218992     0.00031945957559     0.00645628698109     0.00067651296272     0.00148554914800

                 6                   7                   8                   9                  10

    1     0.01412133685257     0.07689510935453     1.02949540638463     0.00324094867192     0.00471585822344
    2     0.00923075520397     0.00436007124083     0.01526676194977     0.01084659466336     0.00639027012001
    3     1.01072290683199     0.00422341695833     0.00355885389849     0.01862860695872     0.02004581808563
    4     1.09071055186120     1.09971494465344     0.00060441477551     0.00014565444288     0.00017229067441
    5     0.00957482237252     1.78186785301521     0.00270605621713     0.00011045649408     0.00014886770706
    6     0.00000000000000     0.00661099202863     0.00901020298099     0.00071808138524     0.00085659622516
    7     0.00661099202863     0.00000000000000     0.00024835655906     0.00314189941111     0.00294935270130
    8     0.00901020298099     0.00024835655906     0.00000000000000     1.42623440624094     1.36271796755956
    9     0.00071808138524     0.00314189941111     1.42623440624094     0.00000000000000     0.00423149916353
   10     0.00085659622516     0.00294935270130     1.36271796755956     0.00423149916353     0.00000000000000
   11     0.00011553838711     0.00004263742332     0.00371887443149     1.42338088916861     0.11556231844747
   12     0.00016822226894     0.00014456972387     0.00394427373349     0.10458292954226     1.47428005901242
   13     0.00041367804187     0.00161683784808     0.11191447191645     0.00394339539124     0.00419273465253
   14     0.00024255022222     0.00150046319703     0.00143678925005     0.00046692413512     0.00044173583323
   15     0.00030349460781     0.00035099408205     0.00023120521897     0.00002576087004     0.00003736368358
   16     1.79461052364646     0.01058562797482     0.00064485658413     0.00314761198110     0.00315794955954
   17     0.00006787812113     0.00002318186600     0.00091751224104     0.96531855933257     0.00789179525974
   18     0.00006123883913     0.00001122781075     0.00065294399085     0.00651350041344     0.96648852183236
   19     0.00001335742647     0.00003708899492     0.00713277780616     0.00093411939051     0.00027978235224
   20     0.00004169261805     0.00006003297405     0.00822502632255     0.00036013249808     0.00126154070680
   21     0.00000177305099     0.00000203086035     0.00019112768115     0.00735957029435     0.00728484037937
   22     0.00056189307053     0.00145665417434     0.00022712539817     0.00006640103069     0.00007189222685
   23     0.00618442078963     0.00131824194001     0.00011837211818     0.00009609794626     0.00000202036039
   24     0.00609249319219     0.97200889708857     0.00002278993870     0.00000205666910     0.00000054903604

                11                  12                  13                  14                  15

    1     0.00725713794639     0.00664950617650     0.00050221004054     0.00129194895149     0.00031104212849
    2     0.00054433152726     0.00097999226260     0.00312555789238     0.95423794295570     0.00008596231982
    3     0.00045263631594     0.00080685642291     0.00714650171796     0.00776296150214     0.00739456006694
    4     0.00002110129481     0.00001915511227     0.00009803405113     0.00007321459848     0.94225629855347
    5     0.00010937276940     0.00008628191365     0.00004095503893     0.00004519815140     0.00576036327973
    6     0.00011553838711     0.00016822226894     0.00041367804187     0.00024255022222     0.00030349460781
    7     0.00004263742332     0.00014456972387     0.00161683784808     0.00150046319703     0.00035099408205
    8     0.00371887443149     0.00394427373349     0.11191447191645     0.00143678925005     0.00023120521897
    9     1.42338088916861     0.10458292954226     0.00394339539124     0.00046692413512     0.00002576087004
   10     0.11556231844747     1.47428005901242     0.00419273465253     0.00044173583323     0.00003736368358
   11     0.00000000000000     0.00442206165884     1.45116931968979     0.00004597067307     0.00000236559874
   12     0.00442206165884     0.00000000000000     1.41259422702039     0.00002705881062     0.00000683811336
   13     1.45116931968979     1.41259422702039     0.00000000000000     0.00023943251693     0.00001728162164
   14     0.00004597067307     0.00002705881062     0.00023943251693     0.00000000000000     0.00000261871922
   15     0.00000236559874     0.00000683811336     0.00001728162164     0.00000261871922     0.00000000000000
   16     0.00008026586646     0.00015997074738     0.00159527805028     0.00247254595190     0.00121513133988
   17     0.00110662365741     0.00035845624192     0.00744519892546     0.00002823446984     0.00000223975422
   18     0.00027671816968     0.00126983761092     0.00766937940207     0.00001090241054     0.00000265107237
   19     0.96615721930416     0.00732125564893     0.00102830317734     0.00000328776474     0.00000032406620
   20     0.00786415539395     0.96347361021278     0.00112512570042     0.00000114897586     0.00000152283598
   21     0.00095115514421     0.00099779524182     0.96607696992650     0.00000108058615     0.00000004876095
   22     0.00000994501187     0.00001303486788     0.00002138236229     0.00037524691884     0.00000087025677
   23     0.00000935631258     0.00000181006689     0.00000224196586     0.00000000133445     0.00059407200213
   24     0.00000027043683     0.00000029737385     0.00000055049814     0.00000084131097     0.00099505981582

                16                  17                  18                  19                  20

    1     0.07199811594464     0.00304760306501     0.00253922650581     0.00032560032101     0.00037717911091
    2     0.00506226305073     0.00017641964070     0.00026351617840     0.00017277345117     0.00001117031018
    3     0.03935079575992     0.00012640639267     0.00019542598256     0.00015108776527     0.00035117977214
    4     0.12810283027406     0.00001057125158     0.00000963764184     0.00000274885703     0.00000467032425
    5     0.01092042465793     0.00010568213531     0.00001897662719     0.00000560996559     0.00000760034855
    6     1.79461052364646     0.00006787812113     0.00006123883913     0.00001335742647     0.00004169261805
    7     0.01058562797482     0.00002318186600     0.00001122781075     0.00003708899492     0.00006003297405
    8     0.00064485658413     0.00091751224104     0.00065294399085     0.00713277780616     0.00822502632255
    9     0.00314761198110     0.96531855933257     0.00651350041344     0.00093411939051     0.00036013249808
   10     0.00315794955954     0.00789179525974     0.96648852183236     0.00027978235224     0.00126154070680
   11     0.00008026586646     0.00110662365741     0.00027671816968     0.96615721930416     0.00786415539395
   12     0.00015997074738     0.00035845624192     0.00126983761092     0.00732125564893     0.96347361021278
   13     0.00159527805028     0.00744519892546     0.00766937940207     0.00102830317734     0.00112512570042
   14     0.00247254595190     0.00002823446984     0.00001090241054     0.00000328776474     0.00000114897586
   15     0.00121513133988     0.00000223975422     0.00000265107237     0.00000032406620     0.00000152283598
   16     0.00000000000000     0.00001275707068     0.00001383761751     0.00003326665356     0.00006442994918
   17     0.00001275707068     0.00000000000000     0.00057404749108     0.00401841197889     0.00010092446966
   18     0.00001383761751     0.00057404749108     0.00000000000000     0.00011846167240     0.00436936174789
   19     0.00003326665356     0.00401841197889     0.00011846167240     0.00000000000000     0.00051843127046
   20     0.00006442994918     0.00010092446966     0.00436936174789     0.00051843127046     0.00000000000000
   21     0.00000051838040     0.00044576470693     0.00035130383640     0.00359612024268     0.00411487495279
   22     0.00119482195437     0.00000071563711     0.00000019616850     0.00000126364197     0.00000043474131
   23     0.00101835208166     0.00000257802318     0.00000169331564     0.00000018369827     0.00000044130755
   24     0.00104553904062     0.00000032189645     0.00000012666163     0.00000007303120     0.00000003803314

                21                  22                  23                  24

    1     0.00013017327765     0.00101138157666     0.00087016914222     0.00013056218992
    2     0.00000513595466     0.95817401314084     0.00001529398671     0.00031945957559
    3     0.00000238492636     0.00854086080994     0.00076920855951     0.00645628698109
    4     0.00000046973367     0.00002125148389     0.00702799381067     0.00067651296272
    5     0.00000065103176     0.00035466163602     0.97345619546375     0.00148554914800
    6     0.00000177305099     0.00056189307053     0.00618442078963     0.00609249319219
    7     0.00000203086035     0.00145665417434     0.00131824194001     0.97200889708857
    8     0.00019112768115     0.00022712539817     0.00011837211818     0.00002278993870
    9     0.00735957029435     0.00006640103069     0.00009609794626     0.00000205666910
   10     0.00728484037937     0.00007189222685     0.00000202036039     0.00000054903604
   11     0.00095115514421     0.00000994501187     0.00000935631258     0.00000027043683
   12     0.00099779524182     0.00001303486788     0.00000181006689     0.00000029737385
   13     0.96607696992650     0.00002138236229     0.00000224196586     0.00000055049814
   14     0.00000108058615     0.00037524691884     0.00000000133445     0.00000084131097
   15     0.00000004876095     0.00000087025677     0.00059407200213     0.00099505981582
   16     0.00000051838040     0.00119482195437     0.00101835208166     0.00104553904062
   17     0.00044576470693     0.00000071563711     0.00000257802318     0.00000032189645
   18     0.00035130383640     0.00000019616850     0.00000169331564     0.00000012666163
   19     0.00359612024268     0.00000126364197     0.00000018369827     0.00000007303120
   20     0.00411487495279     0.00000043474131     0.00000044130755     0.00000003803314
   21     0.00000000000000     0.00000058741509     0.00000007767650     0.00000000195224
   22     0.00000058741509     0.00000000000000     0.00000147335646     0.00001392573100
   23     0.00000007767650     0.00000147335646     0.00000000000000     0.00155552334672
   24     0.00000000195224     0.00001392573100     0.00155552334672     0.00000000000000



  Atomic Valences: 

 #  #
 Irrep: 1
      1:  3.9854115
      2:  3.0354969
      3:  3.9873035
      4:  3.3691351
      5:  3.9752253
      6:  3.9604350
      7:  3.9691705
      8:  3.9892206
      9:  3.9834961
     10:  3.9831816
     11:  3.9833003
     12:  3.9823081
     13:  3.9819791
     14:  0.9707081
     15:  0.9595981
     16:  2.0764877
     17:  0.9917819
     18:  0.9914127
     19:  0.9918515
     20:  0.9923347
     21:  0.9915145
     22:  0.9721200
     23:  0.9930458
     24:  0.9908077


    Psi4 stopped on: Thursday, 04 November 2021 02:10PM
    Psi4 wall time for execution: 0:00:34.53

*** Psi4 exiting successfully. Buy a developer a beer!
