
    -----------------------------------------------------------------------
          Psi4: An Open-Source Ab Initio Electronic Structure Package
                               Psi4 1.3.2 release

                         Git: Rev {HEAD} ecbda83 


    R. M. Parrish, L. A. Burns, D. G. A. Smith, A. C. Simmonett,
    A. E. DePrince III, E. G. Hohenstein, U. Bozkaya, A. Yu. Sokolov,
    R. Di Remigio, R. M. Richard, J. F. Gonthier, A. M. James,
    H. R. McAlexander, A. Kumar, M. Saitow, X. Wang, B. P. Pritchard,
    P. Verma, H. F. Schaefer III, K. Patkowski, R. A. King, E. F. Valeev,
    F. A. Evangelista, J. M. Turney, T. D. Crawford, and C. D. Sherrill,
    J. Chem. Theory Comput. 13(7) pp 3185--3197 (2017).
    (doi: 10.1021/acs.jctc.7b00174)


                         Additional Contributions by
    P. Kraus, H. Kruse, M. H. Lechner, M. C. Schieber, R. A. Shaw,
    A. Alenaizan, R. Galvelis, Z. L. Glick, S. Lehtola, and J. P. Misiewicz

    -----------------------------------------------------------------------


    Psi4 started on: Tuesday, 22 February 2022 06:53PM

    Process ID: 35446
    Host:       node37.bme.utexas.edu
    PSIDATADIR: /home/bdw2292/miniconda3/envs/amoebamdpoltype/share/psi4
    Memory:     500.0 MiB
    Threads:    1
    
  ==> Input File <==

--------------------------------------------------------------------------
molecule { 
0 1
 Cl                 -0.0607084     0.3731964    -0.0136444
 Cl                  2.2864943    -1.3072355     0.3117727
 Cl                 -0.3552486    -2.5098910     0.1828073
  C                  0.5792523    -1.1072755     0.6895374
  H                  0.4887905    -1.0243117     1.7725520
--
0 1
 Cl                 -2.0766198     5.0228334    -0.9061917
 Cl                  0.2611801     3.2981115    -0.8746324
 Cl                 -2.4006045     2.1358760    -0.9188905
  C                 -1.4135481     3.4843176    -0.3671604
  H                 -1.4300726     3.4810953     0.7226820
}
memory 15GB
set_num_threads(4)
psi4_io.set_default_path("/scratch/bdw2292/Psi4-CHCl3")
set maxiter 500
set freeze_core True
set PROPERTIES_ORIGIN ["COM"]
e_dim= energy('mp2/aug-cc-pV[TQ]Z',bsse_type='cp')

psi4.print_out('CP Energy = %10.6f' % (e_dim))
clean()
--------------------------------------------------------------------------

  Memory set to  13.970 GiB by Python driver.
  Threads set to 4 by Python driver.


   ===> N-Body Interaction Abacus <===
        BSSE Treatment:                     cp
        Number of 1-body computations:     4
        Number of 2-body computations:     1

   ==> N-Body: Now computing 1-body complexes <==


       N-Body: Computing complex (1/4) with fragments (2,) in the basis of fragments (2,).


  //>>>>>>>>>>>>>>>>>>>>>>>>>>>>>>>>>>>//
  //   CBS Setup: mp2/aug-cc-pV[TQ]Z   //
  //<<<<<<<<<<<<<<<<<<<<<<<<<<<<<<<<<<<//

    Naive listing of computations required.
             hf / aug-cc-pvqz              for  HF TOTAL ENERGY
            mp2 / aug-cc-pvtz              for  MP2 TOTAL ENERGY
            mp2 / aug-cc-pvqz              for  MP2 TOTAL ENERGY
             hf / aug-cc-pvtz              for  HF TOTAL ENERGY
             hf / aug-cc-pvqz              for  HF TOTAL ENERGY

    Enlightened listing of computations required.
            mp2 / aug-cc-pvtz              for  MP2 TOTAL ENERGY
            mp2 / aug-cc-pvqz              for  MP2 TOTAL ENERGY

    Full listing of computations to be obtained (required and bonus).
             hf / aug-cc-pvtz              for  HF TOTAL ENERGY
            mp2 / aug-cc-pvtz              for  MP2 TOTAL ENERGY
             hf / aug-cc-pvqz              for  HF TOTAL ENERGY
            mp2 / aug-cc-pvqz              for  MP2 TOTAL ENERGY

  //>>>>>>>>>>>>>>>>>>>>>>>>>>>>>>>>>>>>//
  // CBS Computation: MP2 / AUG-CC-PVTZ //
  //<<<<<<<<<<<<<<<<<<<<<<<<<<<<<<<<<<<<//

    SCF Algorithm Type (re)set to DF.

*** tstart() called on node37.bme.utexas.edu
*** at Tue Feb 22 18:53:11 2022

   => Loading Basis Set <=

    Name: AUG-CC-PVTZ
    Role: ORBITAL
    Keyword: BASIS
    atoms 1-3 entry CL         line   984 file /home/bdw2292/miniconda3/envs/amoebamdpoltype/share/psi4/basis/aug-cc-pvtz.gbs 
    atoms 4   entry C          line   235 file /home/bdw2292/miniconda3/envs/amoebamdpoltype/share/psi4/basis/aug-cc-pvtz.gbs 
    atoms 5   entry H          line    36 file /home/bdw2292/miniconda3/envs/amoebamdpoltype/share/psi4/basis/aug-cc-pvtz.gbs 


         ---------------------------------------------------------
                                   SCF
               by Justin Turney, Rob Parrish, Andy Simmonett
                          and Daniel G. A. Smith
                              RHF Reference
                        4 Threads,  14305 MiB Core
         ---------------------------------------------------------

  ==> Geometry <==

    Molecular point group: c1
    Full point group: C1

    Geometry (in Angstrom), charge = 0, multiplicity = 1:

       Center              X                  Y                   Z               Mass       
    ------------   -----------------  -----------------  -----------------  -----------------
         CL          -1.682351178623     3.851503612828    -0.604257063870    34.968852682000
         CL           0.655448721377     2.126781712828    -0.572697763870    34.968852682000
         CL          -2.006335878623     0.964546212828    -0.616955863870    34.968852682000
         C           -1.019279478623     2.312987812828    -0.065225763870    12.000000000000
         H           -1.035803978623     2.309765512828     1.024616636130     1.007825032230

  Running in c1 symmetry.

  Rotational constants: A =      0.10672  B =      0.01796  C =      0.01567 [cm^-1]
  Rotational constants: A =   3199.38064  B =    538.52877  C =    469.88224 [MHz]
  Nuclear repulsion =  264.418967199248641

  Charge       = 0
  Multiplicity = 1
  Electrons    = 58
  Nalpha       = 29
  Nbeta        = 29

  ==> Algorithm <==

  SCF Algorithm Type is DF.
  DIIS enabled.
  MOM disabled.
  Fractional occupation disabled.
  Guess Type is SAD.
  Energy threshold   = 1.00e-08
  Density threshold  = 1.00e-08
  Integral threshold = 0.00e+00

  ==> Primary Basis <==

  Basis Set: AUG-CC-PVTZ
    Blend: AUG-CC-PVTZ
    Number of shells: 71
    Number of basis function: 219
    Number of Cartesian functions: 257
    Spherical Harmonics?: true
    Max angular momentum: 3

   => Loading Basis Set <=

    Name: (AUG-CC-PVTZ AUX)
    Role: JKFIT
    Keyword: DF_BASIS_SCF
    atoms 1-3 entry CL         line   816 file /home/bdw2292/miniconda3/envs/amoebamdpoltype/share/psi4/basis/aug-cc-pvtz-jkfit.gbs 
    atoms 4   entry C          line   162 file /home/bdw2292/miniconda3/envs/amoebamdpoltype/share/psi4/basis/aug-cc-pvtz-jkfit.gbs 
    atoms 5   entry H          line    70 file /home/bdw2292/miniconda3/envs/amoebamdpoltype/share/psi4/basis/aug-cc-pvtz-jkfit.gbs 

  ==> Pre-Iterations <==

   -------------------------------------------------------
    Irrep   Nso     Nmo     Nalpha   Nbeta   Ndocc  Nsocc
   -------------------------------------------------------
     A        219     219       0       0       0       0
   -------------------------------------------------------
    Total     219     219      29      29      29       0
   -------------------------------------------------------

  ==> Integral Setup <==

  DFHelper Memory: AOs need 0.224 GiB; user supplied 10.477 GiB. Using in-core AOs.

  ==> MemDFJK: Density-Fitted J/K Matrices <==

    J tasked:                   Yes
    K tasked:                   Yes
    wK tasked:                   No
    OpenMP threads:               4
    Memory [MiB]:             10728
    Algorithm:                 Core
    Schwarz Cutoff:           1E-12
    Mask sparsity (%):       0.0000
    Fitting Condition:        1E-10

   => Auxiliary Basis Set <=

  Basis Set: (AUG-CC-PVTZ AUX)
    Blend: AUG-CC-PVTZ-JKFIT
    Number of shells: 170
    Number of basis function: 588
    Number of Cartesian functions: 726
    Spherical Harmonics?: true
    Max angular momentum: 4

  Minimum eigenvalue in the overlap matrix is 6.3167591273E-05.
  Using Symmetric Orthogonalization.

  SCF Guess: Superposition of Atomic Densities via on-the-fly atomic UHF.

  ==> Iterations <==

                           Total Energy        Delta E     RMS |[F,P]|

   @DF-RHF iter SAD: -1416.92125684207667   -1.41692e+03   0.00000e+00 
   @DF-RHF iter   1: -1416.94877065351193   -2.75138e-02   1.35716e-03 DIIS
   @DF-RHF iter   2: -1416.98301230742527   -3.42417e-02   8.94167e-04 DIIS
   @DF-RHF iter   3: -1417.00046874558188   -1.74564e-02   1.76357e-04 DIIS
   @DF-RHF iter   4: -1417.00207570116709   -1.60696e-03   5.26221e-05 DIIS
   @DF-RHF iter   5: -1417.00224348165420   -1.67780e-04   1.30597e-05 DIIS
   @DF-RHF iter   6: -1417.00225604322691   -1.25616e-05   2.89172e-06 DIIS
   @DF-RHF iter   7: -1417.00225655120744   -5.07981e-07   7.81975e-07 DIIS
   @DF-RHF iter   8: -1417.00225658601016   -3.48027e-08   2.15476e-07 DIIS
   @DF-RHF iter   9: -1417.00225658915747   -3.14731e-09   5.24987e-08 DIIS
   @DF-RHF iter  10: -1417.00225658942850   -2.71029e-10   1.62503e-08 DIIS
   @DF-RHF iter  11: -1417.00225658945533   -2.68301e-11   3.48529e-09 DIIS
  Energy and wave function converged.


  ==> Post-Iterations <==

    Orbital Energies [Eh]
    ---------------------

    Doubly Occupied:                                                      

       1A   -104.866985     2A   -104.866958     3A   -104.866955  
       4A    -11.434003     5A    -10.591559     6A    -10.591537  
       7A    -10.591527     8A     -8.058379     9A     -8.058357  
      10A     -8.058353    11A     -8.056232    12A     -8.056209  
      13A     -8.056206    14A     -8.056184    15A     -8.056161  
      16A     -8.056158    17A     -1.245908    18A     -1.116649  
      19A     -1.116623    20A     -0.873235    21A     -0.682803  
      22A     -0.628744    23A     -0.628720    24A     -0.505088  
      25A     -0.505064    26A     -0.469175    27A     -0.469148  
      28A     -0.464149    29A     -0.451525  

    Virtual:                                                              

      30A      0.033113    31A      0.061754    32A      0.068601  
      33A      0.068604    34A      0.103610    35A      0.113866  
      36A      0.113869    37A      0.122100    38A      0.122103  
      39A      0.130946    40A      0.141756    41A      0.160493  
      42A      0.160496    43A      0.163518    44A      0.193915  
      45A      0.198645    46A      0.198662    47A      0.245464  
      48A      0.257213    49A      0.257218    50A      0.300712  
      51A      0.301969    52A      0.301978    53A      0.332915  
      54A      0.343543    55A      0.343568    56A      0.377406  
      57A      0.377432    58A      0.402738    59A      0.408725  
      60A      0.427839    61A      0.427872    62A      0.435900  
      63A      0.447806    64A      0.447826    65A      0.485856  
      66A      0.485889    67A      0.504508    68A      0.519928  
      69A      0.536793    70A      0.536862    71A      0.554120  
      72A      0.588139    73A      0.588197    74A      0.684150  
      75A      0.684189    76A      0.709707    77A      0.735548  
      78A      0.735562    79A      0.751347    80A      0.796403  
      81A      0.801693    82A      0.801704    83A      0.814701  
      84A      0.845447    85A      0.848699    86A      0.848721  
      87A      0.870846    88A      0.870876    89A      0.875969  
      90A      0.910640    91A      0.910697    92A      0.915535  
      93A      0.940511    94A      0.948076    95A      0.948105  
      96A      0.963800    97A      1.020223    98A      1.020317  
      99A      1.042290   100A      1.062027   101A      1.062076  
     102A      1.085205   103A      1.108420   104A      1.108510  
     105A      1.126275   106A      1.126340   107A      1.130066  
     108A      1.160287   109A      1.160357   110A      1.188710  
     111A      1.258282   112A      1.258369   113A      1.275442  
     114A      1.294567   115A      1.294586   116A      1.378422  
     117A      1.378515   118A      1.422958   119A      1.468959  
     120A      1.505985   121A      1.506115   122A      1.557431  
     123A      1.570211   124A      1.570221   125A      1.604043  
     126A      1.604222   127A      1.642220   128A      1.727600  
     129A      1.727618   130A      1.750634   131A      1.751430  
     132A      1.767726   133A      1.767759   134A      1.785142  
     135A      1.865720   136A      1.865908   137A      1.866731  
     138A      1.889210   139A      1.912958   140A      1.913039  
     141A      1.935073   142A      1.968051   143A      1.968105  
     144A      2.146889   145A      2.146933   146A      2.402669  
     147A      2.536542   148A      2.536602   149A      2.583584  
     150A      2.589167   151A      2.589188   152A      2.604337  
     153A      2.632749   154A      2.651956   155A      2.652079  
     156A      2.681364   157A      2.681390   158A      2.706708  
     159A      2.706766   160A      2.708325   161A      2.721374  
     162A      2.931446   163A      2.931544   164A      2.943586  
     165A      2.943639   166A      2.974205   167A      2.998323  
     168A      3.007087   169A      3.007092   170A      3.047579  
     171A      3.067095   172A      3.081921   173A      3.081938  
     174A      3.104598   175A      3.104628   176A      3.124726  
     177A      3.140666   178A      3.140672   179A      3.148680  
     180A      3.170025   181A      3.201485   182A      3.201512  
     183A      3.204644   184A      3.248191   185A      3.248264  
     186A      3.283525   187A      3.283534   188A      3.345727  
     189A      3.418136   190A      3.483625   191A      3.483922  
     192A      3.525131   193A      3.677100   194A      3.677238  
     195A      3.773402   196A      3.788178   197A      3.788261  
     198A      3.997837   199A      3.997930   200A      4.016181  
     201A      4.059631   202A      4.188670   203A      4.272230  
     204A      4.272317   205A      4.419865   206A      4.420074  
     207A      4.723903   208A      4.723988   209A      4.821601  
     210A      4.930860   211A      4.930904   212A      5.235498  
     213A      5.235745   214A      5.579947   215A      5.975087  
     216A      7.085518   217A      7.700097   218A      7.700815  
     219A     13.781800  

    Final Occupation by Irrep:
              A 
    DOCC [    29 ]

  @DF-RHF Final Energy: -1417.00225658945533

   => Energetics <=

    Nuclear Repulsion Energy =            264.4189671992486410
    One-Electron Energy =               -2483.8852624331461811
    Two-Electron Energy =                 802.4640386444423257
    Total Energy =                      -1417.0022565894553281

Computation Completed


Properties will be evaluated at  -1.912640,   4.373029,  -1.001338 [a0]

Properties computed using the SCF density matrix

  Nuclear Dipole Moment: [e a0]
     X:    -0.0251      Y:    -0.0045      Z:     1.6443

  Electronic Dipole Moment: [e a0]
     X:     0.0179      Y:     0.0034      Z:    -1.1751

  Dipole Moment: [e a0]
     X:    -0.0072      Y:    -0.0012      Z:     0.4691     Total:     0.4692

  Dipole Moment: [D]
     X:    -0.0183      Y:    -0.0030      Z:     1.1924     Total:     1.1926


*** tstop() called on node37.bme.utexas.edu at Tue Feb 22 18:53:18 2022
Module time:
	user time   =      20.79 seconds =       0.35 minutes
	system time =       1.47 seconds =       0.02 minutes
	total time  =          7 seconds =       0.12 minutes
Total time:
	user time   =      20.79 seconds =       0.35 minutes
	system time =       1.47 seconds =       0.02 minutes
	total time  =          7 seconds =       0.12 minutes

*** tstart() called on node37.bme.utexas.edu
*** at Tue Feb 22 18:53:18 2022


  //>>>>>>>>>>>>>>>>>>>>>>>>>>>>>>>>>>>//
  //               DFMP2               //
  //<<<<<<<<<<<<<<<<<<<<<<<<<<<<<<<<<<<//

   => Loading Basis Set <=

    Name: (AUG-CC-PVTZ AUX)
    Role: RIFIT
    Keyword: DF_BASIS_MP2
    atoms 1-3 entry CL         line   742 file /home/bdw2292/miniconda3/envs/amoebamdpoltype/share/psi4/basis/aug-cc-pvtz-ri.gbs 
    atoms 4   entry C          line   148 file /home/bdw2292/miniconda3/envs/amoebamdpoltype/share/psi4/basis/aug-cc-pvtz-ri.gbs 
    atoms 5   entry H          line    30 file /home/bdw2292/miniconda3/envs/amoebamdpoltype/share/psi4/basis/aug-cc-pvtz-ri.gbs 

	 --------------------------------------------------------
	                          DF-MP2                         
	      2nd-Order Density-Fitted Moller-Plesset Theory     
	              RMP2 Wavefunction,   4 Threads             
	                                                         
	        Rob Parrish, Justin Turney, Andy Simmonett,      
	           Ed Hohenstein, and C. David Sherrill          
	 --------------------------------------------------------

   => Auxiliary Basis Set <=

  Basis Set: (AUG-CC-PVTZ AUX)
    Blend: AUG-CC-PVTZ-RI
    Number of shells: 153
    Number of basis function: 593
    Number of Cartesian functions: 764
    Spherical Harmonics?: true
    Max angular momentum: 4

	 --------------------------------------------------------
	                 NBF =   219, NAUX =   593
	 --------------------------------------------------------
	   CLASS    FOCC     OCC    AOCC    AVIR     VIR    FVIR
	   PAIRS      16      29      13     190     190       0
	 --------------------------------------------------------

	-----------------------------------------------------------
	 ==================> DF-MP2 Energies <==================== 
	-----------------------------------------------------------
	 Reference Energy          =   -1417.0022565894553281 [Eh]
	 Singles Energy            =      -0.0000000000000000 [Eh]
	 Same-Spin Energy          =      -0.1911304858030729 [Eh]
	 Opposite-Spin Energy      =      -0.5650644434472207 [Eh]
	 Correlation Energy        =      -0.7561949292502936 [Eh]
	 Total Energy              =   -1417.7584515187056695 [Eh]
	-----------------------------------------------------------
	 ================> DF-SCS-MP2 Energies <================== 
	-----------------------------------------------------------
	 SCS Same-Spin Scale       =       0.3333333333333333 [-]
	 SCS Opposite-Spin Scale   =       1.2000000000000000 [-]
	 SCS Same-Spin Energy      =      -0.0637101619343576 [Eh]
	 SCS Opposite-Spin Energy  =      -0.6780773321366649 [Eh]
	 SCS Correlation Energy    =      -0.7417874940710225 [Eh]
	 SCS Total Energy          =   -1417.7440440835264326 [Eh]
	-----------------------------------------------------------


*** tstop() called on node37.bme.utexas.edu at Tue Feb 22 18:53:21 2022
Module time:
	user time   =       8.21 seconds =       0.14 minutes
	system time =       0.44 seconds =       0.01 minutes
	total time  =          3 seconds =       0.05 minutes
Total time:
	user time   =      29.01 seconds =       0.48 minutes
	system time =       1.91 seconds =       0.03 minutes
	total time  =         10 seconds =       0.17 minutes

  //>>>>>>>>>>>>>>>>>>>>>>>>>>>>>>>>>>>>//
  // CBS Computation: MP2 / AUG-CC-PVQZ //
  //<<<<<<<<<<<<<<<<<<<<<<<<<<<<<<<<<<<<//

    SCF Algorithm Type (re)set to DF.

*** tstart() called on node37.bme.utexas.edu
*** at Tue Feb 22 18:53:21 2022

   => Loading Basis Set <=

    Name: AUG-CC-PVQZ
    Role: ORBITAL
    Keyword: BASIS
    atoms 1-3 entry CL         line  1218 file /home/bdw2292/miniconda3/envs/amoebamdpoltype/share/psi4/basis/aug-cc-pvqz.gbs 
    atoms 4   entry C          line   299 file /home/bdw2292/miniconda3/envs/amoebamdpoltype/share/psi4/basis/aug-cc-pvqz.gbs 
    atoms 5   entry H          line    36 file /home/bdw2292/miniconda3/envs/amoebamdpoltype/share/psi4/basis/aug-cc-pvqz.gbs 


         ---------------------------------------------------------
                                   SCF
               by Justin Turney, Rob Parrish, Andy Simmonett
                          and Daniel G. A. Smith
                              RHF Reference
                        4 Threads,  14305 MiB Core
         ---------------------------------------------------------

  ==> Geometry <==

    Molecular point group: c1
    Full point group: C1

    Geometry (in Angstrom), charge = 0, multiplicity = 1:

       Center              X                  Y                   Z               Mass       
    ------------   -----------------  -----------------  -----------------  -----------------
         CL          -1.682351178623     3.851503612828    -0.604257063870    34.968852682000
         CL           0.655448721377     2.126781712828    -0.572697763870    34.968852682000
         CL          -2.006335878623     0.964546212828    -0.616955863870    34.968852682000
         C           -1.019279478623     2.312987812828    -0.065225763870    12.000000000000
         H           -1.035803978623     2.309765512828     1.024616636130     1.007825032230

  Running in c1 symmetry.

  Rotational constants: A =      0.10672  B =      0.01796  C =      0.01567 [cm^-1]
  Rotational constants: A =   3199.38064  B =    538.52877  C =    469.88224 [MHz]
  Nuclear repulsion =  264.418967199248641

  Charge       = 0
  Multiplicity = 1
  Electrons    = 58
  Nalpha       = 29
  Nbeta        = 29

  ==> Algorithm <==

  SCF Algorithm Type is DF.
  DIIS enabled.
  MOM disabled.
  Fractional occupation disabled.
  Guess Type is SAD.
  Energy threshold   = 1.00e-08
  Density threshold  = 1.00e-08
  Integral threshold = 0.00e+00

  ==> Primary Basis <==

  Basis Set: AUG-CC-PVQZ
    Blend: AUG-CC-PVQZ
    Number of shells: 100
    Number of basis function: 378
    Number of Cartesian functions: 487
    Spherical Harmonics?: true
    Max angular momentum: 4

   => Loading Basis Set <=

    Name: (AUG-CC-PVQZ AUX)
    Role: JKFIT
    Keyword: DF_BASIS_SCF
    atoms 1-3 entry CL         line   904 file /home/bdw2292/miniconda3/envs/amoebamdpoltype/share/psi4/basis/aug-cc-pvqz-jkfit.gbs 
    atoms 4   entry C          line   178 file /home/bdw2292/miniconda3/envs/amoebamdpoltype/share/psi4/basis/aug-cc-pvqz-jkfit.gbs 
    atoms 5   entry H          line    70 file /home/bdw2292/miniconda3/envs/amoebamdpoltype/share/psi4/basis/aug-cc-pvqz-jkfit.gbs 

  ==> Pre-Iterations <==

   -------------------------------------------------------
    Irrep   Nso     Nmo     Nalpha   Nbeta   Ndocc  Nsocc
   -------------------------------------------------------
     A        378     378       0       0       0       0
   -------------------------------------------------------
    Total     378     378      29      29      29       0
   -------------------------------------------------------

  ==> Integral Setup <==

  DFHelper Memory: AOs need 0.861 GiB; user supplied 10.477 GiB. Using in-core AOs.

  ==> MemDFJK: Density-Fitted J/K Matrices <==

    J tasked:                   Yes
    K tasked:                   Yes
    wK tasked:                   No
    OpenMP threads:               4
    Memory [MiB]:             10728
    Algorithm:                 Core
    Schwarz Cutoff:           1E-12
    Mask sparsity (%):       0.3303
    Fitting Condition:        1E-10

   => Auxiliary Basis Set <=

  Basis Set: (AUG-CC-PVQZ AUX)
    Blend: AUG-CC-PVQZ-JKFIT
    Number of shells: 190
    Number of basis function: 770
    Number of Cartesian functions: 1040
    Spherical Harmonics?: true
    Max angular momentum: 5

  Minimum eigenvalue in the overlap matrix is 1.2805409467E-05.
  Using Symmetric Orthogonalization.

  SCF Guess: Superposition of Atomic Densities via on-the-fly atomic UHF.

  ==> Iterations <==

                           Total Energy        Delta E     RMS |[F,P]|

   @DF-RHF iter SAD: -1416.93079631316596   -1.41693e+03   0.00000e+00 
   @DF-RHF iter   1: -1416.96185810086763   -3.10618e-02   8.19224e-04 DIIS
   @DF-RHF iter   2: -1416.99650933047405   -3.46512e-02   5.28912e-04 DIIS
   @DF-RHF iter   3: -1417.01387575836816   -1.73664e-02   1.08730e-04 DIIS
   @DF-RHF iter   4: -1417.01554552814491   -1.66977e-03   3.41721e-05 DIIS
   @DF-RHF iter   5: -1417.01575633505718   -2.10807e-04   8.22707e-06 DIIS
   @DF-RHF iter   6: -1417.01577081991491   -1.44849e-05   1.80520e-06 DIIS
   @DF-RHF iter   7: -1417.01577140234599   -5.82431e-07   5.12284e-07 DIIS
   @DF-RHF iter   8: -1417.01577144447697   -4.21310e-08   1.43262e-07 DIIS
   @DF-RHF iter   9: -1417.01577144841008   -3.93311e-09   3.61923e-08 DIIS
   @DF-RHF iter  10: -1417.01577144876978   -3.59705e-10   1.11451e-08 DIIS
   @DF-RHF iter  11: -1417.01577144880662   -3.68345e-11   2.45263e-09 DIIS
  Energy and wave function converged.


  ==> Post-Iterations <==

    Orbital Energies [Eh]
    ---------------------

    Doubly Occupied:                                                      

       1A   -104.864589     2A   -104.864562     3A   -104.864559  
       4A    -11.431679     5A    -10.590387     6A    -10.590366  
       7A    -10.590355     8A     -8.057417     9A     -8.057394  
      10A     -8.057390    11A     -8.055452    12A     -8.055429  
      13A     -8.055426    14A     -8.055399    15A     -8.055376  
      16A     -8.055373    17A     -1.244978    18A     -1.116020  
      19A     -1.115993    20A     -0.872809    21A     -0.682492  
      22A     -0.628604    23A     -0.628579    24A     -0.504855  
      25A     -0.504831    26A     -0.468941    27A     -0.468915  
      28A     -0.463897    29A     -0.451329  

    Virtual:                                                              

      30A      0.029939    31A      0.052690    32A      0.056959  
      33A      0.056962    34A      0.092634    35A      0.095854  
      36A      0.095855    37A      0.097147    38A      0.097150  
      39A      0.114368    40A      0.124548    41A      0.137689  
      42A      0.137694    43A      0.137987    44A      0.161769  
      45A      0.176637    46A      0.176650    47A      0.207461  
      48A      0.217672    49A      0.217679    50A      0.247847  
      51A      0.252865    52A      0.252872    53A      0.281867  
      54A      0.281880    55A      0.286418    56A      0.303408  
      57A      0.303413    58A      0.323994    59A      0.324023  
      60A      0.325121    61A      0.336706    62A      0.348015  
      63A      0.348026    64A      0.353906    65A      0.359379  
      66A      0.368815    67A      0.368845    68A      0.374575  
      69A      0.408558    70A      0.408624    71A      0.421581  
      72A      0.461668    73A      0.461707    74A      0.526418  
      75A      0.526466    76A      0.538104    77A      0.559536  
      78A      0.559545    79A      0.568944    80A      0.568967  
      81A      0.573692    82A      0.594618    83A      0.594635  
      84A      0.606149    85A      0.609190    86A      0.615980  
      87A      0.617411    88A      0.617447    89A      0.624876  
      90A      0.681894    91A      0.681922    92A      0.695921  
      93A      0.714824    94A      0.714847    95A      0.743990  
      96A      0.755781    97A      0.762002    98A      0.771253  
      99A      0.771284   100A      0.802915   101A      0.802953  
     102A      0.833177   103A      0.833185   104A      0.857441  
     105A      0.866626   106A      0.866673   107A      0.887190  
     108A      0.887226   109A      0.900826   110A      0.918506  
     111A      0.959587   112A      0.980538   113A      0.980575  
     114A      1.013074   115A      1.013105   116A      1.039313  
     117A      1.061835   118A      1.061871   119A      1.091530  
     120A      1.091548   121A      1.108600   122A      1.126244  
     123A      1.138752   124A      1.138793   125A      1.157253  
     126A      1.173655   127A      1.173687   128A      1.195421  
     129A      1.231652   130A      1.231680   131A      1.232534  
     132A      1.235683   133A      1.235709   134A      1.256932  
     135A      1.259286   136A      1.274530   137A      1.274548  
     138A      1.275281   139A      1.310547   140A      1.310610  
     141A      1.350795   142A      1.447436   143A      1.447453  
     144A      1.477989   145A      1.555897   146A      1.556078  
     147A      1.648819   148A      1.690832   149A      1.690840  
     150A      1.736049   151A      1.736182   152A      1.739471  
     153A      1.748777   154A      1.773189   155A      1.773260  
     156A      1.774011   157A      1.799229   158A      1.799245  
     159A      1.819094   160A      1.819169   161A      1.828843  
     162A      1.871115   163A      1.875948   164A      1.875975  
     165A      1.924222   166A      1.924260   167A      1.928224  
     168A      1.928327   169A      1.954813   170A      1.963965  
     171A      1.994278   172A      1.994315   173A      2.011099  
     174A      2.011191   175A      2.016041   176A      2.035529  
     177A      2.035664   178A      2.054247   179A      2.054305  
     180A      2.108801   181A      2.108842   182A      2.111453  
     183A      2.116057   184A      2.119166   185A      2.119227  
     186A      2.175334   187A      2.175389   188A      2.190246  
     189A      2.196541   190A      2.196641   191A      2.211135  
     192A      2.211607   193A      2.225853   194A      2.225907  
     195A      2.237499   196A      2.261969   197A      2.262007  
     198A      2.285293   199A      2.285306   200A      2.298801  
     201A      2.300765   202A      2.300838   203A      2.325546  
     204A      2.392989   205A      2.401655   206A      2.403506  
     207A      2.403554   208A      2.448074   209A      2.453245  
     210A      2.453290   211A      2.475651   212A      2.475758  
     213A      2.486393   214A      2.543432   215A      2.543593  
     216A      2.567580   217A      2.576832   218A      2.576870  
     219A      2.613783   220A      2.632073   221A      2.637507  
     222A      2.637616   223A      2.736886   224A      2.817930  
     225A      2.818040   226A      2.859489   227A      2.897829  
     228A      2.899635   229A      2.899775   230A      2.902167  
     231A      2.993884   232A      2.993951   233A      3.045608  
     234A      3.117189   235A      3.117394   236A      3.166182  
     237A      3.166513   238A      3.298041   239A      3.298098  
     240A      3.318604   241A      3.325649   242A      3.386086  
     243A      3.386132   244A      3.473304   245A      3.473370  
     246A      3.485537   247A      3.534218   248A      3.543427  
     249A      3.543463   250A      3.636341   251A      3.742036  
     252A      3.760605   253A      3.760760   254A      3.848904  
     255A      3.849025   256A      3.968511   257A      3.968835  
     258A      3.977095   259A      4.234470   260A      4.283826  
     261A      4.283902   262A      4.418641   263A      4.418685  
     264A      4.419552   265A      4.463066   266A      4.499131  
     267A      4.539809   268A      4.539882   269A      4.591332  
     270A      4.591362   271A      4.660408   272A      4.660427  
     273A      4.662668   274A      4.708164   275A      4.708203  
     276A      4.708611   277A      4.711404   278A      4.711465  
     279A      4.717719   280A      4.742073   281A      4.742081  
     282A      4.750882   283A      4.766128   284A      4.766163  
     285A      4.774951   286A      4.786622   287A      4.786672  
     288A      4.795946   289A      4.801517   290A      4.821385  
     291A      4.821431   292A      4.854248   293A      4.854314  
     294A      4.872497   295A      4.887938   296A      4.888022  
     297A      4.908303   298A      4.911703   299A      4.911726  
     300A      4.927046   301A      4.945428   302A      4.945458  
     303A      4.952749   304A      4.980559   305A      4.985901  
     306A      4.985958   307A      5.032069   308A      5.053308  
     309A      5.082189   310A      5.082353   311A      5.151700  
     312A      5.151741   313A      5.197979   314A      5.248035  
     315A      5.248115   316A      5.287694   317A      5.303465  
     318A      5.385498   319A      5.385583   320A      5.408985  
     321A      5.409036   322A      5.513191   323A      5.513614  
     324A      5.576515   325A      5.702031   326A      6.445319  
     327A      6.478755   328A      6.479193   329A      6.515698  
     330A      6.515992   331A      6.685901   332A      6.714906  
     333A      6.715061   334A      6.718948   335A      6.778723  
     336A      6.816058   337A      6.816308   338A      6.891900  
     339A      6.892109   340A      6.903598   341A      6.957530  
     342A      6.979364   343A      7.081030   344A      7.190134  
     345A      7.190310   346A      7.211384   347A      7.211586  
     348A      7.394347   349A      7.394667   350A      7.422484  
     351A      7.512594   352A      7.610699   353A      7.610874  
     354A      7.731193   355A      7.731247   356A      7.811051  
     357A      7.891081   358A      8.000542   359A      8.000691  
     360A      8.339538   361A      8.614577   362A      8.614642  
     363A      8.705110   364A      8.705292   365A      8.832093  
     366A      9.323015   367A      9.323114   368A      9.540430  
     369A      9.711679   370A      9.711906   371A     10.427636  
     372A     10.427756   373A     10.678601   374A     12.933700  
     375A     25.518499   376A     26.663083   377A     26.663668  
     378A     27.330268  

    Final Occupation by Irrep:
              A 
    DOCC [    29 ]

  @DF-RHF Final Energy: -1417.01577144880662

   => Energetics <=

    Nuclear Repulsion Energy =            264.4189671992486410
    One-Electron Energy =               -2483.9626919445413478
    Two-Electron Energy =                 802.5279532964862028
    Total Energy =                      -1417.0157714488066176

Computation Completed


Properties will be evaluated at  -1.912640,   4.373029,  -1.001338 [a0]

Properties computed using the SCF density matrix

  Nuclear Dipole Moment: [e a0]
     X:    -0.0251      Y:    -0.0045      Z:     1.6443

  Electronic Dipole Moment: [e a0]
     X:     0.0179      Y:     0.0034      Z:    -1.1784

  Dipole Moment: [e a0]
     X:    -0.0072      Y:    -0.0012      Z:     0.4659     Total:     0.4659

  Dipole Moment: [D]
     X:    -0.0182      Y:    -0.0029      Z:     1.1841     Total:     1.1843


*** tstop() called on node37.bme.utexas.edu at Tue Feb 22 18:53:43 2022
Module time:
	user time   =      64.20 seconds =       1.07 minutes
	system time =       3.93 seconds =       0.07 minutes
	total time  =         22 seconds =       0.37 minutes
Total time:
	user time   =      93.26 seconds =       1.55 minutes
	system time =       5.85 seconds =       0.10 minutes
	total time  =         32 seconds =       0.53 minutes

*** tstart() called on node37.bme.utexas.edu
*** at Tue Feb 22 18:53:43 2022


  //>>>>>>>>>>>>>>>>>>>>>>>>>>>>>>>>>>>//
  //               DFMP2               //
  //<<<<<<<<<<<<<<<<<<<<<<<<<<<<<<<<<<<//

   => Loading Basis Set <=

    Name: (AUG-CC-PVQZ AUX)
    Role: RIFIT
    Keyword: DF_BASIS_MP2
    atoms 1-3 entry CL         line   914 file /home/bdw2292/miniconda3/envs/amoebamdpoltype/share/psi4/basis/aug-cc-pvqz-ri.gbs 
    atoms 4   entry C          line   184 file /home/bdw2292/miniconda3/envs/amoebamdpoltype/share/psi4/basis/aug-cc-pvqz-ri.gbs 
    atoms 5   entry H          line    30 file /home/bdw2292/miniconda3/envs/amoebamdpoltype/share/psi4/basis/aug-cc-pvqz-ri.gbs 

	 --------------------------------------------------------
	                          DF-MP2                         
	      2nd-Order Density-Fitted Moller-Plesset Theory     
	              RMP2 Wavefunction,   4 Threads             
	                                                         
	        Rob Parrish, Justin Turney, Andy Simmonett,      
	           Ed Hohenstein, and C. David Sherrill          
	 --------------------------------------------------------

   => Auxiliary Basis Set <=

  Basis Set: (AUG-CC-PVQZ AUX)
    Blend: AUG-CC-PVQZ-RI
    Number of shells: 188
    Number of basis function: 830
    Number of Cartesian functions: 1146
    Spherical Harmonics?: true
    Max angular momentum: 5

	 --------------------------------------------------------
	                 NBF =   378, NAUX =   830
	 --------------------------------------------------------
	   CLASS    FOCC     OCC    AOCC    AVIR     VIR    FVIR
	   PAIRS      16      29      13     349     349       0
	 --------------------------------------------------------

	-----------------------------------------------------------
	 ==================> DF-MP2 Energies <==================== 
	-----------------------------------------------------------
	 Reference Energy          =   -1417.0157714488066176 [Eh]
	 Singles Energy            =      -0.0000000000000000 [Eh]
	 Same-Spin Energy          =      -0.1973139760111887 [Eh]
	 Opposite-Spin Energy      =      -0.6181121632700892 [Eh]
	 Correlation Energy        =      -0.8154261392812779 [Eh]
	 Total Energy              =   -1417.8311975880878890 [Eh]
	-----------------------------------------------------------
	 ================> DF-SCS-MP2 Energies <================== 
	-----------------------------------------------------------
	 SCS Same-Spin Scale       =       0.3333333333333333 [-]
	 SCS Opposite-Spin Scale   =       1.2000000000000000 [-]
	 SCS Same-Spin Energy      =      -0.0657713253370629 [Eh]
	 SCS Opposite-Spin Energy  =      -0.7417345959241071 [Eh]
	 SCS Correlation Energy    =      -0.8075059212611699 [Eh]
	 SCS Total Energy          =   -1417.8232773700678990 [Eh]
	-----------------------------------------------------------


*** tstop() called on node37.bme.utexas.edu at Tue Feb 22 18:53:52 2022
Module time:
	user time   =      23.37 seconds =       0.39 minutes
	system time =       2.73 seconds =       0.05 minutes
	total time  =          9 seconds =       0.15 minutes
Total time:
	user time   =     116.63 seconds =       1.94 minutes
	system time =       8.58 seconds =       0.14 minutes
	total time  =         41 seconds =       0.68 minutes

  //>>>>>>>>>>>>>>>>>>>>>>>>>>>>>>>>>>>//
  //  CBS Results: mp2/aug-cc-pV[TQ]Z  //
  //<<<<<<<<<<<<<<<<<<<<<<<<<<<<<<<<<<<//


   ==> HF <==

   HI-zeta (4) Energy:               -1417.015771448807


   ==> Helgaker 2-point correlated extrapolation for method: MP2 <==

   LO-zeta (3) Energy:               -1417.758451518706
   HI-zeta (4) Energy:               -1417.831197588088
   Alpha (exponent) Value:             3.000000000000
   Extrapolated Energy:              -1417.884282557637

   @Extrapolated MP2/(T,Q):          -1417.884282557637



   ==> Helgaker 2-point correlated extrapolation for method: HF <==

   LO-zeta (3) Energy:               -1417.002256589455
   HI-zeta (4) Energy:               -1417.015771448807
   Alpha (exponent) Value:             3.000000000000
   Extrapolated Energy:              -1417.025633643468

   @Extrapolated HF/(T,Q):           -1417.025633643468


   ==> Components <==

  ---------------------------------------------------------------------------------------------------------
                          Method / Basis                      Rqd      Energy [Eh]   Variable
  ---------------------------------------------------------------------------------------------------------
                              hf / aug-cc-pvtz                  *   -1417.00225659   HF TOTAL ENERGY
                             mp2 / aug-cc-pvtz                  *   -1417.75845152   MP2 TOTAL ENERGY
                              hf / aug-cc-pvqz                  *   -1417.01577145   HF TOTAL ENERGY
                             mp2 / aug-cc-pvqz                  *   -1417.83119759   MP2 TOTAL ENERGY
  ---------------------------------------------------------------------------------------------------------

   ==> Stages <==

  ---------------------------------------------------------------------------------------------------------
      Stage               Method / Basis                       Wt      Energy [Eh]   Scheme
  ---------------------------------------------------------------------------------------------------------
        scf                   hf / aug-cc-pvqz                  1   -1417.01577145   xtpl_highest_1
       corl                  mp2 / aug-cc-pv[tq]z               1   -1417.88428256   corl_xtpl_helgaker_2
       corl                   hf / aug-cc-pv[tq]z              -1   -1417.02563364   corl_xtpl_helgaker_2
  ---------------------------------------------------------------------------------------------------------

   ==> CBS <==

  ---------------------------------------------------------------------------------------------------------
      Stage               Method / Basis                               Energy [Eh]   Scheme
  ---------------------------------------------------------------------------------------------------------
        scf                   hf / aug-cc-pvqz                      -1417.01577145   xtpl_highest_1
       corl                  mp2 / aug-cc-pv[tq]z                      -0.85864891   corl_xtpl_helgaker_2
      total                  CBS                                    -1417.87442036   
  ---------------------------------------------------------------------------------------------------------
   => Loading Basis Set <=

    Name: DEF2-SVP
    Role: ORBITAL
    Keyword: BASIS
    atoms 1-3 entry CL         line   356 file /home/bdw2292/miniconda3/envs/amoebamdpoltype/share/psi4/basis/def2-svp.gbs 
    atoms 4   entry C          line    90 file /home/bdw2292/miniconda3/envs/amoebamdpoltype/share/psi4/basis/def2-svp.gbs 
    atoms 5   entry H          line    15 file /home/bdw2292/miniconda3/envs/amoebamdpoltype/share/psi4/basis/def2-svp.gbs 


       N-Body: Complex Energy (fragments = (2,), basis = (2,): -1417.87442036297512)

       N-Body: Computing complex (2/4) with fragments (2,) in the basis of fragments (1, 2).


  //>>>>>>>>>>>>>>>>>>>>>>>>>>>>>>>>>>>//
  //   CBS Setup: mp2/aug-cc-pV[TQ]Z   //
  //<<<<<<<<<<<<<<<<<<<<<<<<<<<<<<<<<<<//

    Naive listing of computations required.
             hf / aug-cc-pvqz              for  HF TOTAL ENERGY
            mp2 / aug-cc-pvtz              for  MP2 TOTAL ENERGY
            mp2 / aug-cc-pvqz              for  MP2 TOTAL ENERGY
             hf / aug-cc-pvtz              for  HF TOTAL ENERGY
             hf / aug-cc-pvqz              for  HF TOTAL ENERGY

    Enlightened listing of computations required.
            mp2 / aug-cc-pvtz              for  MP2 TOTAL ENERGY
            mp2 / aug-cc-pvqz              for  MP2 TOTAL ENERGY

    Full listing of computations to be obtained (required and bonus).
             hf / aug-cc-pvtz              for  HF TOTAL ENERGY
            mp2 / aug-cc-pvtz              for  MP2 TOTAL ENERGY
             hf / aug-cc-pvqz              for  HF TOTAL ENERGY
            mp2 / aug-cc-pvqz              for  MP2 TOTAL ENERGY

  //>>>>>>>>>>>>>>>>>>>>>>>>>>>>>>>>>>>>//
  // CBS Computation: MP2 / AUG-CC-PVTZ //
  //<<<<<<<<<<<<<<<<<<<<<<<<<<<<<<<<<<<<//

    SCF Algorithm Type (re)set to DF.

*** tstart() called on node37.bme.utexas.edu
*** at Tue Feb 22 18:53:54 2022

   => Loading Basis Set <=

    Name: AUG-CC-PVTZ
    Role: ORBITAL
    Keyword: BASIS
    atoms 1-3, 6-8 entry CL         line   984 file /home/bdw2292/miniconda3/envs/amoebamdpoltype/share/psi4/basis/aug-cc-pvtz.gbs 
    atoms 4, 9     entry C          line   235 file /home/bdw2292/miniconda3/envs/amoebamdpoltype/share/psi4/basis/aug-cc-pvtz.gbs 
    atoms 5, 10    entry H          line    36 file /home/bdw2292/miniconda3/envs/amoebamdpoltype/share/psi4/basis/aug-cc-pvtz.gbs 


         ---------------------------------------------------------
                                   SCF
               by Justin Turney, Rob Parrish, Andy Simmonett
                          and Daniel G. A. Smith
                              RHF Reference
                        4 Threads,  14305 MiB Core
         ---------------------------------------------------------

  ==> Geometry <==

    Molecular point group: c1
    Full point group: C1

    Geometry (in Angstrom), charge = 0, multiplicity = 1:

       Center              X                  Y                   Z               Mass       
    ------------   -----------------  -----------------  -----------------  -----------------
      Gh(CL)          0.333560221377    -0.798133387172     0.288290236130    34.968852682000
      Gh(CL)          2.680762921377    -2.478565287172     0.613707336130    34.968852682000
      Gh(CL)          0.039020021377    -3.681220787172     0.484741936130    34.968852682000
      Gh(C)           0.973520921377    -2.278605287172     0.991472036130    12.000000000000
      Gh(H)           0.883059121377    -2.195641487172     2.074486636130     1.007825032230
         CL          -1.682351178623     3.851503612828    -0.604257063870    34.968852682000
         CL           0.655448721377     2.126781712828    -0.572697763870    34.968852682000
         CL          -2.006335878623     0.964546212828    -0.616955863870    34.968852682000
         C           -1.019279478623     2.312987812828    -0.065225763870    12.000000000000
         H           -1.035803978623     2.309765512828     1.024616636130     1.007825032230

  Running in c1 symmetry.

  Rotational constants: A =      0.05395  B =      0.00898  C =      0.00782 [cm^-1]
  Rotational constants: A =   1617.45063  B =    269.26558  C =    234.56251 [MHz]
  Nuclear repulsion =  264.418967199248641

  Charge       = 0
  Multiplicity = 1
  Electrons    = 58
  Nalpha       = 29
  Nbeta        = 29

  ==> Algorithm <==

  SCF Algorithm Type is DF.
  DIIS enabled.
  MOM disabled.
  Fractional occupation disabled.
  Guess Type is SAD.
  Energy threshold   = 1.00e-08
  Density threshold  = 1.00e-08
  Integral threshold = 0.00e+00

  ==> Primary Basis <==

  Basis Set: AUG-CC-PVTZ
    Blend: AUG-CC-PVTZ
    Number of shells: 142
    Number of basis function: 438
    Number of Cartesian functions: 514
    Spherical Harmonics?: true
    Max angular momentum: 3

   => Loading Basis Set <=

    Name: (AUG-CC-PVTZ AUX)
    Role: JKFIT
    Keyword: DF_BASIS_SCF
    atoms 1-3, 6-8 entry CL         line   816 file /home/bdw2292/miniconda3/envs/amoebamdpoltype/share/psi4/basis/aug-cc-pvtz-jkfit.gbs 
    atoms 4, 9     entry C          line   162 file /home/bdw2292/miniconda3/envs/amoebamdpoltype/share/psi4/basis/aug-cc-pvtz-jkfit.gbs 
    atoms 5, 10    entry H          line    70 file /home/bdw2292/miniconda3/envs/amoebamdpoltype/share/psi4/basis/aug-cc-pvtz-jkfit.gbs 

  ==> Pre-Iterations <==

   -------------------------------------------------------
    Irrep   Nso     Nmo     Nalpha   Nbeta   Ndocc  Nsocc
   -------------------------------------------------------
     A        438     438       0       0       0       0
   -------------------------------------------------------
    Total     438     438      29      29      29       0
   -------------------------------------------------------

  ==> Integral Setup <==

  DFHelper Memory: AOs need 1.571 GiB; user supplied 10.477 GiB. Using in-core AOs.

  ==> MemDFJK: Density-Fitted J/K Matrices <==

    J tasked:                   Yes
    K tasked:                   Yes
    wK tasked:                   No
    OpenMP threads:               4
    Memory [MiB]:             10728
    Algorithm:                 Core
    Schwarz Cutoff:           1E-12
    Mask sparsity (%):       9.7850
    Fitting Condition:        1E-10

   => Auxiliary Basis Set <=

  Basis Set: (AUG-CC-PVTZ AUX)
    Blend: AUG-CC-PVTZ-JKFIT
    Number of shells: 340
    Number of basis function: 1176
    Number of Cartesian functions: 1452
    Spherical Harmonics?: true
    Max angular momentum: 4

  Minimum eigenvalue in the overlap matrix is 4.9216740369E-05.
  Using Symmetric Orthogonalization.

  SCF Guess: Superposition of Atomic Densities via on-the-fly atomic UHF.

  ==> Iterations <==

                           Total Energy        Delta E     RMS |[F,P]|

   @DF-RHF iter SAD: -1416.92125818791283   -1.41692e+03   0.00000e+00 
   @DF-RHF iter   1: -1416.94887321194892   -2.76150e-02   6.78856e-04 DIIS
   @DF-RHF iter   2: -1416.98312251749553   -3.42493e-02   4.47138e-04 DIIS
   @DF-RHF iter   3: -1417.00057682302850   -1.74543e-02   8.82327e-05 DIIS
   @DF-RHF iter   4: -1417.00218444397524   -1.60762e-03   2.63435e-05 DIIS
   @DF-RHF iter   5: -1417.00235257844770   -1.68134e-04   6.53376e-06 DIIS
   @DF-RHF iter   6: -1417.00236515514007   -1.25767e-05   1.44701e-06 DIIS
   @DF-RHF iter   7: -1417.00236566374929   -5.08609e-07   3.91481e-07 DIIS
   @DF-RHF iter   8: -1417.00236569861681   -3.48675e-08   1.07863e-07 DIIS
   @DF-RHF iter   9: -1417.00236570177822   -3.16140e-09   2.62750e-08 DIIS
   @DF-RHF iter  10: -1417.00236570204470   -2.66482e-10   8.13384e-09 DIIS
  Energy and wave function converged.


  ==> Post-Iterations <==

    Orbital Energies [Eh]
    ---------------------

    Doubly Occupied:                                                      

       1A   -104.867002     2A   -104.866993     3A   -104.866990  
       4A    -11.433962     5A    -10.591547     6A    -10.591509  
       7A    -10.591499     8A     -8.058365     9A     -8.058330  
      10A     -8.058326    11A     -8.056223    12A     -8.056178  
      13A     -8.056175    14A     -8.056174    15A     -8.056133  
      16A     -8.056130    17A     -1.245869    18A     -1.116621  
      19A     -1.116578    20A     -0.873196    21A     -0.682765  
      22A     -0.628725    23A     -0.628680    24A     -0.505061  
      25A     -0.505040    26A     -0.469155    27A     -0.469107  
      28A     -0.464112    29A     -0.451518  

    Virtual:                                                              

      30A      0.023611    31A      0.038845    32A      0.052937  
      33A      0.053349    34A      0.067926    35A      0.070406  
      36A      0.077268    37A      0.091135    38A      0.099673  
      39A      0.103622    40A      0.104945    41A      0.113195  
      42A      0.114408    43A      0.118547    44A      0.126378  
      45A      0.130773    46A      0.138346    47A      0.141422  
      48A      0.148008    49A      0.149817    50A      0.153792  
      51A      0.167545    52A      0.168011    53A      0.172852  
      54A      0.174473    55A      0.181852    56A      0.184879  
      57A      0.186269    58A      0.197233    59A      0.201979  
      60A      0.207017    61A      0.211844    62A      0.218269  
      63A      0.245064    64A      0.269125    65A      0.282799  
      66A      0.284543    67A      0.285692    68A      0.311352  
      69A      0.316759    70A      0.321779    71A      0.334660  
      72A      0.337084    73A      0.339015    74A      0.342919  
      75A      0.348807    76A      0.360436    77A      0.370802  
      78A      0.374573    79A      0.384687    80A      0.392034  
      81A      0.395456    82A      0.405395    83A      0.409780  
      84A      0.418939    85A      0.419237    86A      0.426939  
      87A      0.429841    88A      0.435312    89A      0.436225  
      90A      0.442890    91A      0.448965    92A      0.456192  
      93A      0.461505    94A      0.470202    95A      0.480222  
      96A      0.484983    97A      0.489884    98A      0.491094  
      99A      0.501420   100A      0.508414   101A      0.517581  
     102A      0.531787   103A      0.532571   104A      0.550189  
     105A      0.555350   106A      0.559270   107A      0.564710  
     108A      0.574270   109A      0.580274   110A      0.583930  
     111A      0.597050   112A      0.605556   113A      0.637126  
     114A      0.637636   115A      0.647960   116A      0.662371  
     117A      0.667647   118A      0.668888   119A      0.684135  
     120A      0.697673   121A      0.710860   122A      0.734974  
     123A      0.735360   124A      0.743839   125A      0.749850  
     126A      0.757857   127A      0.777324   128A      0.782758  
     129A      0.792824   130A      0.796448   131A      0.809140  
     132A      0.813521   133A      0.816783   134A      0.830979  
     135A      0.838169   136A      0.851726   137A      0.853652  
     138A      0.875133   139A      0.878240   140A      0.884492  
     141A      0.885305   142A      0.886689   143A      0.918644  
     144A      0.921993   145A      0.930731   146A      0.937189  
     147A      0.946693   148A      0.958529   149A      0.968838  
     150A      0.982635   151A      0.983952   152A      1.000567  
     153A      1.006279   154A      1.034320   155A      1.049175  
     156A      1.050881   157A      1.071168   158A      1.074789  
     159A      1.090888   160A      1.092104   161A      1.094126  
     162A      1.122020   163A      1.136367   164A      1.138279  
     165A      1.141639   166A      1.157195   167A      1.166683  
     168A      1.170262   169A      1.180914   170A      1.198227  
     171A      1.208136   172A      1.221380   173A      1.250396  
     174A      1.254678   175A      1.257435   176A      1.258799  
     177A      1.272470   178A      1.280239   179A      1.288333  
     180A      1.291642   181A      1.298576   182A      1.305879  
     183A      1.316802   184A      1.322927   185A      1.339254  
     186A      1.352830   187A      1.364672   188A      1.366667  
     189A      1.373536   190A      1.394885   191A      1.409578  
     192A      1.412700   193A      1.428760   194A      1.429504  
     195A      1.435261   196A      1.436934   197A      1.455151  
     198A      1.466061   199A      1.480328   200A      1.494880  
     201A      1.499362   202A      1.505491   203A      1.517211  
     204A      1.518504   205A      1.519666   206A      1.526323  
     207A      1.533828   208A      1.548528   209A      1.559430  
     210A      1.563551   211A      1.565925   212A      1.580814  
     213A      1.595718   214A      1.597234   215A      1.608692  
     216A      1.611523   217A      1.624456   218A      1.632707  
     219A      1.635028   220A      1.651033   221A      1.653725  
     222A      1.661454   223A      1.703092   224A      1.706558  
     225A      1.712630   226A      1.718208   227A      1.725675  
     228A      1.735680   229A      1.739555   230A      1.751107  
     231A      1.767272   232A      1.769930   233A      1.790594  
     234A      1.794027   235A      1.798701   236A      1.811033  
     237A      1.840038   238A      1.852939   239A      1.854022  
     240A      1.881918   241A      1.889273   242A      1.889761  
     243A      1.908734   244A      1.933616   245A      1.944920  
     246A      1.953920   247A      1.975004   248A      1.976573  
     249A      1.980652   250A      2.001229   251A      2.018612  
     252A      2.052513   253A      2.069627   254A      2.113518  
     255A      2.122209   256A      2.149203   257A      2.154367  
     258A      2.174671   259A      2.183162   260A      2.198960  
     261A      2.245774   262A      2.252311   263A      2.283200  
     264A      2.303828   265A      2.308412   266A      2.383011  
     267A      2.440096   268A      2.496801   269A      2.537892  
     270A      2.544350   271A      2.569031   272A      2.571296  
     273A      2.581833   274A      2.592022   275A      2.600468  
     276A      2.605995   277A      2.632357   278A      2.662048  
     279A      2.664872   280A      2.675287   281A      2.682383  
     282A      2.698101   283A      2.713511   284A      2.730681  
     285A      2.731597   286A      2.764203   287A      2.773355  
     288A      2.779567   289A      2.829034   290A      2.915028  
     291A      2.940475   292A      2.982190   293A      2.984745  
     294A      2.997571   295A      3.007532   296A      3.033802  
     297A      3.036245   298A      3.054825   299A      3.067144  
     300A      3.090419   301A      3.096012   302A      3.102707  
     303A      3.121378   304A      3.137277   305A      3.144632  
     306A      3.168612   307A      3.180946   308A      3.204337  
     309A      3.212357   310A      3.220973   311A      3.250201  
     312A      3.253913   313A      3.269970   314A      3.306006  
     315A      3.322456   316A      3.353016   317A      3.425575  
     318A      3.442719   319A      3.452682   320A      3.490934  
     321A      3.502108   322A      3.541703   323A      3.679254  
     324A      3.720369   325A      3.790607   326A      3.791956  
     327A      3.813745   328A      3.838452   329A      3.869073  
     330A      3.892763   331A      3.911977   332A      3.977428  
     333A      3.981080   334A      3.985512   335A      3.986203  
     336A      3.997055   337A      4.009590   338A      4.013744  
     339A      4.014275   340A      4.029391   341A      4.038313  
     342A      4.038958   343A      4.047599   344A      4.073755  
     345A      4.091317   346A      4.092444   347A      4.103922  
     348A      4.149969   349A      4.156317   350A      4.173601  
     351A      4.185565   352A      4.186430   353A      4.197434  
     354A      4.202118   355A      4.227774   356A      4.230512  
     357A      4.247436   358A      4.262511   359A      4.265193  
     360A      4.301683   361A      4.312880   362A      4.387028  
     363A      4.430104   364A      4.431699   365A      4.458393  
     366A      4.462216   367A      4.481259   368A      4.514789  
     369A      4.519694   370A      4.624855   371A      4.701223  
     372A      4.739220   373A      4.739893   374A      4.750177  
     375A      4.751832   376A      4.759941   377A      4.765350  
     378A      4.779917   379A      4.783350   380A      4.793793  
     381A      4.815877   382A      4.826828   383A      4.852557  
     384A      4.867050   385A      4.893429   386A      4.908080  
     387A      4.920616   388A      4.933465   389A      4.944681  
     390A      4.973884   391A      4.982244   392A      4.987643  
     393A      5.114099   394A      5.118023   395A      5.162335  
     396A      5.165660   397A      5.240293   398A      5.250845  
     399A      5.279941   400A      5.313484   401A      5.333559  
     402A      5.359406   403A      5.502464   404A      5.524193  
     405A      5.602336   406A      5.606676   407A      5.828695  
     408A      5.976845   409A      5.984414   410A      6.002345  
     411A      6.218215   412A      6.280105   413A      6.401671  
     414A      6.755524   415A      7.228582   416A      7.833375  
     417A      7.858400   418A      7.918029   419A      7.960628  
     420A      8.109559   421A      9.418441   422A     13.996449  
     423A     15.895004   424A     16.478370   425A     16.706124  
     426A     28.071492   427A     28.131111   428A     28.140161  
     429A     28.157435   430A     28.225587   431A     28.227071  
     432A     28.888319   433A     28.925096   434A     29.395872  
     435A     45.626886   436A    160.989530   437A    161.053053  
     438A    161.088031  

    Final Occupation by Irrep:
              A 
    DOCC [    29 ]

  @DF-RHF Final Energy: -1417.00236570204470

   => Energetics <=

    Nuclear Repulsion Energy =            264.4189671992486410
    One-Electron Energy =               -2483.8867356740815922
    Two-Electron Energy =                 802.4654027727883658
    Total Energy =                      -1417.0023657020446990

Computation Completed


Properties will be evaluated at   0.000000,  -0.000000,   0.000000 [a0]

Properties computed using the SCF density matrix

  Nuclear Dipole Moment: [e a0]
     X:  -110.9582      Y:   253.6312      Z:   -56.4333

  Electronic Dipole Moment: [e a0]
     X:   110.9509      Y:  -253.6322      Z:    56.9021

  Dipole Moment: [e a0]
     X:    -0.0073      Y:    -0.0010      Z:     0.4688     Total:     0.4688

  Dipole Moment: [D]
     X:    -0.0185      Y:    -0.0026      Z:     1.1916     Total:     1.1917


*** tstop() called on node37.bme.utexas.edu at Tue Feb 22 18:54:34 2022
Module time:
	user time   =     114.91 seconds =       1.92 minutes
	system time =       7.96 seconds =       0.13 minutes
	total time  =         40 seconds =       0.67 minutes
Total time:
	user time   =     233.71 seconds =       3.90 minutes
	system time =      16.59 seconds =       0.28 minutes
	total time  =         83 seconds =       1.38 minutes

*** tstart() called on node37.bme.utexas.edu
*** at Tue Feb 22 18:54:34 2022


  //>>>>>>>>>>>>>>>>>>>>>>>>>>>>>>>>>>>//
  //               DFMP2               //
  //<<<<<<<<<<<<<<<<<<<<<<<<<<<<<<<<<<<//

   => Loading Basis Set <=

    Name: (AUG-CC-PVTZ AUX)
    Role: RIFIT
    Keyword: DF_BASIS_MP2
    atoms 1-3, 6-8 entry CL         line   742 file /home/bdw2292/miniconda3/envs/amoebamdpoltype/share/psi4/basis/aug-cc-pvtz-ri.gbs 
    atoms 4, 9     entry C          line   148 file /home/bdw2292/miniconda3/envs/amoebamdpoltype/share/psi4/basis/aug-cc-pvtz-ri.gbs 
    atoms 5, 10    entry H          line    30 file /home/bdw2292/miniconda3/envs/amoebamdpoltype/share/psi4/basis/aug-cc-pvtz-ri.gbs 

	 --------------------------------------------------------
	                          DF-MP2                         
	      2nd-Order Density-Fitted Moller-Plesset Theory     
	              RMP2 Wavefunction,   4 Threads             
	                                                         
	        Rob Parrish, Justin Turney, Andy Simmonett,      
	           Ed Hohenstein, and C. David Sherrill          
	 --------------------------------------------------------

   => Auxiliary Basis Set <=

  Basis Set: (AUG-CC-PVTZ AUX)
    Blend: AUG-CC-PVTZ-RI
    Number of shells: 306
    Number of basis function: 1186
    Number of Cartesian functions: 1528
    Spherical Harmonics?: true
    Max angular momentum: 4

	 --------------------------------------------------------
	                 NBF =   438, NAUX =  1186
	 --------------------------------------------------------
	   CLASS    FOCC     OCC    AOCC    AVIR     VIR    FVIR
	   PAIRS      16      29      13     409     409       0
	 --------------------------------------------------------

	-----------------------------------------------------------
	 ==================> DF-MP2 Energies <==================== 
	-----------------------------------------------------------
	 Reference Energy          =   -1417.0023657020446990 [Eh]
	 Singles Energy            =      -0.0000000000000000 [Eh]
	 Same-Spin Energy          =      -0.1912012930152294 [Eh]
	 Opposite-Spin Energy      =      -0.5656023929745047 [Eh]
	 Correlation Energy        =      -0.7568036859897340 [Eh]
	 Total Energy              =   -1417.7591693880344792 [Eh]
	-----------------------------------------------------------
	 ================> DF-SCS-MP2 Energies <================== 
	-----------------------------------------------------------
	 SCS Same-Spin Scale       =       0.3333333333333333 [-]
	 SCS Opposite-Spin Scale   =       1.2000000000000000 [-]
	 SCS Same-Spin Energy      =      -0.0637337643384098 [Eh]
	 SCS Opposite-Spin Energy  =      -0.6787228715694056 [Eh]
	 SCS Correlation Energy    =      -0.7424566359078154 [Eh]
	 SCS Total Energy          =   -1417.7448223379524279 [Eh]
	-----------------------------------------------------------


*** tstop() called on node37.bme.utexas.edu at Tue Feb 22 18:54:55 2022
Module time:
	user time   =      49.58 seconds =       0.83 minutes
	system time =       2.38 seconds =       0.04 minutes
	total time  =         21 seconds =       0.35 minutes
Total time:
	user time   =     283.29 seconds =       4.72 minutes
	system time =      18.97 seconds =       0.32 minutes
	total time  =        104 seconds =       1.73 minutes

  //>>>>>>>>>>>>>>>>>>>>>>>>>>>>>>>>>>>>//
  // CBS Computation: MP2 / AUG-CC-PVQZ //
  //<<<<<<<<<<<<<<<<<<<<<<<<<<<<<<<<<<<<//

    SCF Algorithm Type (re)set to DF.

*** tstart() called on node37.bme.utexas.edu
*** at Tue Feb 22 18:54:55 2022

   => Loading Basis Set <=

    Name: AUG-CC-PVQZ
    Role: ORBITAL
    Keyword: BASIS
    atoms 1-3, 6-8 entry CL         line  1218 file /home/bdw2292/miniconda3/envs/amoebamdpoltype/share/psi4/basis/aug-cc-pvqz.gbs 
    atoms 4, 9     entry C          line   299 file /home/bdw2292/miniconda3/envs/amoebamdpoltype/share/psi4/basis/aug-cc-pvqz.gbs 
    atoms 5, 10    entry H          line    36 file /home/bdw2292/miniconda3/envs/amoebamdpoltype/share/psi4/basis/aug-cc-pvqz.gbs 


         ---------------------------------------------------------
                                   SCF
               by Justin Turney, Rob Parrish, Andy Simmonett
                          and Daniel G. A. Smith
                              RHF Reference
                        4 Threads,  14305 MiB Core
         ---------------------------------------------------------

  ==> Geometry <==

    Molecular point group: c1
    Full point group: C1

    Geometry (in Angstrom), charge = 0, multiplicity = 1:

       Center              X                  Y                   Z               Mass       
    ------------   -----------------  -----------------  -----------------  -----------------
      Gh(CL)          0.333560221377    -0.798133387172     0.288290236130    34.968852682000
      Gh(CL)          2.680762921377    -2.478565287172     0.613707336130    34.968852682000
      Gh(CL)          0.039020021377    -3.681220787172     0.484741936130    34.968852682000
      Gh(C)           0.973520921377    -2.278605287172     0.991472036130    12.000000000000
      Gh(H)           0.883059121377    -2.195641487172     2.074486636130     1.007825032230
         CL          -1.682351178623     3.851503612828    -0.604257063870    34.968852682000
         CL           0.655448721377     2.126781712828    -0.572697763870    34.968852682000
         CL          -2.006335878623     0.964546212828    -0.616955863870    34.968852682000
         C           -1.019279478623     2.312987812828    -0.065225763870    12.000000000000
         H           -1.035803978623     2.309765512828     1.024616636130     1.007825032230

  Running in c1 symmetry.

  Rotational constants: A =      0.05395  B =      0.00898  C =      0.00782 [cm^-1]
  Rotational constants: A =   1617.45063  B =    269.26558  C =    234.56251 [MHz]
  Nuclear repulsion =  264.418967199248641

  Charge       = 0
  Multiplicity = 1
  Electrons    = 58
  Nalpha       = 29
  Nbeta        = 29

  ==> Algorithm <==

  SCF Algorithm Type is DF.
  DIIS enabled.
  MOM disabled.
  Fractional occupation disabled.
  Guess Type is SAD.
  Energy threshold   = 1.00e-08
  Density threshold  = 1.00e-08
  Integral threshold = 0.00e+00

  ==> Primary Basis <==

  Basis Set: AUG-CC-PVQZ
    Blend: AUG-CC-PVQZ
    Number of shells: 200
    Number of basis function: 756
    Number of Cartesian functions: 974
    Spherical Harmonics?: true
    Max angular momentum: 4

   => Loading Basis Set <=

    Name: (AUG-CC-PVQZ AUX)
    Role: JKFIT
    Keyword: DF_BASIS_SCF
    atoms 1-3, 6-8 entry CL         line   904 file /home/bdw2292/miniconda3/envs/amoebamdpoltype/share/psi4/basis/aug-cc-pvqz-jkfit.gbs 
    atoms 4, 9     entry C          line   178 file /home/bdw2292/miniconda3/envs/amoebamdpoltype/share/psi4/basis/aug-cc-pvqz-jkfit.gbs 
    atoms 5, 10    entry H          line    70 file /home/bdw2292/miniconda3/envs/amoebamdpoltype/share/psi4/basis/aug-cc-pvqz-jkfit.gbs 

  ==> Pre-Iterations <==

   -------------------------------------------------------
    Irrep   Nso     Nmo     Nalpha   Nbeta   Ndocc  Nsocc
   -------------------------------------------------------
     A        756     756       0       0       0       0
   -------------------------------------------------------
    Total     756     756      29      29      29       0
   -------------------------------------------------------

  ==> Integral Setup <==

  DFHelper Memory: AOs need 5.817 GiB; user supplied 10.477 GiB. Using in-core AOs.

  ==> MemDFJK: Density-Fitted J/K Matrices <==

    J tasked:                   Yes
    K tasked:                   Yes
    wK tasked:                   No
    OpenMP threads:               4
    Memory [MiB]:             10728
    Algorithm:                 Disk
    Schwarz Cutoff:           1E-12
    Mask sparsity (%):      13.9687
    Fitting Condition:        1E-10

   => Auxiliary Basis Set <=

  Basis Set: (AUG-CC-PVQZ AUX)
    Blend: AUG-CC-PVQZ-JKFIT
    Number of shells: 380
    Number of basis function: 1540
    Number of Cartesian functions: 2080
    Spherical Harmonics?: true
    Max angular momentum: 5

  Minimum eigenvalue in the overlap matrix is 8.8368512406E-06.
  Using Symmetric Orthogonalization.

  SCF Guess: Superposition of Atomic Densities via on-the-fly atomic UHF.

  ==> Iterations <==

                           Total Energy        Delta E     RMS |[F,P]|

   @DF-RHF iter SAD: -1416.93079656591453   -1.41693e+03   0.00000e+00 
   @DF-RHF iter   1: -1416.96188498797369   -3.10884e-02   4.09640e-04 DIIS
   @DF-RHF iter   2: -1416.99653767508585   -3.46527e-02   2.64464e-04 DIIS
   @DF-RHF iter   3: -1417.01390334011467   -1.73657e-02   5.43739e-05 DIIS
   @DF-RHF iter   4: -1417.01557327975843   -1.66994e-03   1.70897e-05 DIIS
   @DF-RHF iter   5: -1417.01578416650682   -2.10887e-04   4.11423e-06 DIIS
   @DF-RHF iter   6: -1417.01579865498684   -1.44885e-05   9.02855e-07 DIIS
   @DF-RHF iter   7: -1417.01579923768509   -5.82698e-07   2.56257e-07 DIIS
   @DF-RHF iter   8: -1417.01579927983403   -4.21489e-08   7.16547e-08 DIIS
   @DF-RHF iter   9: -1417.01579928377237   -3.93834e-09   1.81047e-08 DIIS
   @DF-RHF iter  10: -1417.01579928413389   -3.61524e-10   5.57427e-09 DIIS
  Energy and wave function converged.


  ==> Post-Iterations <==

    Orbital Energies [Eh]
    ---------------------

    Doubly Occupied:                                                      

       1A   -104.864589     2A   -104.864566     3A   -104.864564  
       4A    -11.431669     5A    -10.590383     6A    -10.590362  
       7A    -10.590351     8A     -8.057414     9A     -8.057392  
      10A     -8.057388    11A     -8.055449    12A     -8.055426  
      13A     -8.055423    14A     -8.055396    15A     -8.055373  
      16A     -8.055370    17A     -1.244970    18A     -1.116014  
      19A     -1.115986    20A     -0.872803    21A     -0.682485  
      22A     -0.628600    23A     -0.628573    24A     -0.504850  
      25A     -0.504826    26A     -0.468940    27A     -0.468909  
      28A     -0.463892    29A     -0.451328  

    Virtual:                                                              

      30A      0.021227    31A      0.034837    32A      0.045051  
      33A      0.046274    34A      0.058901    35A      0.060901  
      36A      0.065456    37A      0.079916    38A      0.085389  
      39A      0.086089    40A      0.090811    41A      0.095939  
      42A      0.097737    43A      0.101840    44A      0.106538  
      45A      0.111778    46A      0.120679    47A      0.122108  
      48A      0.126616    49A      0.129386    50A      0.129914  
      51A      0.144852    52A      0.146988    53A      0.149728  
      54A      0.150577    55A      0.156008    56A      0.162010  
      57A      0.164064    58A      0.169046    59A      0.175379  
      60A      0.180321    61A      0.180395    62A      0.193079  
      63A      0.210108    64A      0.224102    65A      0.235748  
      66A      0.237269    67A      0.241145    68A      0.256133  
      69A      0.258595    70A      0.265770    71A      0.267670  
      72A      0.270875    73A      0.276883    74A      0.286768  
      75A      0.294834    76A      0.297153    77A      0.299212  
      78A      0.309128    79A      0.311212    80A      0.312096  
      81A      0.314820    82A      0.318246    83A      0.326325  
      84A      0.333485    85A      0.335335    86A      0.339190  
      87A      0.340518    88A      0.342808    89A      0.346336  
      90A      0.350026    91A      0.356856    92A      0.361108  
      93A      0.361829    94A      0.369534    95A      0.371414  
      96A      0.379639    97A      0.383927    98A      0.386007  
      99A      0.392377   100A      0.393435   101A      0.400764  
     102A      0.405742   103A      0.412908   104A      0.419122  
     105A      0.434412   106A      0.435139   107A      0.440437  
     108A      0.452692   109A      0.453382   110A      0.465613  
     111A      0.480051   112A      0.481622   113A      0.484056  
     114A      0.485189   115A      0.511831   116A      0.517583  
     117A      0.528559   118A      0.530339   119A      0.534080  
     120A      0.549630   121A      0.559082   122A      0.559519  
     123A      0.564768   124A      0.565797   125A      0.569337  
     126A      0.578795   127A      0.584720   128A      0.591520  
     129A      0.593050   130A      0.603999   131A      0.609035  
     132A      0.611695   133A      0.613419   134A      0.618132  
     135A      0.627375   136A      0.628846   137A      0.640513  
     138A      0.644919   139A      0.653411   140A      0.661876  
     141A      0.665327   142A      0.673320   143A      0.676516  
     144A      0.688224   145A      0.692509   146A      0.704759  
     147A      0.720079   148A      0.722530   149A      0.733943  
     150A      0.737256   151A      0.753488   152A      0.761130  
     153A      0.778180   154A      0.779986   155A      0.805035  
     156A      0.807308   157A      0.808495   158A      0.815184  
     159A      0.831030   160A      0.831943   161A      0.850022  
     162A      0.854410   163A      0.863372   164A      0.866347  
     165A      0.870433   166A      0.882426   167A      0.882839  
     168A      0.885637   169A      0.894416   170A      0.904480  
     171A      0.911115   172A      0.913977   173A      0.918833  
     174A      0.920620   175A      0.938179   176A      0.940499  
     177A      0.948846   178A      0.953144   179A      0.965156  
     180A      0.972063   181A      0.977413   182A      0.981859  
     183A      0.984651   184A      0.994537   185A      1.004145  
     186A      1.005860   187A      1.020587   188A      1.023708  
     189A      1.027352   190A      1.029897   191A      1.038737  
     192A      1.041163   193A      1.051344   194A      1.060303  
     195A      1.071597   196A      1.074231   197A      1.076712  
     198A      1.084343   199A      1.086388   200A      1.092641  
     201A      1.094931   202A      1.100489   203A      1.106842  
     204A      1.108164   205A      1.118207   206A      1.120022  
     207A      1.131585   208A      1.136138   209A      1.143078  
     210A      1.147091   211A      1.151077   212A      1.152332  
     213A      1.159041   214A      1.174366   215A      1.176486  
     216A      1.185788   217A      1.187787   218A      1.192391  
     219A      1.193619   220A      1.201044   221A      1.204021  
     222A      1.228436   223A      1.230461   224A      1.233769  
     225A      1.242137   226A      1.251129   227A      1.257392  
     228A      1.258611   229A      1.262950   230A      1.271591  
     231A      1.276763   232A      1.281656   233A      1.286510  
     234A      1.299246   235A      1.315589   236A      1.316959  
     237A      1.332411   238A      1.335411   239A      1.351557  
     240A      1.353994   241A      1.359066   242A      1.361887  
     243A      1.389680   244A      1.400033   245A      1.408199  
     246A      1.409641   247A      1.413195   248A      1.456822  
     249A      1.481161   250A      1.499922   251A      1.517062  
     252A      1.535908   253A      1.560098   254A      1.569735  
     255A      1.573978   256A      1.576419   257A      1.592418  
     258A      1.599379   259A      1.612286   260A      1.614833  
     261A      1.635129   262A      1.636596   263A      1.658090  
     264A      1.668181   265A      1.693665   266A      1.709120  
     267A      1.723701   268A      1.725721   269A      1.753692  
     270A      1.762293   271A      1.766697   272A      1.788444  
     273A      1.792989   274A      1.796157   275A      1.797628  
     276A      1.806431   277A      1.814995   278A      1.823281  
     279A      1.825055   280A      1.843454   281A      1.858121  
     282A      1.865005   283A      1.867321   284A      1.874757  
     285A      1.883179   286A      1.905433   287A      1.908733  
     288A      1.911239   289A      1.926755   290A      1.927966  
     291A      1.932102   292A      1.945463   293A      1.957188  
     294A      1.961149   295A      1.969140   296A      1.971325  
     297A      1.985734   298A      1.988578   299A      1.993855  
     300A      1.999261   301A      2.011128   302A      2.018028  
     303A      2.031951   304A      2.036355   305A      2.042249  
     306A      2.063130   307A      2.064793   308A      2.076672  
     309A      2.086829   310A      2.093416   311A      2.097546  
     312A      2.102156   313A      2.120961   314A      2.122634  
     315A      2.125288   316A      2.132053   317A      2.133013  
     318A      2.150260   319A      2.152236   320A      2.160815  
     321A      2.169347   322A      2.172184   323A      2.182171  
     324A      2.189848   325A      2.192173   326A      2.195017  
     327A      2.200188   328A      2.217984   329A      2.223212  
     330A      2.225032   331A      2.230007   332A      2.241939  
     333A      2.245092   334A      2.249777   335A      2.250437  
     336A      2.257145   337A      2.266820   338A      2.281203  
     339A      2.282846   340A      2.289959   341A      2.291576  
     342A      2.297829   343A      2.310561   344A      2.324537  
     345A      2.329694   346A      2.346598   347A      2.347900  
     348A      2.358729   349A      2.361737   350A      2.377211  
     351A      2.378355   352A      2.390810   353A      2.399059  
     354A      2.406001   355A      2.422781   356A      2.428286  
     357A      2.429144   358A      2.437185   359A      2.438675  
     360A      2.443707   361A      2.452256   362A      2.457782  
     363A      2.467156   364A      2.475848   365A      2.479717  
     366A      2.482381   367A      2.483895   368A      2.488624  
     369A      2.490883   370A      2.493314   371A      2.505694  
     372A      2.507135   373A      2.518963   374A      2.532876  
     375A      2.544646   376A      2.545924   377A      2.554340  
     378A      2.556870   379A      2.573306   380A      2.575479  
     381A      2.579347   382A      2.586843   383A      2.591001  
     384A      2.597978   385A      2.605113   386A      2.618625  
     387A      2.624272   388A      2.632883   389A      2.637273  
     390A      2.656928   391A      2.663337   392A      2.668899  
     393A      2.671305   394A      2.679419   395A      2.681646  
     396A      2.706997   397A      2.709678   398A      2.728777  
     399A      2.731262   400A      2.749591   401A      2.780744  
     402A      2.783968   403A      2.789368   404A      2.800084  
     405A      2.826316   406A      2.835522   407A      2.847080  
     408A      2.876320   409A      2.880381   410A      2.881935  
     411A      2.889910   412A      2.900867   413A      2.911456  
     414A      2.926075   415A      2.928808   416A      2.941020  
     417A      2.965072   418A      2.974584   419A      2.991269  
     420A      2.994559   421A      3.025157   422A      3.025722  
     423A      3.036941   424A      3.045764   425A      3.057915  
     426A      3.073984   427A      3.084496   428A      3.100746  
[...]
     293A      1.672861   294A      1.702492   295A      1.712499  
     296A      1.721358   297A      1.732245   298A      1.735256  
     299A      1.738378   300A      1.753292   301A      1.753998  
     302A      1.767345   303A      1.784750   304A      1.785328  
     305A      1.795045   306A      1.798690   307A      1.805461  
     308A      1.811274   309A      1.818114   310A      1.827545  
     311A      1.828399   312A      1.832314   313A      1.843289  
     314A      1.844408   315A      1.846238   316A      1.854953  
     317A      1.867891   318A      1.875410   319A      1.877297  
     320A      1.882534   321A      1.897188   322A      1.901589  
     323A      1.905525   324A      1.909181   325A      1.923091  
     326A      1.934164   327A      1.939702   328A      1.942868  
     329A      1.952056   330A      1.957314   331A      1.962495  
     332A      1.963778   333A      1.975166   334A      1.979470  
     335A      1.986698   336A      1.993875   337A      1.998031  
     338A      2.008346   339A      2.009373   340A      2.017582  
     341A      2.023014   342A      2.028358   343A      2.034101  
     344A      2.040411   345A      2.049320   346A      2.049714  
     347A      2.056342   348A      2.064170   349A      2.066299  
     350A      2.077060   351A      2.080982   352A      2.093531  
     353A      2.108540   354A      2.115352   355A      2.122552  
     356A      2.123658   357A      2.126908   358A      2.131445  
     359A      2.132315   360A      2.143310   361A      2.149576  
     362A      2.151457   363A      2.160279   364A      2.172376  
     365A      2.173175   366A      2.178875   367A      2.188521  
     368A      2.195796   369A      2.198719   370A      2.201593  
     371A      2.211268   372A      2.212387   373A      2.216840  
     374A      2.219451   375A      2.221095   376A      2.227025  
     377A      2.233409   378A      2.234177   379A      2.242880  
     380A      2.246055   381A      2.250598   382A      2.257496  
     383A      2.261817   384A      2.263096   385A      2.270590  
     386A      2.278487   387A      2.286355   388A      2.290704  
     389A      2.294818   390A      2.298683   391A      2.305516  
     392A      2.320103   393A      2.326285   394A      2.329495  
     395A      2.330281   396A      2.338184   397A      2.352710  
     398A      2.362474   399A      2.374343   400A      2.376129  
     401A      2.380791   402A      2.388005   403A      2.404778  
     404A      2.412917   405A      2.417388   406A      2.423563  
     407A      2.428199   408A      2.434039   409A      2.435541  
     410A      2.447886   411A      2.457255   412A      2.467792  
     413A      2.471680   414A      2.477135   415A      2.484291  
     416A      2.486801   417A      2.498985   418A      2.506781  
     419A      2.521212   420A      2.526552   421A      2.530642  
     422A      2.536031   423A      2.542336   424A      2.553306  
     425A      2.567115   426A      2.576738   427A      2.583361  
     428A      2.605704   429A      2.608970   430A      2.612817  
     431A      2.623012   432A      2.629395   433A      2.640094  
     434A      2.644295   435A      2.656391   436A      2.670504  
     437A      2.672640   438A      2.700797   439A      2.701889  
     440A      2.724588   441A      2.752645   442A      2.766802  
     443A      2.769249   444A      2.790323   445A      2.800416  
     446A      2.830598   447A      2.837249   448A      2.845431  
     449A      2.862283   450A      2.896609   451A      2.899484  
     452A      2.902764   453A      2.920781   454A      2.929188  
     455A      2.935511   456A      2.938570   457A      2.941649  
     458A      2.970035   459A      2.993656   460A      3.025819  
     461A      3.050974   462A      3.055475   463A      3.057032  
     464A      3.079755   465A      3.088704   466A      3.097891  
     467A      3.133341   468A      3.164357   469A      3.166592  
     470A      3.170565   471A      3.210093   472A      3.229475  
     473A      3.231454   474A      3.257977   475A      3.316576  
     476A      3.335843   477A      3.352544   478A      3.353566  
     479A      3.374597   480A      3.376121   481A      3.404135  
     482A      3.407619   483A      3.409501   484A      3.450028  
     485A      3.450890   486A      3.487807   487A      3.491239  
     488A      3.503033   489A      3.517657   490A      3.533246  
     491A      3.543072   492A      3.567744   493A      3.578379  
     494A      3.580632   495A      3.607532   496A      3.623226  
     497A      3.639949   498A      3.650609   499A      3.664177  
     500A      3.758512   501A      3.770055   502A      3.778875  
     503A      3.781140   504A      3.783711   505A      3.798179  
     506A      3.830541   507A      3.862674   508A      3.912371  
     509A      3.917603   510A      3.933555   511A      3.980174  
     512A      3.992468   513A      4.010221   514A      4.027109  
     515A      4.082934   516A      4.098754   517A      4.261279  
     518A      4.271956   519A      4.309244   520A      4.340315  
     521A      4.343340   522A      4.356502   523A      4.435614  
     524A      4.441748   525A      4.454894   526A      4.467119  
     527A      4.480523   528A      4.491362   529A      4.502298  
     530A      4.530110   531A      4.545293   532A      4.545993  
     533A      4.584732   534A      4.601314   535A      4.603032  
     536A      4.616237   537A      4.619898   538A      4.640819  
     539A      4.649026   540A      4.659316   541A      4.668669  
     542A      4.670153   543A      4.679227   544A      4.701607  
     545A      4.702315   546A      4.705051   547A      4.714722  
     548A      4.717800   549A      4.723418   550A      4.732150  
     551A      4.736434   552A      4.737078   553A      4.739601  
     554A      4.743044   555A      4.754350   556A      4.754701  
     557A      4.761058   558A      4.765699   559A      4.770403  
     560A      4.772262   561A      4.775286   562A      4.775798  
     563A      4.787305   564A      4.788516   565A      4.789078  
     566A      4.793930   567A      4.795881   568A      4.803997  
     569A      4.820190   570A      4.826116   571A      4.829582  
     572A      4.830913   573A      4.835909   574A      4.837538  
     575A      4.839974   576A      4.850201   577A      4.858415  
     578A      4.861365   579A      4.868098   580A      4.869321  
     581A      4.881390   582A      4.893068   583A      4.895831  
     584A      4.897552   585A      4.910353   586A      4.913720  
     587A      4.920034   588A      4.924577   589A      4.925087  
     590A      4.932272   591A      4.937440   592A      4.945802  
     593A      4.947053   594A      4.953115   595A      4.969317  
     596A      4.972429   597A      4.976181   598A      4.979789  
     599A      4.989406   600A      4.993955   601A      4.995128  
     602A      5.006699   603A      5.011192   604A      5.013688  
     605A      5.033659   606A      5.039975   607A      5.059493  
     608A      5.062246   609A      5.067960   610A      5.077317  
     611A      5.081451   612A      5.094867   613A      5.095797  
     614A      5.111821   615A      5.118257   616A      5.127156  
     617A      5.143992   618A      5.161407   619A      5.177800  
     620A      5.192533   621A      5.207220   622A      5.208702  
     623A      5.236222   624A      5.237711   625A      5.269015  
     626A      5.272933   627A      5.292585   628A      5.301685  
     629A      5.322274   630A      5.329230   631A      5.349247  
     632A      5.358503   633A      5.364413   634A      5.383441  
     635A      5.412644   636A      5.413454   637A      5.454538  
     638A      5.461738   639A      5.486961   640A      5.496899  
     641A      5.524983   642A      5.528922   643A      5.550859  
     644A      5.581404   645A      5.592086   646A      5.596135  
     647A      5.599080   648A      5.767722   649A      5.806101  
     650A      5.830550   651A      6.476879   652A      6.486762  
     653A      6.487132   654A      6.499953   655A      6.506193  
     656A      6.520034   657A      6.522317   658A      6.533634  
     659A      6.536373   660A      6.574394   661A      6.695564  
     662A      6.719618   663A      6.722223   664A      6.723712  
     665A      6.730269   666A      6.740265   667A      6.749059  
     668A      6.767637   669A      6.830496   670A      6.831582  
     671A      6.848426   672A      6.850682   673A      6.866183  
     674A      6.870168   675A      6.900828   676A      6.915433  
     677A      6.916768   678A      6.931074   679A      6.962501  
     680A      6.962902   681A      6.994260   682A      6.994845  
     683A      7.017816   684A      7.041097   685A      7.103603  
     686A      7.110649   687A      7.205022   688A      7.210879  
     689A      7.220017   690A      7.221951   691A      7.244183  
     692A      7.266466   693A      7.269623   694A      7.290736  
     695A      7.398909   696A      7.406833   697A      7.411614  
     698A      7.422727   699A      7.453373   700A      7.484919  
     701A      7.539261   702A      7.541463   703A      7.624583  
     704A      7.634995   705A      7.664930   706A      7.667761  
     707A      7.741475   708A      7.746878   709A      7.773124  
     710A      7.812549   711A      7.834180   712A      7.871675  
     713A      7.909656   714A      7.937437   715A      8.009522  
     716A      8.027034   717A      8.033148   718A      8.100616  
     719A      8.370915   720A      8.394367   721A      8.616598  
     722A      8.630641   723A      8.641857   724A      8.683331  
     725A      8.713907   726A      8.723631   727A      8.724186  
     728A      8.760591   729A      8.865769   730A      8.911587  
     731A      9.331567   732A      9.337602   733A      9.349929  
     734A      9.359335   735A      9.558793   736A      9.566216  
     737A      9.717234   738A      9.739658   739A      9.742988  
     740A      9.785969   741A     10.429231   742A     10.435024  
     743A     10.435674   744A     10.441382   745A     10.696893  
     746A     10.705173   747A     12.948569   748A     12.969444  
     749A     25.595998   750A     25.714345   751A     26.718162  
     752A     26.896553   753A     26.955371   754A     27.048593  
     755A     27.442197   756A     27.558768  

    Final Occupation by Irrep:
              A 
    DOCC [    58 ]

  @DF-RHF Final Energy: -2834.01691949040378

   => Energetics <=

    Nuclear Repulsion Energy =            887.9102755631977288
    One-Electron Energy =               -5686.2328004139826589
    Two-Electron Energy =                1964.3056053603813780
    Total Energy =                      -2834.0169194904037795

Computation Completed


Properties will be evaluated at   0.000000,  -0.000000,   0.000000 [a0]

Properties computed using the SCF density matrix

  Nuclear Dipole Moment: [e a0]
     X:    -0.1616      Y:     0.1208      Z:     3.2781

  Electronic Dipole Moment: [e a0]
     X:     0.0921      Y:    -0.0305      Z:    -2.4031

  Dipole Moment: [e a0]
     X:    -0.0695      Y:     0.0903      Z:     0.8750     Total:     0.8824

  Dipole Moment: [D]
     X:    -0.1768      Y:     0.2295      Z:     2.2239     Total:     2.2427


*** tstop() called on node37.bme.utexas.edu at Tue Feb 22 19:14:04 2022
Module time:
	user time   =     656.41 seconds =      10.94 minutes
	system time =     107.11 seconds =       1.79 minutes
	total time  =        277 seconds =       4.62 minutes
Total time:
	user time   =    2908.34 seconds =      48.47 minutes
	system time =     372.71 seconds =       6.21 minutes
	total time  =       1253 seconds =      20.88 minutes

*** tstart() called on node37.bme.utexas.edu
*** at Tue Feb 22 19:14:04 2022


  //>>>>>>>>>>>>>>>>>>>>>>>>>>>>>>>>>>>//
  //               DFMP2               //
  //<<<<<<<<<<<<<<<<<<<<<<<<<<<<<<<<<<<//

   => Loading Basis Set <=

    Name: (AUG-CC-PVQZ AUX)
    Role: RIFIT
    Keyword: DF_BASIS_MP2
    atoms 1-3, 6-8 entry CL         line   914 file /home/bdw2292/miniconda3/envs/amoebamdpoltype/share/psi4/basis/aug-cc-pvqz-ri.gbs 
    atoms 4, 9     entry C          line   184 file /home/bdw2292/miniconda3/envs/amoebamdpoltype/share/psi4/basis/aug-cc-pvqz-ri.gbs 
    atoms 5, 10    entry H          line    30 file /home/bdw2292/miniconda3/envs/amoebamdpoltype/share/psi4/basis/aug-cc-pvqz-ri.gbs 

	 --------------------------------------------------------
	                          DF-MP2                         
	      2nd-Order Density-Fitted Moller-Plesset Theory     
	              RMP2 Wavefunction,   4 Threads             
	                                                         
	        Rob Parrish, Justin Turney, Andy Simmonett,      
	           Ed Hohenstein, and C. David Sherrill          
	 --------------------------------------------------------

   => Auxiliary Basis Set <=

  Basis Set: (AUG-CC-PVQZ AUX)
    Blend: AUG-CC-PVQZ-RI
    Number of shells: 376
    Number of basis function: 1660
    Number of Cartesian functions: 2292
    Spherical Harmonics?: true
    Max angular momentum: 5

	 --------------------------------------------------------
	                 NBF =   756, NAUX =  1660
	 --------------------------------------------------------
	   CLASS    FOCC     OCC    AOCC    AVIR     VIR    FVIR
	   PAIRS      32      58      26     698     698       0
	 --------------------------------------------------------

	-----------------------------------------------------------
	 ==================> DF-MP2 Energies <==================== 
	-----------------------------------------------------------
	 Reference Energy          =   -2834.0169194904037795 [Eh]
	 Singles Energy            =      -0.0000000000000000 [Eh]
	 Same-Spin Energy          =      -0.4004503170088426 [Eh]
	 Opposite-Spin Energy      =      -1.2429999255164303 [Eh]
	 Correlation Energy        =      -1.6434502425252731 [Eh]
	 Total Energy              =   -2835.6603697329292118 [Eh]
	-----------------------------------------------------------
	 ================> DF-SCS-MP2 Energies <================== 
	-----------------------------------------------------------
	 SCS Same-Spin Scale       =       0.3333333333333333 [-]
	 SCS Opposite-Spin Scale   =       1.2000000000000000 [-]
	 SCS Same-Spin Energy      =      -0.1334834390029475 [Eh]
	 SCS Opposite-Spin Energy  =      -1.4915999106197164 [Eh]
	 SCS Correlation Energy    =      -1.6250833496226640 [Eh]
	 SCS Total Energy          =   -2835.6420028400266347 [Eh]
	-----------------------------------------------------------


*** tstop() called on node37.bme.utexas.edu at Tue Feb 22 19:15:15 2022
Module time:
	user time   =     208.60 seconds =       3.48 minutes
	system time =      10.03 seconds =       0.17 minutes
	total time  =         71 seconds =       1.18 minutes
Total time:
	user time   =    3116.94 seconds =      51.95 minutes
	system time =     382.74 seconds =       6.38 minutes
	total time  =       1324 seconds =      22.07 minutes

  //>>>>>>>>>>>>>>>>>>>>>>>>>>>>>>>>>>>//
  //  CBS Results: mp2/aug-cc-pV[TQ]Z  //
  //<<<<<<<<<<<<<<<<<<<<<<<<<<<<<<<<<<<//


   ==> HF <==

   HI-zeta (4) Energy:               -2834.016919490404


   ==> Helgaker 2-point correlated extrapolation for method: MP2 <==

   LO-zeta (3) Energy:               -2835.514706889227
   HI-zeta (4) Energy:               -2835.660369732929
   Alpha (exponent) Value:             3.000000000000
   Extrapolated Energy:              -2835.766664240496

   @Extrapolated MP2/(T,Q):          -2835.766664240496



   ==> Helgaker 2-point correlated extrapolation for method: HF <==

   LO-zeta (3) Energy:               -2833.989942274073
   HI-zeta (4) Energy:               -2834.016919490404
   Alpha (exponent) Value:             3.000000000000
   Extrapolated Energy:              -2834.036605567186

   @Extrapolated HF/(T,Q):           -2834.036605567186


   ==> Components <==

  ---------------------------------------------------------------------------------------------------------
                          Method / Basis                      Rqd      Energy [Eh]   Variable
  ---------------------------------------------------------------------------------------------------------
                              hf / aug-cc-pvtz                  *   -2833.98994227   HF TOTAL ENERGY
                             mp2 / aug-cc-pvtz                  *   -2835.51470689   MP2 TOTAL ENERGY
                              hf / aug-cc-pvqz                  *   -2834.01691949   HF TOTAL ENERGY
                             mp2 / aug-cc-pvqz                  *   -2835.66036973   MP2 TOTAL ENERGY
  ---------------------------------------------------------------------------------------------------------

   ==> Stages <==

  ---------------------------------------------------------------------------------------------------------
      Stage               Method / Basis                       Wt      Energy [Eh]   Scheme
  ---------------------------------------------------------------------------------------------------------
        scf                   hf / aug-cc-pvqz                  1   -2834.01691949   xtpl_highest_1
       corl                  mp2 / aug-cc-pv[tq]z               1   -2835.76666424   corl_xtpl_helgaker_2
       corl                   hf / aug-cc-pv[tq]z              -1   -2834.03660557   corl_xtpl_helgaker_2
  ---------------------------------------------------------------------------------------------------------

   ==> CBS <==

  ---------------------------------------------------------------------------------------------------------
      Stage               Method / Basis                               Energy [Eh]   Scheme
  ---------------------------------------------------------------------------------------------------------
        scf                   hf / aug-cc-pvqz                      -2834.01691949   xtpl_highest_1
       corl                  mp2 / aug-cc-pv[tq]z                      -1.73005867   corl_xtpl_helgaker_2
      total                  CBS                                    -2835.74697816   
  ---------------------------------------------------------------------------------------------------------
   => Loading Basis Set <=

    Name: DEF2-SVP
    Role: ORBITAL
    Keyword: BASIS
    atoms 1-3, 6-8 entry CL         line   356 file /home/bdw2292/miniconda3/envs/amoebamdpoltype/share/psi4/basis/def2-svp.gbs 
    atoms 4, 9     entry C          line    90 file /home/bdw2292/miniconda3/envs/amoebamdpoltype/share/psi4/basis/def2-svp.gbs 
    atoms 5, 10    entry H          line    15 file /home/bdw2292/miniconda3/envs/amoebamdpoltype/share/psi4/basis/def2-svp.gbs 


       N-Body: Complex Energy (fragments = (1, 2), basis = (1, 2): -2835.74697816371327)

   ==> N-Body: Counterpoise Corrected (CP) energies <==

   n-Body     Total Energy [Eh]       I.E. [kcal/mol]      Delta [kcal/mol]
        1    -2835.748840632945        0.000000000000        0.000000000000
        2    -2835.746728989457        1.325076294375        1.325076294375

   => Loading Basis Set <=

    Name: DEF2-SVP
    Role: ORBITAL
    Keyword: BASIS
    atoms 1-3, 6-8 entry CL         line   356 file /home/bdw2292/miniconda3/envs/amoebamdpoltype/share/psi4/basis/def2-svp.gbs 
    atoms 4, 9     entry C          line    90 file /home/bdw2292/miniconda3/envs/amoebamdpoltype/share/psi4/basis/def2-svp.gbs 
    atoms 5, 10    entry H          line    15 file /home/bdw2292/miniconda3/envs/amoebamdpoltype/share/psi4/basis/def2-svp.gbs 

CP Energy =   0.002112
    Psi4 stopped on: Tuesday, 22 February 2022 07:15PM
    Psi4 wall time for execution: 0:22:05.19

*** Psi4 exiting successfully. Buy a developer a beer!
