
    -----------------------------------------------------------------------
          Psi4: An Open-Source Ab Initio Electronic Structure Package
                               Psi4 1.3.2 release

                         Git: Rev {HEAD} ecbda83 


    R. M. Parrish, L. A. Burns, D. G. A. Smith, A. C. Simmonett,
    A. E. DePrince III, E. G. Hohenstein, U. Bozkaya, A. Yu. Sokolov,
    R. Di Remigio, R. M. Richard, J. F. Gonthier, A. M. James,
    H. R. McAlexander, A. Kumar, M. Saitow, X. Wang, B. P. Pritchard,
    P. Verma, H. F. Schaefer III, K. Patkowski, R. A. King, E. F. Valeev,
    F. A. Evangelista, J. M. Turney, T. D. Crawford, and C. D. Sherrill,
    J. Chem. Theory Comput. 13(7) pp 3185--3197 (2017).
    (doi: 10.1021/acs.jctc.7b00174)


                         Additional Contributions by
    P. Kraus, H. Kruse, M. H. Lechner, M. C. Schieber, R. A. Shaw,
    A. Alenaizan, R. Galvelis, Z. L. Glick, S. Lehtola, and J. P. Misiewicz

    -----------------------------------------------------------------------


    Psi4 started on: Tuesday, 22 February 2022 06:12PM

    Process ID: 29999
    Host:       node37.bme.utexas.edu
    PSIDATADIR: /home/bdw2292/miniconda3/envs/amoebamdpoltype/share/psi4
    Memory:     500.0 MiB
    Threads:    1
    
  ==> Input File <==

--------------------------------------------------------------------------
molecule { 
0 1
 Cl                 -0.5194035     1.1727966     0.4643278
 Cl                  1.8709157    -0.4028258    -0.0239565
 Cl                 -0.7416489    -1.6718972    -0.0757464
  C                  0.2425763    -0.4027368     0.6441278
  H                  0.3224440    -0.6103714     1.7111723
--
0 1
  O                 -2.1780181     5.0969469    -1.2999708
  H                 -3.0406018     4.8690226    -1.6472475
  H                 -1.5457533     5.0658424    -2.0183825
}
memory 15GB
set_num_threads(4)
psi4_io.set_default_path("/scratch/bdw2292/Psi4-CHCl3")
set maxiter 500
set freeze_core True
set PROPERTIES_ORIGIN ["COM"]
e_dim= energy('mp2/aug-cc-pV[TQ]Z',bsse_type='cp')

psi4.print_out('CP Energy = %10.6f' % (e_dim))
clean()
--------------------------------------------------------------------------

  Memory set to  13.970 GiB by Python driver.
  Threads set to 4 by Python driver.


   ===> N-Body Interaction Abacus <===
        BSSE Treatment:                     cp
        Number of 1-body computations:     4
        Number of 2-body computations:     1

   ==> N-Body: Now computing 1-body complexes <==


       N-Body: Computing complex (1/4) with fragments (2,) in the basis of fragments (2,).


  //>>>>>>>>>>>>>>>>>>>>>>>>>>>>>>>>>>>//
  //   CBS Setup: mp2/aug-cc-pV[TQ]Z   //
  //<<<<<<<<<<<<<<<<<<<<<<<<<<<<<<<<<<<//

    Naive listing of computations required.
             hf / aug-cc-pvqz              for  HF TOTAL ENERGY
            mp2 / aug-cc-pvtz              for  MP2 TOTAL ENERGY
            mp2 / aug-cc-pvqz              for  MP2 TOTAL ENERGY
             hf / aug-cc-pvtz              for  HF TOTAL ENERGY
             hf / aug-cc-pvqz              for  HF TOTAL ENERGY

    Enlightened listing of computations required.
            mp2 / aug-cc-pvtz              for  MP2 TOTAL ENERGY
            mp2 / aug-cc-pvqz              for  MP2 TOTAL ENERGY

    Full listing of computations to be obtained (required and bonus).
             hf / aug-cc-pvtz              for  HF TOTAL ENERGY
            mp2 / aug-cc-pvtz              for  MP2 TOTAL ENERGY
             hf / aug-cc-pvqz              for  HF TOTAL ENERGY
            mp2 / aug-cc-pvqz              for  MP2 TOTAL ENERGY

  //>>>>>>>>>>>>>>>>>>>>>>>>>>>>>>>>>>>>//
  // CBS Computation: MP2 / AUG-CC-PVTZ //
  //<<<<<<<<<<<<<<<<<<<<<<<<<<<<<<<<<<<<//

    SCF Algorithm Type (re)set to DF.

*** tstart() called on node37.bme.utexas.edu
*** at Tue Feb 22 18:12:20 2022

   => Loading Basis Set <=

    Name: AUG-CC-PVTZ
    Role: ORBITAL
    Keyword: BASIS
    atoms 1   entry O          line   327 file /home/bdw2292/miniconda3/envs/amoebamdpoltype/share/psi4/basis/aug-cc-pvtz.gbs 
    atoms 2-3 entry H          line    36 file /home/bdw2292/miniconda3/envs/amoebamdpoltype/share/psi4/basis/aug-cc-pvtz.gbs 


         ---------------------------------------------------------
                                   SCF
               by Justin Turney, Rob Parrish, Andy Simmonett
                          and Daniel G. A. Smith
                              RHF Reference
                        4 Threads,  14305 MiB Core
         ---------------------------------------------------------

  ==> Geometry <==

    Molecular point group: c1
    Full point group: C1

    Geometry (in Angstrom), charge = 0, multiplicity = 1:

       Center              X                  Y                   Z               Mass       
    ------------   -----------------  -----------------  -----------------  -----------------
         O           -2.068418246238     4.695618693255    -1.283177522727    15.994914619570
         H           -2.931001946238     4.467694393255    -1.630454222727     1.007825032230
         H           -1.436153446238     4.664514193255    -2.001589222727     1.007825032230

  Running in c1 symmetry.

  Rotational constants: A =      9.81427  B =      0.03333  C =      0.03329 [cm^-1]
  Rotational constants: A = 294224.51003  B =    999.22422  C =    998.01948 [MHz]
  Nuclear repulsion =    9.183855699512678

  Charge       = 0
  Multiplicity = 1
  Electrons    = 10
  Nalpha       = 5
  Nbeta        = 5

  ==> Algorithm <==

  SCF Algorithm Type is DF.
  DIIS enabled.
  MOM disabled.
  Fractional occupation disabled.
  Guess Type is SAD.
  Energy threshold   = 1.00e-08
  Density threshold  = 1.00e-08
  Integral threshold = 0.00e+00

  ==> Primary Basis <==

  Basis Set: AUG-CC-PVTZ
    Blend: AUG-CC-PVTZ
    Number of shells: 32
    Number of basis function: 92
    Number of Cartesian functions: 105
    Spherical Harmonics?: true
    Max angular momentum: 3

   => Loading Basis Set <=

    Name: (AUG-CC-PVTZ AUX)
    Role: JKFIT
    Keyword: DF_BASIS_SCF
    atoms 1   entry O          line   286 file /home/bdw2292/miniconda3/envs/amoebamdpoltype/share/psi4/basis/aug-cc-pvtz-jkfit.gbs 
    atoms 2-3 entry H          line    70 file /home/bdw2292/miniconda3/envs/amoebamdpoltype/share/psi4/basis/aug-cc-pvtz-jkfit.gbs 

  ==> Pre-Iterations <==

   -------------------------------------------------------
    Irrep   Nso     Nmo     Nalpha   Nbeta   Ndocc  Nsocc
   -------------------------------------------------------
     A         92      92       0       0       0       0
   -------------------------------------------------------
    Total      92      92       5       5       5       0
   -------------------------------------------------------

  ==> Integral Setup <==

  DFHelper Memory: AOs need 0.015 GiB; user supplied 10.477 GiB. Using in-core AOs.

  ==> MemDFJK: Density-Fitted J/K Matrices <==

    J tasked:                   Yes
    K tasked:                   Yes
    wK tasked:                   No
    OpenMP threads:               4
    Memory [MiB]:             10728
    Algorithm:                 Core
    Schwarz Cutoff:           1E-12
    Mask sparsity (%):       0.0000
    Fitting Condition:        1E-10

   => Auxiliary Basis Set <=

  Basis Set: (AUG-CC-PVTZ AUX)
    Blend: AUG-CC-PVTZ-JKFIT
    Number of shells: 58
    Number of basis function: 196
    Number of Cartesian functions: 241
    Spherical Harmonics?: true
    Max angular momentum: 4

  Minimum eigenvalue in the overlap matrix is 3.7734299281E-04.
  Using Symmetric Orthogonalization.

  SCF Guess: Superposition of Atomic Densities via on-the-fly atomic UHF.

  ==> Iterations <==

                           Total Energy        Delta E     RMS |[F,P]|

   @DF-RHF iter SAD:   -75.47402568119800   -7.54740e+01   0.00000e+00 
   @DF-RHF iter   1:   -75.97659029762656   -5.02565e-01   5.09408e-03 DIIS
   @DF-RHF iter   2:   -76.02900879210863   -5.24185e-02   3.45195e-03 DIIS
   @DF-RHF iter   3:   -76.06003217440670   -3.10234e-02   2.34424e-04 DIIS
   @DF-RHF iter   4:   -76.06042176276605   -3.89588e-04   5.59656e-05 DIIS
   @DF-RHF iter   5:   -76.06044570208918   -2.39393e-05   1.25981e-05 DIIS
   @DF-RHF iter   6:   -76.06044765684373   -1.95475e-06   2.80359e-06 DIIS
   @DF-RHF iter   7:   -76.06044776455931   -1.07716e-07   5.29788e-07 DIIS
   @DF-RHF iter   8:   -76.06044776797214   -3.41282e-09   8.78757e-08 DIIS
   @DF-RHF iter   9:   -76.06044776804603   -7.38964e-11   2.18367e-08 DIIS
   @DF-RHF iter  10:   -76.06044776805010   -4.06430e-12   2.97833e-09 DIIS
  Energy and wave function converged.


  ==> Post-Iterations <==

    Orbital Energies [Eh]
    ---------------------

    Doubly Occupied:                                                      

       1A    -20.565507     2A     -1.350770     3A     -0.725019  
       4A     -0.577405     5A     -0.509198  

    Virtual:                                                              

       6A      0.029669     7A      0.047447     8A      0.136476  
       9A      0.157867    10A      0.174280    11A      0.182045  
      12A      0.228836    13A      0.244467    14A      0.263862  
      15A      0.304682    16A      0.313195    17A      0.365235  
      18A      0.437967    19A      0.466805    20A      0.602213  
      21A      0.654313    22A      0.711117    23A      0.719321  
      24A      0.731257    25A      0.828060    26A      0.843787  
      27A      0.890006    28A      0.912916    29A      0.920672  
      30A      0.923852    31A      0.927962    32A      0.971224  
      33A      1.023014    34A      1.045334    35A      1.085145  
      36A      1.114089    37A      1.172799    38A      1.177432  
      39A      1.259575    40A      1.514457    41A      1.563339  
      42A      1.595875    43A      1.785453    44A      1.797201  
      45A      2.003425    46A      2.115986    47A      2.259704  
      48A      2.318639    49A      2.321016    50A      2.413421  
      51A      2.414581    52A      2.438584    53A      2.471502  
      54A      2.686705    55A      2.703134    56A      2.768142  
      57A      2.856915    58A      2.883917    59A      3.645470  
      60A      3.769781    61A      4.007451    62A      4.090279  
      63A      4.211553    64A      4.231535    65A      4.335643  
      66A      4.381917    67A      4.400874    68A      4.416174  
      69A      4.493611    70A      4.707945    71A      4.813170  
      72A      5.124970    73A      5.172808    74A      5.306023  
      75A      5.330754    76A      5.513795    77A      5.721435  
      78A      6.140297    79A      6.534300    80A      6.713429  
      81A      6.859269    82A      7.146371    83A      7.262793  
      84A      7.299085    85A      7.308231    86A      7.371012  
      87A      7.387792    88A      7.558790    89A      7.898092  
      90A      7.963989    91A      8.789919    92A     15.862375  

    Final Occupation by Irrep:
              A 
    DOCC [     5 ]

  @DF-RHF Final Energy:   -76.06044776805010

   => Energetics <=

    Nuclear Repulsion Energy =              9.1838556995126783
    One-Electron Energy =                -123.0328120496623967
    Two-Electron Energy =                  37.7885085820996238
    Total Energy =                        -76.0604477680500963

Computation Completed


Properties will be evaluated at  -3.933099,   8.846043,  -2.537544 [a0]

Properties computed using the SCF density matrix

  Nuclear Dipole Moment: [e a0]
     X:    -0.1917      Y:    -0.2156      Z:    -0.8870

  Electronic Dipole Moment: [e a0]
     X:     0.0366      Y:     0.0412      Z:     0.1693

  Dipole Moment: [e a0]
     X:    -0.1551      Y:    -0.1744      Z:    -0.7176     Total:     0.7546

  Dipole Moment: [D]
     X:    -0.3943      Y:    -0.4434      Z:    -1.8240     Total:     1.9181


*** tstop() called on node37.bme.utexas.edu at Tue Feb 22 18:12:25 2022
Module time:
	user time   =       5.53 seconds =       0.09 minutes
	system time =       0.51 seconds =       0.01 minutes
	total time  =          5 seconds =       0.08 minutes
Total time:
	user time   =       5.53 seconds =       0.09 minutes
	system time =       0.51 seconds =       0.01 minutes
	total time  =          5 seconds =       0.08 minutes

*** tstart() called on node37.bme.utexas.edu
*** at Tue Feb 22 18:12:25 2022


  //>>>>>>>>>>>>>>>>>>>>>>>>>>>>>>>>>>>//
  //               DFMP2               //
  //<<<<<<<<<<<<<<<<<<<<<<<<<<<<<<<<<<<//

   => Loading Basis Set <=

    Name: (AUG-CC-PVTZ AUX)
    Role: RIFIT
    Keyword: DF_BASIS_MP2
    atoms 1   entry O          line   264 file /home/bdw2292/miniconda3/envs/amoebamdpoltype/share/psi4/basis/aug-cc-pvtz-ri.gbs 
    atoms 2-3 entry H          line    30 file /home/bdw2292/miniconda3/envs/amoebamdpoltype/share/psi4/basis/aug-cc-pvtz-ri.gbs 

	 --------------------------------------------------------
	                          DF-MP2                         
	      2nd-Order Density-Fitted Moller-Plesset Theory     
	              RMP2 Wavefunction,   4 Threads             
	                                                         
	        Rob Parrish, Justin Turney, Andy Simmonett,      
	           Ed Hohenstein, and C. David Sherrill          
	 --------------------------------------------------------

   => Auxiliary Basis Set <=

  Basis Set: (AUG-CC-PVTZ AUX)
    Blend: AUG-CC-PVTZ-RI
    Number of shells: 56
    Number of basis function: 198
    Number of Cartesian functions: 246
    Spherical Harmonics?: true
    Max angular momentum: 4

	 --------------------------------------------------------
	                 NBF =    92, NAUX =   198
	 --------------------------------------------------------
	   CLASS    FOCC     OCC    AOCC    AVIR     VIR    FVIR
	   PAIRS       1       5       4      87      87       0
	 --------------------------------------------------------

	-----------------------------------------------------------
	 ==================> DF-MP2 Energies <==================== 
	-----------------------------------------------------------
	 Reference Energy          =     -76.0604477680500963 [Eh]
	 Singles Energy            =      -0.0000000000000000 [Eh]
	 Same-Spin Energy          =      -0.0650935071323049 [Eh]
	 Opposite-Spin Energy      =      -0.2029734783201947 [Eh]
	 Correlation Energy        =      -0.2680669854524996 [Eh]
	 Total Energy              =     -76.3285147535026027 [Eh]
	-----------------------------------------------------------
	 ================> DF-SCS-MP2 Energies <================== 
	-----------------------------------------------------------
	 SCS Same-Spin Scale       =       0.3333333333333333 [-]
	 SCS Opposite-Spin Scale   =       1.2000000000000000 [-]
	 SCS Same-Spin Energy      =      -0.0216978357107683 [Eh]
	 SCS Opposite-Spin Energy  =      -0.2435681739842337 [Eh]
	 SCS Correlation Energy    =      -0.2652660096950020 [Eh]
	 SCS Total Energy          =     -76.3257137777450936 [Eh]
	-----------------------------------------------------------


*** tstop() called on node37.bme.utexas.edu at Tue Feb 22 18:12:25 2022
Module time:
	user time   =       1.55 seconds =       0.03 minutes
	system time =       0.11 seconds =       0.00 minutes
	total time  =          0 seconds =       0.00 minutes
Total time:
	user time   =       7.08 seconds =       0.12 minutes
	system time =       0.62 seconds =       0.01 minutes
	total time  =          5 seconds =       0.08 minutes

  //>>>>>>>>>>>>>>>>>>>>>>>>>>>>>>>>>>>>//
  // CBS Computation: MP2 / AUG-CC-PVQZ //
  //<<<<<<<<<<<<<<<<<<<<<<<<<<<<<<<<<<<<//

    SCF Algorithm Type (re)set to DF.

*** tstart() called on node37.bme.utexas.edu
*** at Tue Feb 22 18:12:25 2022

   => Loading Basis Set <=

    Name: AUG-CC-PVQZ
    Role: ORBITAL
    Keyword: BASIS
    atoms 1   entry O          line   419 file /home/bdw2292/miniconda3/envs/amoebamdpoltype/share/psi4/basis/aug-cc-pvqz.gbs 
    atoms 2-3 entry H          line    36 file /home/bdw2292/miniconda3/envs/amoebamdpoltype/share/psi4/basis/aug-cc-pvqz.gbs 


         ---------------------------------------------------------
                                   SCF
               by Justin Turney, Rob Parrish, Andy Simmonett
                          and Daniel G. A. Smith
                              RHF Reference
                        4 Threads,  14305 MiB Core
         ---------------------------------------------------------

  ==> Geometry <==

    Molecular point group: c1
    Full point group: C1

    Geometry (in Angstrom), charge = 0, multiplicity = 1:

       Center              X                  Y                   Z               Mass       
    ------------   -----------------  -----------------  -----------------  -----------------
         O           -2.068418246238     4.695618693255    -1.283177522727    15.994914619570
         H           -2.931001946238     4.467694393255    -1.630454222727     1.007825032230
         H           -1.436153446238     4.664514193255    -2.001589222727     1.007825032230

  Running in c1 symmetry.

  Rotational constants: A =      9.81427  B =      0.03333  C =      0.03329 [cm^-1]
  Rotational constants: A = 294224.51003  B =    999.22422  C =    998.01948 [MHz]
  Nuclear repulsion =    9.183855699512678

  Charge       = 0
  Multiplicity = 1
  Electrons    = 10
  Nalpha       = 5
  Nbeta        = 5

  ==> Algorithm <==

  SCF Algorithm Type is DF.
  DIIS enabled.
  MOM disabled.
  Fractional occupation disabled.
  Guess Type is SAD.
  Energy threshold   = 1.00e-08
  Density threshold  = 1.00e-08
  Integral threshold = 0.00e+00

  ==> Primary Basis <==

  Basis Set: AUG-CC-PVQZ
    Blend: AUG-CC-PVQZ
    Number of shells: 48
    Number of basis function: 172
    Number of Cartesian functions: 215
    Spherical Harmonics?: true
    Max angular momentum: 4

   => Loading Basis Set <=

    Name: (AUG-CC-PVQZ AUX)
    Role: JKFIT
    Keyword: DF_BASIS_SCF
    atoms 1   entry O          line   318 file /home/bdw2292/miniconda3/envs/amoebamdpoltype/share/psi4/basis/aug-cc-pvqz-jkfit.gbs 
    atoms 2-3 entry H          line    70 file /home/bdw2292/miniconda3/envs/amoebamdpoltype/share/psi4/basis/aug-cc-pvqz-jkfit.gbs 

  ==> Pre-Iterations <==

   -------------------------------------------------------
    Irrep   Nso     Nmo     Nalpha   Nbeta   Ndocc  Nsocc
   -------------------------------------------------------
     A        172     172       0       0       0       0
   -------------------------------------------------------
    Total     172     172       5       5       5       0
   -------------------------------------------------------

  ==> Integral Setup <==

  DFHelper Memory: AOs need 0.074 GiB; user supplied 10.477 GiB. Using in-core AOs.

  ==> MemDFJK: Density-Fitted J/K Matrices <==

    J tasked:                   Yes
    K tasked:                   Yes
    wK tasked:                   No
    OpenMP threads:               4
    Memory [MiB]:             10728
    Algorithm:                 Core
    Schwarz Cutoff:           1E-12
    Mask sparsity (%):       0.0000
    Fitting Condition:        1E-10

   => Auxiliary Basis Set <=

  Basis Set: (AUG-CC-PVQZ AUX)
    Blend: AUG-CC-PVQZ-JKFIT
    Number of shells: 70
    Number of basis function: 294
    Number of Cartesian functions: 400
    Spherical Harmonics?: true
    Max angular momentum: 5

  Minimum eigenvalue in the overlap matrix is 8.5381612537E-05.
  Using Symmetric Orthogonalization.

  SCF Guess: Superposition of Atomic Densities via on-the-fly atomic UHF.

  ==> Iterations <==

                           Total Energy        Delta E     RMS |[F,P]|

   @DF-RHF iter SAD:   -75.47918194396583   -7.54792e+01   0.00000e+00 
   @DF-RHF iter   1:   -75.98167255293838   -5.02491e-01   2.73052e-03 DIIS
   @DF-RHF iter   2:   -76.03419539994565   -5.25228e-02   1.85463e-03 DIIS
   @DF-RHF iter   3:   -76.06541680334124   -3.12214e-02   1.26303e-04 DIIS
   @DF-RHF iter   4:   -76.06580844954982   -3.91646e-04   3.08530e-05 DIIS
   @DF-RHF iter   5:   -76.06583328735657   -2.48378e-05   6.91949e-06 DIIS
   @DF-RHF iter   6:   -76.06583532435525   -2.03700e-06   1.58114e-06 DIIS
   @DF-RHF iter   7:   -76.06583544330863   -1.18953e-07   3.08360e-07 DIIS
   @DF-RHF iter   8:   -76.06583544732985   -4.02122e-09   4.93436e-08 DIIS
   @DF-RHF iter   9:   -76.06583544741358   -8.37304e-11   1.19456e-08 DIIS
   @DF-RHF iter  10:   -76.06583544741807   -4.49063e-12   1.66059e-09 DIIS
  Energy and wave function converged.


  ==> Post-Iterations <==

    Orbital Energies [Eh]
    ---------------------

    Doubly Occupied:                                                      

       1A    -20.563051     2A     -1.350044     3A     -0.724984  
       4A     -0.577458     5A     -0.509327  

    Virtual:                                                              

       6A      0.027147     7A      0.042878     8A      0.114696  
       9A      0.132617    10A      0.150357    11A      0.157870  
      12A      0.185974    13A      0.197117    14A      0.208282  
      15A      0.241291    16A      0.258918    17A      0.290438  
      18A      0.358098    19A      0.390607    20A      0.471799  
      21A      0.506735    22A      0.543000    23A      0.545722  
      24A      0.554151    25A      0.613315    26A      0.634211  
      27A      0.649583    28A      0.662646    29A      0.665810  
      30A      0.690230    31A      0.705202    32A      0.714940  
      33A      0.769567    34A      0.787643    35A      0.803474  
      36A      0.809890    37A      0.846686    38A      0.855352  
      39A      0.967457    40A      1.134243    41A      1.140765  
      42A      1.216697    43A      1.329081    44A      1.418315  
      45A      1.480522    46A      1.506144    47A      1.521667  
      48A      1.525094    49A      1.555852    50A      1.595460  
      51A      1.618141    52A      1.636654    53A      1.659602  
      54A      1.672438    55A      1.685980    56A      1.702518  
      57A      1.719915    58A      1.763341    59A      1.781431  
      60A      1.793775    61A      1.828608    62A      1.862906  
      63A      1.881927    64A      1.900665    65A      1.954057  
      66A      2.013849    67A      2.021670    68A      2.029540  
      69A      2.099019    70A      2.218779    71A      2.225719  
      72A      2.307107    73A      2.492085    74A      2.642142  
      75A      2.643426    76A      2.890917    77A      2.962323  
      78A      3.010142    79A      3.023909    80A      3.061501  
      81A      3.088431    82A      3.253282    83A      3.283410  
      84A      3.310568    85A      3.529727    86A      3.591078  
      87A      3.658131    88A      3.681882    89A      3.741157  
      90A      3.741390    91A      3.920860    92A      4.066476  
      93A      4.159387    94A      4.170455    95A      4.174803  
      96A      4.181119    97A      4.250778    98A      4.344132  
      99A      4.419023   100A      4.566261   101A      4.664042  
     102A      4.760922   103A      4.802993   104A      4.807004  
     105A      4.839533   106A      4.875585   107A      4.998622  
     108A      5.275938   109A      5.315762   110A      5.512945  
     111A      5.547861   112A      5.878417   113A      5.882595  
     114A      6.080439   115A      6.230749   116A      6.836171  
     117A      6.859232   118A      6.861874   119A      6.955797  
     120A      7.714092   121A      7.780028   122A      7.828598  
     123A      7.845880   124A      7.878154   125A      7.918924  
     126A      7.946718   127A      8.006813   128A      8.197911  
     129A      8.339253   130A      8.536998   131A      8.591346  
     132A      8.705214   133A      8.758463   134A      8.799486  
     135A      8.876000   136A      8.981837   137A      9.063588  
     138A      9.143021   139A      9.529959   140A      9.842814  
     141A      9.962758   142A      9.965948   143A     10.013233  
     144A     10.440183   145A     10.478579   146A     10.654234  
     147A     10.993324   148A     11.038510   149A     11.078518  
     150A     11.260052   151A     11.368825   152A     11.438861  
     153A     11.697357   154A     11.796700   155A     11.834722  
     156A     12.012760   157A     12.175787   158A     12.225441  
     159A     12.532477   160A     12.736859   161A     12.876287  
     162A     12.895592   163A     13.210974   164A     13.999533  
     165A     14.039492   166A     14.489032   167A     14.847082  
     168A     14.877108   169A     15.302391   170A     16.928023  
     171A     17.267540   172A     45.493104  

    Final Occupation by Irrep:
              A 
    DOCC [     5 ]

  @DF-RHF Final Energy:   -76.06583544741807

   => Energetics <=

    Nuclear Repulsion Energy =              9.1838556995126783
    One-Electron Energy =                -123.0496558586762603
    Two-Electron Energy =                  37.7999647117455169
    Total Energy =                        -76.0658354474180669

Computation Completed


Properties will be evaluated at  -3.933099,   8.846043,  -2.537544 [a0]

Properties computed using the SCF density matrix

  Nuclear Dipole Moment: [e a0]
     X:    -0.1917      Y:    -0.2156      Z:    -0.8870

  Electronic Dipole Moment: [e a0]
     X:     0.0367      Y:     0.0413      Z:     0.1701

  Dipole Moment: [e a0]
     X:    -0.1549      Y:    -0.1742      Z:    -0.7168     Total:     0.7538

  Dipole Moment: [D]
     X:    -0.3938      Y:    -0.4429      Z:    -1.8220     Total:     1.9160


*** tstop() called on node37.bme.utexas.edu at Tue Feb 22 18:12:33 2022
Module time:
	user time   =      11.12 seconds =       0.19 minutes
	system time =       0.88 seconds =       0.01 minutes
	total time  =          8 seconds =       0.13 minutes
Total time:
	user time   =      18.23 seconds =       0.30 minutes
	system time =       1.50 seconds =       0.03 minutes
	total time  =         13 seconds =       0.22 minutes

*** tstart() called on node37.bme.utexas.edu
*** at Tue Feb 22 18:12:33 2022


  //>>>>>>>>>>>>>>>>>>>>>>>>>>>>>>>>>>>//
  //               DFMP2               //
  //<<<<<<<<<<<<<<<<<<<<<<<<<<<<<<<<<<<//

   => Loading Basis Set <=

    Name: (AUG-CC-PVQZ AUX)
    Role: RIFIT
    Keyword: DF_BASIS_MP2
    atoms 1   entry O          line   332 file /home/bdw2292/miniconda3/envs/amoebamdpoltype/share/psi4/basis/aug-cc-pvqz-ri.gbs 
    atoms 2-3 entry H          line    30 file /home/bdw2292/miniconda3/envs/amoebamdpoltype/share/psi4/basis/aug-cc-pvqz-ri.gbs 

	 --------------------------------------------------------
	                          DF-MP2                         
	      2nd-Order Density-Fitted Moller-Plesset Theory     
	              RMP2 Wavefunction,   4 Threads             
	                                                         
	        Rob Parrish, Justin Turney, Andy Simmonett,      
	           Ed Hohenstein, and C. David Sherrill          
	 --------------------------------------------------------

   => Auxiliary Basis Set <=

  Basis Set: (AUG-CC-PVQZ AUX)
    Blend: AUG-CC-PVQZ-RI
    Number of shells: 76
    Number of basis function: 328
    Number of Cartesian functions: 447
    Spherical Harmonics?: true
    Max angular momentum: 5

	 --------------------------------------------------------
	                 NBF =   172, NAUX =   328
	 --------------------------------------------------------
	   CLASS    FOCC     OCC    AOCC    AVIR     VIR    FVIR
	   PAIRS       1       5       4     167     167       0
	 --------------------------------------------------------

	-----------------------------------------------------------
	 ==================> DF-MP2 Energies <==================== 
	-----------------------------------------------------------
	 Reference Energy          =     -76.0658354474180669 [Eh]
	 Singles Energy            =      -0.0000000000000000 [Eh]
	 Same-Spin Energy          =      -0.0671630027052393 [Eh]
	 Opposite-Spin Energy      =      -0.2185131533429919 [Eh]
	 Correlation Energy        =      -0.2856761560482312 [Eh]
	 Total Energy              =     -76.3515116034662924 [Eh]
	-----------------------------------------------------------
	 ================> DF-SCS-MP2 Energies <================== 
	-----------------------------------------------------------
	 SCS Same-Spin Scale       =       0.3333333333333333 [-]
	 SCS Opposite-Spin Scale   =       1.2000000000000000 [-]
	 SCS Same-Spin Energy      =      -0.0223876675684131 [Eh]
	 SCS Opposite-Spin Energy  =      -0.2622157840115902 [Eh]
	 SCS Correlation Energy    =      -0.2846034515800033 [Eh]
	 SCS Total Energy          =     -76.3504388989980640 [Eh]
	-----------------------------------------------------------


*** tstop() called on node37.bme.utexas.edu at Tue Feb 22 18:12:34 2022
Module time:
	user time   =       3.02 seconds =       0.05 minutes
	system time =       0.26 seconds =       0.00 minutes
	total time  =          1 seconds =       0.02 minutes
Total time:
	user time   =      21.26 seconds =       0.35 minutes
	system time =       1.76 seconds =       0.03 minutes
	total time  =         14 seconds =       0.23 minutes

  //>>>>>>>>>>>>>>>>>>>>>>>>>>>>>>>>>>>//
  //  CBS Results: mp2/aug-cc-pV[TQ]Z  //
  //<<<<<<<<<<<<<<<<<<<<<<<<<<<<<<<<<<<//


   ==> HF <==

   HI-zeta (4) Energy:               -76.065835447418


   ==> Helgaker 2-point correlated extrapolation for method: MP2 <==

   LO-zeta (3) Energy:               -76.328514753503
   HI-zeta (4) Energy:               -76.351511603466
   Alpha (exponent) Value:             3.000000000000
   Extrapolated Energy:              -76.368293088575

   @Extrapolated MP2/(T,Q):          -76.368293088575



   ==> Helgaker 2-point correlated extrapolation for method: HF <==

   LO-zeta (3) Energy:               -76.060447768050
   HI-zeta (4) Energy:               -76.065835447418
   Alpha (exponent) Value:             3.000000000000
   Extrapolated Energy:              -76.069766997227

   @Extrapolated HF/(T,Q):           -76.069766997227


   ==> Components <==

  ---------------------------------------------------------------------------------------------------------
                          Method / Basis                      Rqd      Energy [Eh]   Variable
  ---------------------------------------------------------------------------------------------------------
                              hf / aug-cc-pvtz                  *     -76.06044777   HF TOTAL ENERGY
                             mp2 / aug-cc-pvtz                  *     -76.32851475   MP2 TOTAL ENERGY
                              hf / aug-cc-pvqz                  *     -76.06583545   HF TOTAL ENERGY
                             mp2 / aug-cc-pvqz                  *     -76.35151160   MP2 TOTAL ENERGY
  ---------------------------------------------------------------------------------------------------------

   ==> Stages <==

  ---------------------------------------------------------------------------------------------------------
      Stage               Method / Basis                       Wt      Energy [Eh]   Scheme
  ---------------------------------------------------------------------------------------------------------
        scf                   hf / aug-cc-pvqz                  1     -76.06583545   xtpl_highest_1
       corl                  mp2 / aug-cc-pv[tq]z               1     -76.36829309   corl_xtpl_helgaker_2
       corl                   hf / aug-cc-pv[tq]z              -1     -76.06976700   corl_xtpl_helgaker_2
  ---------------------------------------------------------------------------------------------------------

   ==> CBS <==

  ---------------------------------------------------------------------------------------------------------
      Stage               Method / Basis                               Energy [Eh]   Scheme
  ---------------------------------------------------------------------------------------------------------
        scf                   hf / aug-cc-pvqz                        -76.06583545   xtpl_highest_1
       corl                  mp2 / aug-cc-pv[tq]z                      -0.29852609   corl_xtpl_helgaker_2
      total                  CBS                                      -76.36436154   
  ---------------------------------------------------------------------------------------------------------
   => Loading Basis Set <=

    Name: DEF2-SVP
    Role: ORBITAL
    Keyword: BASIS
    atoms 1   entry O          line   130 file /home/bdw2292/miniconda3/envs/amoebamdpoltype/share/psi4/basis/def2-svp.gbs 
    atoms 2-3 entry H          line    15 file /home/bdw2292/miniconda3/envs/amoebamdpoltype/share/psi4/basis/def2-svp.gbs 


       N-Body: Complex Energy (fragments = (2,), basis = (2,):   -76.36436153876588)

       N-Body: Computing complex (2/4) with fragments (2,) in the basis of fragments (1, 2).


  //>>>>>>>>>>>>>>>>>>>>>>>>>>>>>>>>>>>//
  //   CBS Setup: mp2/aug-cc-pV[TQ]Z   //
  //<<<<<<<<<<<<<<<<<<<<<<<<<<<<<<<<<<<//

    Naive listing of computations required.
             hf / aug-cc-pvqz              for  HF TOTAL ENERGY
            mp2 / aug-cc-pvtz              for  MP2 TOTAL ENERGY
            mp2 / aug-cc-pvqz              for  MP2 TOTAL ENERGY
             hf / aug-cc-pvtz              for  HF TOTAL ENERGY
             hf / aug-cc-pvqz              for  HF TOTAL ENERGY

    Enlightened listing of computations required.
            mp2 / aug-cc-pvtz              for  MP2 TOTAL ENERGY
            mp2 / aug-cc-pvqz              for  MP2 TOTAL ENERGY

    Full listing of computations to be obtained (required and bonus).
             hf / aug-cc-pvtz              for  HF TOTAL ENERGY
            mp2 / aug-cc-pvtz              for  MP2 TOTAL ENERGY
             hf / aug-cc-pvqz              for  HF TOTAL ENERGY
            mp2 / aug-cc-pvqz              for  MP2 TOTAL ENERGY

  //>>>>>>>>>>>>>>>>>>>>>>>>>>>>>>>>>>>>//
  // CBS Computation: MP2 / AUG-CC-PVTZ //
  //<<<<<<<<<<<<<<<<<<<<<<<<<<<<<<<<<<<<//

    SCF Algorithm Type (re)set to DF.

*** tstart() called on node37.bme.utexas.edu
*** at Tue Feb 22 18:12:36 2022

   => Loading Basis Set <=

    Name: AUG-CC-PVTZ
    Role: ORBITAL
    Keyword: BASIS
    atoms 1-3    entry CL         line   984 file /home/bdw2292/miniconda3/envs/amoebamdpoltype/share/psi4/basis/aug-cc-pvtz.gbs 
    atoms 4      entry C          line   235 file /home/bdw2292/miniconda3/envs/amoebamdpoltype/share/psi4/basis/aug-cc-pvtz.gbs 
    atoms 5, 7-8 entry H          line    36 file /home/bdw2292/miniconda3/envs/amoebamdpoltype/share/psi4/basis/aug-cc-pvtz.gbs 
    atoms 6      entry O          line   327 file /home/bdw2292/miniconda3/envs/amoebamdpoltype/share/psi4/basis/aug-cc-pvtz.gbs 


         ---------------------------------------------------------
                                   SCF
               by Justin Turney, Rob Parrish, Andy Simmonett
                          and Daniel G. A. Smith
                              RHF Reference
                        4 Threads,  14305 MiB Core
         ---------------------------------------------------------

  ==> Geometry <==

    Molecular point group: c1
    Full point group: C1

    Geometry (in Angstrom), charge = 0, multiplicity = 1:

       Center              X                  Y                   Z               Mass       
    ------------   -----------------  -----------------  -----------------  -----------------
      Gh(CL)         -0.409803646238     0.771468393255     0.481121077273    34.968852682000
      Gh(CL)          1.980515553762    -0.804154006745    -0.007163222727    34.968852682000
      Gh(CL)         -0.632049046238    -2.073225406745    -0.058953122727    34.968852682000
      Gh(C)           0.352176153762    -0.804065006745     0.660921077273    12.000000000000
      Gh(H)           0.432043853762    -1.011699606745     1.727965577273     1.007825032230
         O           -2.068418246238     4.695618693255    -1.283177522727    15.994914619570
         H           -2.931001946238     4.467694393255    -1.630454222727     1.007825032230
         H           -1.436153446238     4.664514193255    -2.001589222727     1.007825032230

  Running in c1 symmetry.

  Rotational constants: A =      0.09455  B =      0.02291  C =      0.01972 [cm^-1]
  Rotational constants: A =   2834.55739  B =    686.68782  C =    591.11755 [MHz]
  Nuclear repulsion =    9.183855699512678

  Charge       = 0
  Multiplicity = 1
  Electrons    = 10
  Nalpha       = 5
  Nbeta        = 5

  ==> Algorithm <==

  SCF Algorithm Type is DF.
  DIIS enabled.
  MOM disabled.
  Fractional occupation disabled.
  Guess Type is SAD.
  Energy threshold   = 1.00e-08
  Density threshold  = 1.00e-08
  Integral threshold = 0.00e+00

  ==> Primary Basis <==

  Basis Set: AUG-CC-PVTZ
    Blend: AUG-CC-PVTZ
    Number of shells: 103
    Number of basis function: 311
    Number of Cartesian functions: 362
    Spherical Harmonics?: true
    Max angular momentum: 3

   => Loading Basis Set <=

    Name: (AUG-CC-PVTZ AUX)
    Role: JKFIT
    Keyword: DF_BASIS_SCF
    atoms 1-3    entry CL         line   816 file /home/bdw2292/miniconda3/envs/amoebamdpoltype/share/psi4/basis/aug-cc-pvtz-jkfit.gbs 
    atoms 4      entry C          line   162 file /home/bdw2292/miniconda3/envs/amoebamdpoltype/share/psi4/basis/aug-cc-pvtz-jkfit.gbs 
    atoms 5, 7-8 entry H          line    70 file /home/bdw2292/miniconda3/envs/amoebamdpoltype/share/psi4/basis/aug-cc-pvtz-jkfit.gbs 
    atoms 6      entry O          line   286 file /home/bdw2292/miniconda3/envs/amoebamdpoltype/share/psi4/basis/aug-cc-pvtz-jkfit.gbs 

  ==> Pre-Iterations <==

   -------------------------------------------------------
    Irrep   Nso     Nmo     Nalpha   Nbeta   Ndocc  Nsocc
   -------------------------------------------------------
     A        311     311       0       0       0       0
   -------------------------------------------------------
    Total     311     311       5       5       5       0
   -------------------------------------------------------

  ==> Integral Setup <==

  DFHelper Memory: AOs need 0.504 GiB; user supplied 10.477 GiB. Using in-core AOs.

  ==> MemDFJK: Density-Fitted J/K Matrices <==

    J tasked:                   Yes
    K tasked:                   Yes
    wK tasked:                   No
    OpenMP threads:               4
    Memory [MiB]:             10728
    Algorithm:                 Core
    Schwarz Cutoff:           1E-12
    Mask sparsity (%):      15.6243
    Fitting Condition:        1E-10

   => Auxiliary Basis Set <=

  Basis Set: (AUG-CC-PVTZ AUX)
    Blend: AUG-CC-PVTZ-JKFIT
    Number of shells: 228
    Number of basis function: 784
    Number of Cartesian functions: 967
    Spherical Harmonics?: true
    Max angular momentum: 4

  Minimum eigenvalue in the overlap matrix is 6.1078878782E-05.
  Using Symmetric Orthogonalization.

  SCF Guess: Superposition of Atomic Densities via on-the-fly atomic UHF.

  ==> Iterations <==

                           Total Energy        Delta E     RMS |[F,P]|

   @DF-RHF iter SAD:   -75.47402567065458   -7.54740e+01   0.00000e+00 
   @DF-RHF iter   1:   -75.97659179452160   -5.02566e-01   1.50694e-03 DIIS
   @DF-RHF iter   2:   -76.02901302235189   -5.24212e-02   1.02120e-03 DIIS
   @DF-RHF iter   3:   -76.06003801997547   -3.10250e-02   6.93477e-05 DIIS
   @DF-RHF iter   4:   -76.06042761373159   -3.89594e-04   1.65562e-05 DIIS
   @DF-RHF iter   5:   -76.06045155320892   -2.39395e-05   3.72626e-06 DIIS
   @DF-RHF iter   6:   -76.06045350751241   -1.95430e-06   8.29081e-07 DIIS
   @DF-RHF iter   7:   -76.06045361516031   -1.07648e-07   1.56735e-07 DIIS
   @DF-RHF iter   8:   -76.06045361857436   -3.41404e-09   2.60129e-08 DIIS
   @DF-RHF iter   9:   -76.06045361864928   -7.49196e-11   6.46048e-09 DIIS
  Energy and wave function converged.


  ==> Post-Iterations <==

    Orbital Energies [Eh]
    ---------------------

    Doubly Occupied:                                                      

       1A    -20.565516     2A     -1.350775     3A     -0.725024  
       4A     -0.577410     5A     -0.509201  

    Virtual:                                                              

       6A      0.022548     7A      0.033650     8A      0.045032  
       9A      0.056075    10A      0.060281    11A      0.068684  
      12A      0.104947    13A      0.110673    14A      0.110978  
      15A      0.114177    16A      0.117413    17A      0.125947  
      18A      0.138161    19A      0.155852    20A      0.157288  
      21A      0.164009    22A      0.172139    23A      0.176408  
      24A      0.181216    25A      0.189733    26A      0.190903  
      27A      0.206688    28A      0.225415    29A      0.234033  
      30A      0.252760    31A      0.279627    32A      0.280989  
      33A      0.315174    34A      0.321151    35A      0.326482  
      36A      0.344215    37A      0.349305    38A      0.357697  
      39A      0.362407    40A      0.369460    41A      0.383128  
      42A      0.394252    43A      0.404742    44A      0.412597  
      45A      0.415143    46A      0.423031    47A      0.427061  
      48A      0.437397    49A      0.443434    50A      0.459859  
      51A      0.468803    52A      0.470443    53A      0.497036  
      54A      0.504526    55A      0.511037    56A      0.530798  
      57A      0.534085    58A      0.547548    59A      0.565381  
      60A      0.583406    61A      0.586748    62A      0.606075  
      63A      0.627771    64A      0.631728    65A      0.636444  
      66A      0.654994    67A      0.662518    68A      0.665208  
      69A      0.675040    70A      0.715149    71A      0.730585  
      72A      0.746656    73A      0.751608    74A      0.753834  
      75A      0.759392    76A      0.766688    77A      0.785064  
      78A      0.802761    79A      0.835244    80A      0.838454  
      81A      0.842117    82A      0.855809    83A      0.870819  
      84A      0.914993    85A      0.920274    86A      0.928542  
      87A      0.935144    88A      0.969981    89A      1.007766  
      90A      1.034048    91A      1.043188    92A      1.059188  
      93A      1.065987    94A      1.084932    95A      1.103838  
      96A      1.114344    97A      1.155650    98A      1.156515  
      99A      1.174270   100A      1.184714   101A      1.185063  
     102A      1.196215   103A      1.236016   104A      1.237977  
     105A      1.251120   106A      1.257317   107A      1.261544  
     108A      1.272644   109A      1.286898   110A      1.301708  
     111A      1.324107   112A      1.339331   113A      1.348036  
     114A      1.351508   115A      1.362176   116A      1.374165  
     117A      1.376710   118A      1.423727   119A      1.435367  
     120A      1.440414   121A      1.443722   122A      1.482938  
     123A      1.493083   124A      1.495210   125A      1.504063  
     126A      1.507921   127A      1.511374   128A      1.514282  
     129A      1.517811   130A      1.526847   131A      1.551986  
     132A      1.554349   133A      1.559403   134A      1.568471  
     135A      1.589755   136A      1.594116   137A      1.597833  
     138A      1.611582   139A      1.650470   140A      1.651025  
     141A      1.655708   142A      1.692515   143A      1.700984  
     144A      1.712315   145A      1.722163   146A      1.786838  
     147A      1.797425   148A      1.799451   149A      1.818582  
     150A      1.843613   151A      1.844800   152A      1.911095  
     153A      2.005529   154A      2.043217   155A      2.050652  
     156A      2.097256   157A      2.121771   158A      2.122424  
     159A      2.126489   160A      2.134708   161A      2.159020  
     162A      2.173000   163A      2.174234   164A      2.253855  
     165A      2.254004   166A      2.272066   167A      2.290232  
     168A      2.321807   169A      2.326646   170A      2.369574  
     171A      2.415713   172A      2.438040   173A      2.446697  
     174A      2.462018   175A      2.488682   176A      2.500095  
     177A      2.503062   178A      2.563889   179A      2.570064  
     180A      2.593179   181A      2.689109   182A      2.721217  
     183A      2.738412   184A      2.744271   185A      2.777360  
     186A      2.857068   187A      2.894549   188A      3.042976  
     189A      3.646534   190A      3.787093   191A      3.796592  
     192A      3.841932   193A      3.860155   194A      3.861097  
     195A      3.962138   196A      3.965156   197A      3.965647  
     198A      3.973303   199A      3.979429   200A      3.988550  
     201A      4.000448   202A      4.000623   203A      4.007913  
     204A      4.013727   205A      4.048769   206A      4.050425  
     207A      4.071697   208A      4.105439   209A      4.117485  
     210A      4.125630   211A      4.127734   212A      4.168123  
     213A      4.169942   214A      4.188835   215A      4.196443  
     216A      4.212002   217A      4.214431   218A      4.217264  
     219A      4.219895   220A      4.233140   221A      4.238907  
     222A      4.246794   223A      4.337622   224A      4.382758  
     225A      4.401476   226A      4.416413   227A      4.418387  
     228A      4.419987   229A      4.457919   230A      4.463864  
     231A      4.464233   232A      4.494164   233A      4.577379  
     234A      4.665410   235A      4.672066   236A      4.724534  
     237A      4.737585   238A      4.739023   239A      4.750668  
     240A      4.754678   241A      4.760209   242A      4.770565  
     243A      4.780527   244A      4.781476   245A      4.811319  
     246A      4.813831   247A      4.829156   248A      4.864729  
     249A      4.867730   250A      4.901171   251A      4.907354  
     252A      4.918343   253A      5.082349   254A      5.088674  
     255A      5.124824   256A      5.127528   257A      5.132020  
     258A      5.174074   259A      5.246971   260A      5.256902  
     261A      5.308240   262A      5.327691   263A      5.331294  
     264A      5.336980   265A      5.480521   266A      5.483849  
     267A      5.514019   268A      5.529989   269A      5.724216  
     270A      5.762237   271A      5.975840   272A      5.977140  
     273A      6.147244   274A      6.194755   275A      6.202735  
     276A      6.389261   277A      6.536272   278A      6.714077  
     279A      6.752124   280A      6.863075   281A      7.155668  
     282A      7.270829   283A      7.310209   284A      7.315139  
     285A      7.375134   286A      7.388516   287A      7.561823  
     288A      7.898193   289A      7.906210   290A      7.909988  
     291A      7.965012   292A      8.100411   293A      8.790465  
     294A      9.398105   295A     15.767269   296A     15.882869  
     297A     16.424291   298A     16.489378   299A     28.052950  
     300A     28.124820   301A     28.127664   302A     28.138602  
     303A     28.209061   304A     28.209987   305A     28.839809  
     306A     28.846835   307A     29.376508   308A     45.530730  
     309A    160.975904   310A    161.050993   311A    161.058984  

    Final Occupation by Irrep:
              A 
    DOCC [     5 ]

  @DF-RHF Final Energy:   -76.06045361864928

   => Energetics <=

    Nuclear Repulsion Energy =              9.1838556995126783
    One-Electron Energy =                -123.0327615694073415
    Two-Electron Energy =                  37.7884522512453884
    Total Energy =                        -76.0604536186492766

Computation Completed


Properties will be evaluated at  -0.000000,  -0.000000,   0.000000 [a0]

Properties computed using the SCF density matrix

  Nuclear Dipole Moment: [e a0]
     X:   -39.5227      Y:    88.2448      Z:   -26.2624

  Electronic Dipole Moment: [e a0]
     X:    39.3675      Y:   -88.4191      Z:    25.5445

  Dipole Moment: [e a0]
     X:    -0.1552      Y:    -0.1743      Z:    -0.7179     Total:     0.7549

  Dipole Moment: [D]
     X:    -0.3945      Y:    -0.4430      Z:    -1.8246     Total:     1.9186


*** tstop() called on node37.bme.utexas.edu at Tue Feb 22 18:12:55 2022
Module time:
	user time   =      35.64 seconds =       0.59 minutes
	system time =       1.93 seconds =       0.03 minutes
	total time  =         19 seconds =       0.32 minutes
Total time:
	user time   =      58.55 seconds =       0.98 minutes
	system time =       3.74 seconds =       0.06 minutes
	total time  =         35 seconds =       0.58 minutes

*** tstart() called on node37.bme.utexas.edu
*** at Tue Feb 22 18:12:55 2022


  //>>>>>>>>>>>>>>>>>>>>>>>>>>>>>>>>>>>//
  //               DFMP2               //
  //<<<<<<<<<<<<<<<<<<<<<<<<<<<<<<<<<<<//

   => Loading Basis Set <=

    Name: (AUG-CC-PVTZ AUX)
    Role: RIFIT
    Keyword: DF_BASIS_MP2
    atoms 1-3    entry CL         line   742 file /home/bdw2292/miniconda3/envs/amoebamdpoltype/share/psi4/basis/aug-cc-pvtz-ri.gbs 
    atoms 4      entry C          line   148 file /home/bdw2292/miniconda3/envs/amoebamdpoltype/share/psi4/basis/aug-cc-pvtz-ri.gbs 
    atoms 5, 7-8 entry H          line    30 file /home/bdw2292/miniconda3/envs/amoebamdpoltype/share/psi4/basis/aug-cc-pvtz-ri.gbs 
    atoms 6      entry O          line   264 file /home/bdw2292/miniconda3/envs/amoebamdpoltype/share/psi4/basis/aug-cc-pvtz-ri.gbs 

	 --------------------------------------------------------
	                          DF-MP2                         
	      2nd-Order Density-Fitted Moller-Plesset Theory     
	              RMP2 Wavefunction,   4 Threads             
	                                                         
	        Rob Parrish, Justin Turney, Andy Simmonett,      
	           Ed Hohenstein, and C. David Sherrill          
	 --------------------------------------------------------

   => Auxiliary Basis Set <=

  Basis Set: (AUG-CC-PVTZ AUX)
    Blend: AUG-CC-PVTZ-RI
    Number of shells: 209
    Number of basis function: 791
    Number of Cartesian functions: 1010
    Spherical Harmonics?: true
    Max angular momentum: 4

	 --------------------------------------------------------
	                 NBF =   311, NAUX =   791
	 --------------------------------------------------------
	   CLASS    FOCC     OCC    AOCC    AVIR     VIR    FVIR
	   PAIRS       1       5       4     306     306       0
	 --------------------------------------------------------

	-----------------------------------------------------------
	 ==================> DF-MP2 Energies <==================== 
	-----------------------------------------------------------
	 Reference Energy          =     -76.0604536186492766 [Eh]
	 Singles Energy            =      -0.0000000000000000 [Eh]
	 Same-Spin Energy          =      -0.0650961292232986 [Eh]
	 Opposite-Spin Energy      =      -0.2029921633812561 [Eh]
	 Correlation Energy        =      -0.2680882926045547 [Eh]
	 Total Energy              =     -76.3285419112538364 [Eh]
	-----------------------------------------------------------
	 ================> DF-SCS-MP2 Energies <================== 
	-----------------------------------------------------------
	 SCS Same-Spin Scale       =       0.3333333333333333 [-]
	 SCS Opposite-Spin Scale   =       1.2000000000000000 [-]
	 SCS Same-Spin Energy      =      -0.0216987097410995 [Eh]
	 SCS Opposite-Spin Energy  =      -0.2435905960575074 [Eh]
	 SCS Correlation Energy    =      -0.2652893057986069 [Eh]
	 SCS Total Energy          =     -76.3257429244478800 [Eh]
	-----------------------------------------------------------


*** tstop() called on node37.bme.utexas.edu at Tue Feb 22 18:13:01 2022
Module time:
	user time   =      13.29 seconds =       0.22 minutes
	system time =       0.73 seconds =       0.01 minutes
	total time  =          6 seconds =       0.10 minutes
Total time:
	user time   =      71.84 seconds =       1.20 minutes
	system time =       4.47 seconds =       0.07 minutes
	total time  =         41 seconds =       0.68 minutes

  //>>>>>>>>>>>>>>>>>>>>>>>>>>>>>>>>>>>>//
  // CBS Computation: MP2 / AUG-CC-PVQZ //
  //<<<<<<<<<<<<<<<<<<<<<<<<<<<<<<<<<<<<//

    SCF Algorithm Type (re)set to DF.

*** tstart() called on node37.bme.utexas.edu
*** at Tue Feb 22 18:13:01 2022

   => Loading Basis Set <=

    Name: AUG-CC-PVQZ
    Role: ORBITAL
    Keyword: BASIS
    atoms 1-3    entry CL         line  1218 file /home/bdw2292/miniconda3/envs/amoebamdpoltype/share/psi4/basis/aug-cc-pvqz.gbs 
    atoms 4      entry C          line   299 file /home/bdw2292/miniconda3/envs/amoebamdpoltype/share/psi4/basis/aug-cc-pvqz.gbs 
    atoms 5, 7-8 entry H          line    36 file /home/bdw2292/miniconda3/envs/amoebamdpoltype/share/psi4/basis/aug-cc-pvqz.gbs 
    atoms 6      entry O          line   419 file /home/bdw2292/miniconda3/envs/amoebamdpoltype/share/psi4/basis/aug-cc-pvqz.gbs 


         ---------------------------------------------------------
                                   SCF
               by Justin Turney, Rob Parrish, Andy Simmonett
                          and Daniel G. A. Smith
                              RHF Reference
                        4 Threads,  14305 MiB Core
         ---------------------------------------------------------

  ==> Geometry <==

    Molecular point group: c1
    Full point group: C1

    Geometry (in Angstrom), charge = 0, multiplicity = 1:

       Center              X                  Y                   Z               Mass       
    ------------   -----------------  -----------------  -----------------  -----------------
      Gh(CL)         -0.409803646238     0.771468393255     0.481121077273    34.968852682000
      Gh(CL)          1.980515553762    -0.804154006745    -0.007163222727    34.968852682000
      Gh(CL)         -0.632049046238    -2.073225406745    -0.058953122727    34.968852682000
      Gh(C)           0.352176153762    -0.804065006745     0.660921077273    12.000000000000
      Gh(H)           0.432043853762    -1.011699606745     1.727965577273     1.007825032230
         O           -2.068418246238     4.695618693255    -1.283177522727    15.994914619570
         H           -2.931001946238     4.467694393255    -1.630454222727     1.007825032230
         H           -1.436153446238     4.664514193255    -2.001589222727     1.007825032230

  Running in c1 symmetry.

  Rotational constants: A =      0.09455  B =      0.02291  C =      0.01972 [cm^-1]
  Rotational constants: A =   2834.55739  B =    686.68782  C =    591.11755 [MHz]
  Nuclear repulsion =    9.183855699512678

  Charge       = 0
  Multiplicity = 1
  Electrons    = 10
  Nalpha       = 5
  Nbeta        = 5

  ==> Algorithm <==

  SCF Algorithm Type is DF.
  DIIS enabled.
  MOM disabled.
  Fractional occupation disabled.
  Guess Type is SAD.
  Energy threshold   = 1.00e-08
  Density threshold  = 1.00e-08
  Integral threshold = 0.00e+00

  ==> Primary Basis <==

  Basis Set: AUG-CC-PVQZ
    Blend: AUG-CC-PVQZ
    Number of shells: 148
    Number of basis function: 550
    Number of Cartesian functions: 702
    Spherical Harmonics?: true
    Max angular momentum: 4

   => Loading Basis Set <=

    Name: (AUG-CC-PVQZ AUX)
    Role: JKFIT
    Keyword: DF_BASIS_SCF
    atoms 1-3    entry CL         line   904 file /home/bdw2292/miniconda3/envs/amoebamdpoltype/share/psi4/basis/aug-cc-pvqz-jkfit.gbs 
    atoms 4      entry C          line   178 file /home/bdw2292/miniconda3/envs/amoebamdpoltype/share/psi4/basis/aug-cc-pvqz-jkfit.gbs 
    atoms 5, 7-8 entry H          line    70 file /home/bdw2292/miniconda3/envs/amoebamdpoltype/share/psi4/basis/aug-cc-pvqz-jkfit.gbs 
    atoms 6      entry O          line   318 file /home/bdw2292/miniconda3/envs/amoebamdpoltype/share/psi4/basis/aug-cc-pvqz-jkfit.gbs 

  ==> Pre-Iterations <==

   -------------------------------------------------------
    Irrep   Nso     Nmo     Nalpha   Nbeta   Ndocc  Nsocc
   -------------------------------------------------------
     A        550     550       0       0       0       0
   -------------------------------------------------------
    Total     550     550       5       5       5       0
   -------------------------------------------------------

  ==> Integral Setup <==

  DFHelper Memory: AOs need 1.989 GiB; user supplied 10.477 GiB. Using in-core AOs.

  ==> MemDFJK: Density-Fitted J/K Matrices <==

    J tasked:                   Yes
    K tasked:                   Yes
    wK tasked:                   No
    OpenMP threads:               4
    Memory [MiB]:             10728
    Algorithm:                 Disk
    Schwarz Cutoff:           1E-12
    Mask sparsity (%):      20.8886
    Fitting Condition:        1E-10

   => Auxiliary Basis Set <=

  Basis Set: (AUG-CC-PVQZ AUX)
    Blend: AUG-CC-PVQZ-JKFIT
    Number of shells: 260
    Number of basis function: 1064
    Number of Cartesian functions: 1440
    Spherical Harmonics?: true
    Max angular momentum: 5

  Minimum eigenvalue in the overlap matrix is 1.2324997939E-05.
  Using Symmetric Orthogonalization.

  SCF Guess: Superposition of Atomic Densities via on-the-fly atomic UHF.

  ==> Iterations <==

                           Total Energy        Delta E     RMS |[F,P]|

   @DF-RHF iter SAD:   -75.47918194006365   -7.54792e+01   0.00000e+00 
   @DF-RHF iter   1:   -75.98167263189215   -5.02491e-01   8.53916e-04 DIIS
   @DF-RHF iter   2:   -76.03419651319793   -5.25239e-02   5.80015e-04 DIIS
   @DF-RHF iter   3:   -76.06541977043328   -3.12233e-02   3.94986e-05 DIIS
   @DF-RHF iter   4:   -76.06581141528001   -3.91645e-04   9.64858e-06 DIIS
   @DF-RHF iter   5:   -76.06583625067502   -2.48354e-05   2.16355e-06 DIIS
   @DF-RHF iter   6:   -76.06583828692538   -2.03625e-06   4.94347e-07 DIIS
   @DF-RHF iter   7:   -76.06583840582860   -1.18903e-07   9.64563e-08 DIIS
   @DF-RHF iter   8:   -76.06583840985340   -4.02480e-09   1.54398e-08 DIIS
   @DF-RHF iter   9:   -76.06583840993703   -8.36309e-11   3.73699e-09 DIIS
  Energy and wave function converged.


  ==> Post-Iterations <==

    Orbital Energies [Eh]
    ---------------------

    Doubly Occupied:                                                      

       1A    -20.563052     2A     -1.350043     3A     -0.724984  
       4A     -0.577459     5A     -0.509325  

    Virtual:                                                              

       6A      0.020079     7A      0.030625     8A      0.039961  
       9A      0.049046    10A      0.053042    11A      0.060770  
      12A      0.090736    13A      0.091846    14A      0.094075  
      15A      0.096042    16A      0.098248    17A      0.109169  
      18A      0.117603    19A      0.133420    20A      0.135074  
      21A      0.140786    22A      0.149944    23A      0.151707  
      24A      0.154814    25A      0.159141    26A      0.166413  
      27A      0.178588    28A      0.189507    29A      0.193942  
      30A      0.206905    31A      0.227782    32A      0.238566  
      33A      0.253879    34A      0.256084    35A      0.263225  
      36A      0.267488    37A      0.274527    38A      0.284829  
      39A      0.289078    40A      0.290518    41A      0.299964  
      42A      0.305923    43A      0.316744    44A      0.320838  
      45A      0.324933    46A      0.335372    47A      0.340863  
      48A      0.349332    49A      0.354438    50A      0.362701  
      51A      0.376614    52A      0.386417    53A      0.390933  
      54A      0.393547    55A      0.397068    56A      0.400535  
      57A      0.406267    58A      0.417798    59A      0.424467  
      60A      0.432282    61A      0.441432    62A      0.465643  
      63A      0.467610    64A      0.478836    65A      0.493662  
      66A      0.501894    67A      0.505873    68A      0.522462  
      69A      0.531207    70A      0.539995    71A      0.559521  
      72A      0.564100    73A      0.568475    74A      0.574216  
      75A      0.577349    76A      0.585878    77A      0.595734  
      78A      0.614768    79A      0.623889    80A      0.630067  
      81A      0.644396    82A      0.652254    83A      0.664567  
      84A      0.670351    85A      0.698644    86A      0.713780  
      87A      0.720788    88A      0.733243    89A      0.765112  
      90A      0.769249    91A      0.780105    92A      0.785565  
      93A      0.794716    94A      0.803648    95A      0.817771  
      96A      0.820757    97A      0.827761    98A      0.840803  
      99A      0.849972   100A      0.857509   101A      0.864562  
     102A      0.869135   103A      0.881590   104A      0.890296  
     105A      0.893493   106A      0.899172   107A      0.905796  
     108A      0.930372   109A      0.944349   110A      0.953804  
     111A      0.958818   112A      0.964027   113A      0.971864  
     114A      0.987559   115A      0.988976   116A      0.994073  
     117A      1.001016   118A      1.013247   119A      1.020989  
     120A      1.027851   121A      1.033323   122A      1.043419  
     123A      1.050042   124A      1.053890   125A      1.069888  
     126A      1.073147   127A      1.080516   128A      1.086570  
     129A      1.101975   130A      1.103078   131A      1.110275  
     132A      1.125535   133A      1.132542   134A      1.147245  
     135A      1.155100   136A      1.169349   137A      1.173770  
     138A      1.188213   139A      1.193931   140A      1.202059  
     141A      1.219176   142A      1.225135   143A      1.234492  
     144A      1.240091   145A      1.263869   146A      1.310012  
     147A      1.312866   148A      1.335118   149A      1.350367  
     150A      1.354995   151A      1.368995   152A      1.421915  
     153A      1.491996   154A      1.521345   155A      1.524113  
     156A      1.535317   157A      1.545475   158A      1.545913  
     159A      1.552535   160A      1.563118   161A      1.582717  
     162A      1.584375   163A      1.590999   164A      1.602833  
     165A      1.609760   166A      1.615715   167A      1.620488  
     168A      1.626503   169A      1.644237   170A      1.651134  
     171A      1.654967   172A      1.660609   173A      1.665148  
     174A      1.689317   175A      1.701196   176A      1.705299  
     177A      1.735260   178A      1.750278   179A      1.762685  
     180A      1.780387   181A      1.791852   182A      1.793749  
     183A      1.796998   184A      1.800122   185A      1.815741  
     186A      1.833919   187A      1.885775   188A      1.897391  
     189A      1.900797   190A      1.901482   191A      1.907621  
     192A      1.931539   193A      1.939364   194A      1.942959  
     195A      1.952359   196A      1.961003   197A      1.966628  
     198A      1.979812   199A      1.991969   200A      1.994481  
     201A      2.013234   202A      2.017177   203A      2.034113  
     204A      2.038431   205A      2.089162   206A      2.099358  
     207A      2.124582   208A      2.132499   209A      2.146882  
     210A      2.175131   211A      2.181375   212A      2.183041  
     213A      2.190463   214A      2.204755   215A      2.226069  
     216A      2.232600   217A      2.240161   218A      2.245727  
     219A      2.258623   220A      2.283537   221A      2.288078  
     222A      2.289104   223A      2.307644   224A      2.372547  
     225A      2.376670   226A      2.377681   227A      2.381770  
     228A      2.421739   229A      2.426545   230A      2.428761  
     231A      2.451522   232A      2.459938   233A      2.477013  
     234A      2.479808   235A      2.481996   236A      2.484390  
     237A      2.496076   238A      2.503628   239A      2.518093  
     240A      2.539204   241A      2.549525   242A      2.553776  
     243A      2.556914   244A      2.583885   245A      2.587018  
     246A      2.590544   247A      2.595550   248A      2.631849  
     249A      2.633733   250A      2.635639   251A      2.639662  
     252A      2.646729   253A      2.675825   254A      2.679812  
     255A      2.689645   256A      2.721875   257A      2.732874  
     258A      2.735797   259A      2.785274   260A      2.798616  
     261A      2.848200   262A      2.851527   263A      2.862711  
     264A      2.896617   265A      2.920626   266A      2.930642  
     267A      2.942253   268A      2.958695   269A      2.966966  
     270A      2.999706   271A      3.002306   272A      3.007046  
     273A      3.021464   274A      3.028187   275A      3.062847  
     276A      3.067506   277A      3.081351   278A      3.089675  
     279A      3.094869   280A      3.145753   281A      3.170869  
     282A      3.171731   283A      3.201483   284A      3.206138  
     285A      3.228792   286A      3.265329   287A      3.280044  
     288A      3.289640   289A      3.299916   290A      3.302520  
     291A      3.321940   292A      3.335758   293A      3.410126  
     294A      3.416226   295A      3.466424   296A      3.472995  
     297A      3.483343   298A      3.493285   299A      3.493865  
     300A      3.532442   301A      3.605388   302A      3.613389  
     303A      3.629409   304A      3.646258   305A      3.653461  
     306A      3.668844   307A      3.684641   308A      3.704319  
     309A      3.711589   310A      3.742801   311A      3.752218  
     312A      3.814142   313A      3.830691   314A      3.836964  
     315A      3.859359   316A      3.869716   317A      3.925674  
     318A      3.928207   319A      3.943400   320A      4.075765  
     321A      4.077430   322A      4.083089   323A      4.122944  
     324A      4.169041   325A      4.171890   326A      4.173726  
     327A      4.177263   328A      4.186750   329A      4.199435  
     330A      4.257636   331A      4.288522   332A      4.359179  
     333A      4.380943   334A      4.382275   335A      4.416150  
     336A      4.435969   337A      4.447930   338A      4.458351  
     339A      4.569246   340A      4.665665   341A      4.758753  
     342A      4.762351   343A      4.769301   344A      4.810631  
     345A      4.823224   346A      4.840868   347A      4.848967  
     348A      4.882029   349A      4.975417   350A      4.999403  
     351A      5.003220   352A      5.009268   353A      5.295813  
     354A      5.319834   355A      5.393585   356A      5.441769  
     357A      5.442364   358A      5.455264   359A      5.480405  
     360A      5.483210   361A      5.488845   362A      5.520984  
     363A      5.569014   364A      5.585235   365A      5.586298  
     366A      5.649541   367A      5.650212   368A      5.672662  
     369A      5.700294   370A      5.713312   371A      5.735593  
     372A      5.745309   373A      5.746891   374A      5.783535  
     375A      5.784183   376A      5.877135   377A      5.880660  
     378A      5.885906   379A      5.894826   380A      5.904318  
     381A      5.945624   382A      5.951334   383A      5.978939  
     384A      6.080961   385A      6.097428   386A      6.104146  
     387A      6.133768   388A      6.238484   389A      6.306673  
     390A      6.306994   391A      6.310855   392A      6.324027  
     393A      6.326676   394A      6.330595   395A      6.371061  
     396A      6.377874   397A      6.461953   398A      6.463229  
     399A      6.469585   400A      6.489625   401A      6.513159  
     402A      6.514267   403A      6.532268   404A      6.562552  
     405A      6.565738   406A      6.567655   407A      6.582184  
     408A      6.611048   409A      6.614590   410A      6.837945  
     411A      6.861252   412A      6.862673   413A      6.960271  
     414A      7.144980   415A      7.147211   416A      7.175028  
     417A      7.195505   418A      7.263158   419A      7.405166  
     420A      7.439464   421A      7.442434   422A      7.503236  
     423A      7.510317   424A      7.558705   425A      7.606002  
     426A      7.607263   427A      7.690963   428A      7.714525  
     429A      7.733325   430A      7.739125   431A      7.764745  
     432A      7.798875   433A      7.832776   434A      7.840612  
     435A      7.842779   436A      7.846961   437A      7.880882  
     438A      7.892757   439A      7.923862   440A      7.950533  
     441A      7.970446   442A      7.973869   443A      8.009472  
     444A      8.013844   445A      8.016440   446A      8.061029  
     447A      8.074346   448A      8.089205   449A      8.128063  
     450A      8.134392   451A      8.199111   452A      8.235252  
     453A      8.237612   454A      8.240348   455A      8.343006  
     456A      8.383101   457A      8.391171   458A      8.416282  
     459A      8.462659   460A      8.472260   461A      8.474119  
     462A      8.541071   463A      8.591950   464A      8.653400  
     465A      8.712137   466A      8.766571   467A      8.800935  
     468A      8.804332   469A      8.804738   470A      8.881254  
     471A      8.931770   472A      8.949090   473A      8.987919  
     474A      9.065123   475A      9.148483   476A      9.209561  
     477A      9.236647   478A      9.241199   479A      9.357558  
     480A      9.370846   481A      9.374318   482A      9.528944  
     483A      9.530924   484A      9.612193   485A      9.612504  
     486A      9.845343   487A      9.888776   488A      9.954771  
     489A      9.957317   490A      9.975303   491A      9.983776  
     492A     10.016169   493A     10.441509   494A     10.484284  
     495A     10.525467   496A     10.528771   497A     10.696092  
     498A     10.811151   499A     10.815360   500A     11.001899  
     501A     11.034427   502A     11.035612   503A     11.039955  
     504A     11.083670   505A     11.173613   506A     11.278872  
     507A     11.371256   508A     11.456970   509A     11.617211  
     510A     11.698851   511A     11.801783   512A     11.841166  
     513A     12.014815   514A     12.177450   515A     12.227935  
     516A     12.542768   517A     12.716822   518A     12.739448  
     519A     12.881749   520A     12.902760   521A     13.211266  
     522A     13.710128   523A     13.710777   524A     13.780919  
     525A     14.000035   526A     14.050664   527A     14.491792  
     528A     14.849284   529A     14.879314   530A     15.304068  
     531A     16.940469   532A     17.056013   533A     17.272199  
     534A     31.103630   535A     31.106641   536A     31.113230  
     537A     31.117866   538A     31.166399   539A     31.167291  
     540A     31.317629   541A     31.322599   542A     31.385510  
     543A     42.485514   544A     43.362699   545A     43.418421  
     546A     45.528639   547A     69.557425   548A    160.324752  
     549A    160.430208   550A    160.438468  

    Final Occupation by Irrep:
              A 
    DOCC [     5 ]

  @DF-RHF Final Energy:   -76.06583840993703

   => Energetics <=

    Nuclear Repulsion Energy =              9.1838556995126783
    One-Electron Energy =                -123.0496599052214037
    Two-Electron Energy =                  37.7999657957716977
    Total Energy =                        -76.0658384099370295

Computation Completed


Properties will be evaluated at  -0.000000,  -0.000000,   0.000000 [a0]

Properties computed using the SCF density matrix

  Nuclear Dipole Moment: [e a0]
     X:   -39.5227      Y:    88.2448      Z:   -26.2624

  Electronic Dipole Moment: [e a0]
     X:    39.3677      Y:   -88.4190      Z:    25.5455

  Dipole Moment: [e a0]
     X:    -0.1550      Y:    -0.1742      Z:    -0.7169     Total:     0.7538

  Dipole Moment: [D]
     X:    -0.3939      Y:    -0.4427      Z:    -1.8221     Total:     1.9160


*** tstop() called on node37.bme.utexas.edu at Tue Feb 22 18:14:24 2022
Module time:
	user time   =     153.21 seconds =       2.55 minutes
	system time =      29.99 seconds =       0.50 minutes
	total time  =         83 seconds =       1.38 minutes
Total time:
	user time   =     225.10 seconds =       3.75 minutes
	system time =      34.47 seconds =       0.57 minutes
	total time  =        124 seconds =       2.07 minutes

*** tstart() called on node37.bme.utexas.edu
*** at Tue Feb 22 18:14:24 2022


  //>>>>>>>>>>>>>>>>>>>>>>>>>>>>>>>>>>>//
  //               DFMP2               //
  //<<<<<<<<<<<<<<<<<<<<<<<<<<<<<<<<<<<//

   => Loading Basis Set <=

    Name: (AUG-CC-PVQZ AUX)
    Role: RIFIT
    Keyword: DF_BASIS_MP2
    atoms 1-3    entry CL         line   914 file /home/bdw2292/miniconda3/envs/amoebamdpoltype/share/psi4/basis/aug-cc-pvqz-ri.gbs 
    atoms 4      entry C          line   184 file /home/bdw2292/miniconda3/envs/amoebamdpoltype/share/psi4/basis/aug-cc-pvqz-ri.gbs 
    atoms 5, 7-8 entry H          line    30 file /home/bdw2292/miniconda3/envs/amoebamdpoltype/share/psi4/basis/aug-cc-pvqz-ri.gbs 
    atoms 6      entry O          line   332 file /home/bdw2292/miniconda3/envs/amoebamdpoltype/share/psi4/basis/aug-cc-pvqz-ri.gbs 

	 --------------------------------------------------------
	                          DF-MP2                         
	      2nd-Order Density-Fitted Moller-Plesset Theory     
	              RMP2 Wavefunction,   4 Threads             
	                                                         
	        Rob Parrish, Justin Turney, Andy Simmonett,      
	           Ed Hohenstein, and C. David Sherrill          
	 --------------------------------------------------------

   => Auxiliary Basis Set <=

  Basis Set: (AUG-CC-PVQZ AUX)
    Blend: AUG-CC-PVQZ-RI
    Number of shells: 264
    Number of basis function: 1158
    Number of Cartesian functions: 1593
    Spherical Harmonics?: true
    Max angular momentum: 5

	 --------------------------------------------------------
	                 NBF =   550, NAUX =  1158
	 --------------------------------------------------------
	   CLASS    FOCC     OCC    AOCC    AVIR     VIR    FVIR
	   PAIRS       1       5       4     545     545       0
	 --------------------------------------------------------

	-----------------------------------------------------------
	 ==================> DF-MP2 Energies <==================== 
	-----------------------------------------------------------
	 Reference Energy          =     -76.0658384099370295 [Eh]
	 Singles Energy            =      -0.0000000000000000 [Eh]
	 Same-Spin Energy          =      -0.0671641038291356 [Eh]
	 Opposite-Spin Energy      =      -0.2185240954354316 [Eh]
	 Correlation Energy        =      -0.2856881992645672 [Eh]
	 Total Energy              =     -76.3515266092015992 [Eh]
	-----------------------------------------------------------
	 ================> DF-SCS-MP2 Energies <================== 
	-----------------------------------------------------------
	 SCS Same-Spin Scale       =       0.3333333333333333 [-]
	 SCS Opposite-Spin Scale   =       1.2000000000000000 [-]
	 SCS Same-Spin Energy      =      -0.0223880346097119 [Eh]
	 SCS Opposite-Spin Energy  =      -0.2622289145225179 [Eh]
	 SCS Correlation Energy    =      -0.2846169491322298 [Eh]
	 SCS Total Energy          =     -76.3504553590692581 [Eh]
	-----------------------------------------------------------


*** tstop() called on node37.bme.utexas.edu at Tue Feb 22 18:14:43 2022
Module time:
	user time   =      49.81 seconds =       0.83 minutes
	system time =       2.85 seconds =       0.05 minutes
	total time  =         19 seconds =       0.32 minutes
Total time:
	user time   =     274.92 seconds =       4.58 minutes
	system time =      37.32 seconds =       0.62 minutes
	total time  =        143 seconds =       2.38 minutes

  //>>>>>>>>>>>>>>>>>>>>>>>>>>>>>>>>>>>//
  //  CBS Results: mp2/aug-cc-pV[TQ]Z  //
  //<<<<<<<<<<<<<<<<<<<<<<<<<<<<<<<<<<<//


   ==> HF <==

   HI-zeta (4) Energy:               -76.065838409937


   ==> Helgaker 2-point correlated extrapolation for method: MP2 <==

   LO-zeta (3) Energy:               -76.328541911254
   HI-zeta (4) Energy:               -76.351526609202
   Alpha (exponent) Value:             3.000000000000
   Extrapolated Energy:              -76.368299226623

   @Extrapolated MP2/(T,Q):          -76.368299226623



   ==> Helgaker 2-point correlated extrapolation for method: HF <==

   LO-zeta (3) Energy:               -76.060453618649
   HI-zeta (4) Energy:               -76.065838409937
   Alpha (exponent) Value:             3.000000000000
   Extrapolated Energy:              -76.069767852228

   @Extrapolated HF/(T,Q):           -76.069767852228


   ==> Components <==

  ---------------------------------------------------------------------------------------------------------
                          Method / Basis                      Rqd      Energy [Eh]   Variable
  ---------------------------------------------------------------------------------------------------------
                              hf / aug-cc-pvtz                  *     -76.06045362   HF TOTAL ENERGY
                             mp2 / aug-cc-pvtz                  *     -76.32854191   MP2 TOTAL ENERGY
                              hf / aug-cc-pvqz                  *     -76.06583841   HF TOTAL ENERGY
                             mp2 / aug-cc-pvqz                  *     -76.35152661   MP2 TOTAL ENERGY
  ---------------------------------------------------------------------------------------------------------

   ==> Stages <==

  ---------------------------------------------------------------------------------------------------------
      Stage               Method / Basis                       Wt      Energy [Eh]   Scheme
  ---------------------------------------------------------------------------------------------------------
        scf                   hf / aug-cc-pvqz                  1     -76.06583841   xtpl_highest_1
       corl                  mp2 / aug-cc-pv[tq]z               1     -76.36829923   corl_xtpl_helgaker_2
       corl                   hf / aug-cc-pv[tq]z              -1     -76.06976785   corl_xtpl_helgaker_2
  ---------------------------------------------------------------------------------------------------------

   ==> CBS <==

  ---------------------------------------------------------------------------------------------------------
      Stage               Method / Basis                               Energy [Eh]   Scheme
  ---------------------------------------------------------------------------------------------------------
        scf                   hf / aug-cc-pvqz                        -76.06583841   xtpl_highest_1
       corl                  mp2 / aug-cc-pv[tq]z                      -0.29853137   corl_xtpl_helgaker_2
      total                  CBS                                      -76.36436978   
  ---------------------------------------------------------------------------------------------------------
   => Loading Basis Set <=

    Name: DEF2-SVP
    Role: ORBITAL
    Keyword: BASIS
    atoms 1-3    entry CL         line   356 file /home/bdw2292/miniconda3/envs/amoebamdpoltype/share/psi4/basis/def2-svp.gbs 
    atoms 4      entry C          line    90 file /home/bdw2292/miniconda3/envs/amoebamdpoltype/share/psi4/basis/def2-svp.gbs 
    atoms 5, 7-8 entry H          line    15 file /home/bdw2292/miniconda3/envs/amoebamdpoltype/share/psi4/basis/def2-svp.gbs 
    atoms 6      entry O          line   130 file /home/bdw2292/miniconda3/envs/amoebamdpoltype/share/psi4/basis/def2-svp.gbs 


       N-Body: Complex Energy (fragments = (2,), basis = (1, 2):   -76.36436978433187)

       N-Body: Computing complex (3/4) with fragments (1,) in the basis of fragments (1, 2).


  //>>>>>>>>>>>>>>>>>>>>>>>>>>>>>>>>>>>//
  //   CBS Setup: mp2/aug-cc-pV[TQ]Z   //
  //<<<<<<<<<<<<<<<<<<<<<<<<<<<<<<<<<<<//

    Naive listing of computations required.
             hf / aug-cc-pvqz              for  HF TOTAL ENERGY
            mp2 / aug-cc-pvtz              for  MP2 TOTAL ENERGY
            mp2 / aug-cc-pvqz              for  MP2 TOTAL ENERGY
[...]
     101A      0.562560   102A      0.568695   103A      0.575749  
     104A      0.580391   105A      0.593035   106A      0.598301  
     107A      0.608131   108A      0.609660   109A      0.612194  
     110A      0.617387   111A      0.622910   112A      0.628401  
     113A      0.633784   114A      0.649187   115A      0.659350  
     116A      0.670896   117A      0.684399   118A      0.686165  
     119A      0.696368   120A      0.702562   121A      0.710236  
     122A      0.713592   123A      0.723346   124A      0.737953  
     125A      0.748352   126A      0.758035   127A      0.760182  
     128A      0.769045   129A      0.774767   130A      0.777323  
     131A      0.781439   132A      0.789501   133A      0.808500  
     134A      0.813996   135A      0.818361   136A      0.822684  
     137A      0.836019   138A      0.838204   139A      0.861040  
     140A      0.863772   141A      0.872374   142A      0.874281  
     143A      0.883818   144A      0.889752   145A      0.893163  
     146A      0.905357   147A      0.911058   148A      0.936178  
     149A      0.962921   150A      0.974176   151A      0.985889  
     152A      0.988449   153A      1.016816   154A      1.018651  
     155A      1.043810   156A      1.064500   157A      1.078045  
     158A      1.100594   159A      1.104241   160A      1.126711  
     161A      1.128705   162A      1.141792   163A      1.142172  
     164A      1.148006   165A      1.152945   166A      1.165428  
     167A      1.178377   168A      1.179707   169A      1.205879  
     170A      1.228644   171A      1.233707   172A      1.235546  
     173A      1.241274   174A      1.245625   175A      1.259441  
     176A      1.264220   177A      1.266261   178A      1.280630  
     179A      1.281412   180A      1.295844   181A      1.313770  
     182A      1.317448   183A      1.346255   184A      1.371806  
     185A      1.422268   186A      1.451661   187A      1.451933  
     188A      1.484598   189A      1.507742   190A      1.524217  
     191A      1.525885   192A      1.539254   193A      1.558050  
     194A      1.560381   195A      1.567581   196A      1.603091  
     197A      1.625134   198A      1.646882   199A      1.653878  
     200A      1.683015   201A      1.688642   202A      1.694090  
     203A      1.698703   204A      1.707346   205A      1.728937  
     206A      1.736385   207A      1.740175   208A      1.745622  
     209A      1.751284   210A      1.763243   211A      1.772692  
     212A      1.780928   213A      1.782879   214A      1.793760  
     215A      1.797715   216A      1.800002   217A      1.803852  
     218A      1.821996   219A      1.824807   220A      1.830889  
     221A      1.834266   222A      1.848056   223A      1.875823  
     224A      1.880989   225A      1.884254   226A      1.889475  
     227A      1.902054   228A      1.925200   229A      1.928973  
     230A      1.931119   231A      1.932946   232A      1.946158  
     233A      1.959738   234A      1.963665   235A      1.967138  
     236A      1.997143   237A      2.001447   238A      2.013046  
     239A      2.016797   240A      2.019306   241A      2.025307  
     242A      2.032619   243A      2.033341   244A      2.039103  
     245A      2.045873   246A      2.057543   247A      2.060133  
     248A      2.112002   249A      2.113312   250A      2.114948  
     251A      2.120375   252A      2.122651   253A      2.132561  
     254A      2.151344   255A      2.178653   256A      2.181188  
     257A      2.195287   258A      2.198748   259A      2.200541  
     260A      2.214062   261A      2.216153   262A      2.222692  
     263A      2.226223   264A      2.230157   265A      2.240318  
     266A      2.250418   267A      2.267486   268A      2.283717  
     269A      2.289826   270A      2.292215   271A      2.304664  
     272A      2.304859   273A      2.308457   274A      2.320098  
     275A      2.334838   276A      2.400459   277A      2.404647  
     278A      2.408015   279A      2.418080   280A      2.456204  
     281A      2.457930   282A      2.461016   283A      2.479452  
     284A      2.482610   285A      2.489783   286A      2.502289  
     287A      2.545891   288A      2.548288   289A      2.572075  
     290A      2.580052   291A      2.599100   292A      2.616697  
     293A      2.635867   294A      2.639372   295A      2.641877  
     296A      2.647481   297A      2.683035   298A      2.743746  
     299A      2.822836   300A      2.823143   301A      2.865828  
     302A      2.896798   303A      2.901592   304A      2.905134  
     305A      2.905443   306A      2.909800   307A      2.967155  
     308A      2.997935   309A      3.002037   310A      3.019796  
     311A      3.027884   312A      3.051413   313A      3.087734  
     314A      3.095170   315A      3.119981   316A      3.130330  
     317A      3.168086   318A      3.172628   319A      3.265486  
     320A      3.289183   321A      3.301966   322A      3.313003  
     323A      3.321956   324A      3.328479   325A      3.332553  
     326A      3.391095   327A      3.392243   328A      3.477869  
     329A      3.479601   330A      3.489843   331A      3.532678  
     332A      3.541446   333A      3.546286   334A      3.548159  
     335A      3.607721   336A      3.639185   337A      3.668180  
     338A      3.686691   339A      3.742922   340A      3.745939  
     341A      3.752685   342A      3.763701   343A      3.768284  
     344A      3.853528   345A      3.854286   346A      3.939887  
     347A      3.970846   348A      3.979036   349A      3.987334  
     350A      4.082398   351A      4.170012   352A      4.175736  
     353A      4.185006   354A      4.195690   355A      4.243532  
     356A      4.258074   357A      4.290374   358A      4.292160  
     359A      4.357645   360A      4.421589   361A      4.425661  
     362A      4.430682   363A      4.448910   364A      4.472950  
     365A      4.504759   366A      4.541779   367A      4.545194  
     368A      4.570214   369A      4.596093   370A      4.600907  
     371A      4.664436   372A      4.664591   373A      4.666434  
     374A      4.668458   375A      4.710255   376A      4.712104  
     377A      4.712933   378A      4.714342   379A      4.715956  
     380A      4.720967   381A      4.744583   382A      4.746507  
     383A      4.754245   384A      4.769141   385A      4.769169  
     386A      4.771890   387A      4.779570   388A      4.788545  
     389A      4.789727   390A      4.797976   391A      4.804453  
     392A      4.810883   393A      4.819358   394A      4.823983  
     395A      4.836510   396A      4.841736   397A      4.856625  
     398A      4.859668   399A      4.871548   400A      4.886274  
     401A      4.890862   402A      4.891923   403A      4.911892  
     404A      4.916014   405A      4.920757   406A      4.930197  
     407A      4.948618   408A      4.950078   409A      4.958114  
     410A      4.983629   411A      4.989009   412A      4.989565  
     413A      5.006908   414A      5.036575   415A      5.057134  
     416A      5.085749   417A      5.088583   418A      5.155245  
     419A      5.156142   420A      5.202345   421A      5.252835  
     422A      5.253611   423A      5.294395   424A      5.298157  
     425A      5.308129   426A      5.320561   427A      5.387525  
     428A      5.390548   429A      5.413108   430A      5.419665  
     431A      5.516717   432A      5.519298   433A      5.523107  
     434A      5.570735   435A      5.578591   436A      5.710218  
     437A      5.886955   438A      5.896344   439A      6.081423  
     440A      6.239265   441A      6.451609   442A      6.481747  
     443A      6.483426   444A      6.518651   445A      6.521222  
     446A      6.688329   447A      6.716836   448A      6.720036  
     449A      6.722113   450A      6.782332   451A      6.818577  
     452A      6.825618   453A      6.838763   454A      6.861773  
     455A      6.863181   456A      6.893824   457A      6.898032  
     458A      6.906964   459A      6.960697   460A      6.961474  
     461A      6.982354   462A      7.087431   463A      7.192456  
     464A      7.196335   465A      7.214032   466A      7.217929  
     467A      7.396113   468A      7.400519   469A      7.427399  
     470A      7.516796   471A      7.615943   472A      7.616358  
     473A      7.715044   474A      7.733969   475A      7.735376  
     476A      7.802830   477A      7.816084   478A      7.834464  
     479A      7.847275   480A      7.881257   481A      7.894428  
     482A      7.924298   483A      7.951145   484A      8.003360  
     485A      8.009362   486A      8.013800   487A      8.199621  
     488A      8.341956   489A      8.347350   490A      8.541490  
     491A      8.592369   492A      8.618540   493A      8.619433  
     494A      8.706630   495A      8.710487   496A      8.712786  
     497A      8.766787   498A      8.804318   499A      8.846615  
     500A      8.881645   501A      8.988260   502A      9.065501  
     503A      9.148906   504A      9.326153   505A      9.328165  
     506A      9.530945   507A      9.547008   508A      9.715623  
     509A      9.718188   510A      9.846110   511A      9.974857  
     512A      9.983783   513A     10.016373   514A     10.430295  
     515A     10.430515   516A     10.441945   517A     10.484681  
     518A     10.683240   519A     10.696985   520A     11.002577  
     521A     11.039804   522A     11.083971   523A     11.278710  
     524A     11.371529   525A     11.456832   526A     11.699143  
     527A     11.802052   528A     11.841313   529A     12.015077  
     530A     12.177730   531A     12.228277   532A     12.543146  
     533A     12.739795   534A     12.881974   535A     12.903077  
     536A     12.942740   537A     13.211607   538A     14.000454  
     539A     14.050961   540A     14.492140   541A     14.849638  
     542A     14.879707   543A     15.304448   544A     16.940845  
     545A     17.272561   546A     25.531771   547A     26.669455  
     548A     26.709713   549A     27.341800   550A     45.528697  

    Final Occupation by Irrep:
              A 
    DOCC [    34 ]

  @DF-RHF Final Energy: -1493.08196761978115

   => Energetics <=

    Nuclear Repulsion Energy =            324.4198204384146607
    One-Electron Energy =               -2708.7832007936040100
    Two-Electron Energy =                 891.2814127354082530
    Total Energy =                      -1493.0819676197811532

Computation Completed


Properties will be evaluated at  -0.000000,  -0.000000,   0.000000 [a0]

Properties computed using the SCF density matrix

  Nuclear Dipole Moment: [e a0]
     X:    -4.5583      Y:     9.5631      Z:    -2.1711

  Electronic Dipole Moment: [e a0]
     X:     4.4229      Y:    -9.7857      Z:     1.9221

  Dipole Moment: [e a0]
     X:    -0.1353      Y:    -0.2226      Z:    -0.2490     Total:     0.3604

  Dipole Moment: [D]
     X:    -0.3440      Y:    -0.5659      Z:    -0.6328     Total:     0.9160


*** tstop() called on node37.bme.utexas.edu at Tue Feb 22 18:19:44 2022
Module time:
	user time   =     187.76 seconds =       3.13 minutes
	system time =      35.87 seconds =       0.60 minutes
	total time  =         86 seconds =       1.43 minutes
Total time:
	user time   =     963.96 seconds =      16.07 minutes
	system time =     127.31 seconds =       2.12 minutes
	total time  =        444 seconds =       7.40 minutes

*** tstart() called on node37.bme.utexas.edu
*** at Tue Feb 22 18:19:44 2022


  //>>>>>>>>>>>>>>>>>>>>>>>>>>>>>>>>>>>//
  //               DFMP2               //
  //<<<<<<<<<<<<<<<<<<<<<<<<<<<<<<<<<<<//

   => Loading Basis Set <=

    Name: (AUG-CC-PVQZ AUX)
    Role: RIFIT
    Keyword: DF_BASIS_MP2
    atoms 1-3    entry CL         line   914 file /home/bdw2292/miniconda3/envs/amoebamdpoltype/share/psi4/basis/aug-cc-pvqz-ri.gbs 
    atoms 4      entry C          line   184 file /home/bdw2292/miniconda3/envs/amoebamdpoltype/share/psi4/basis/aug-cc-pvqz-ri.gbs 
    atoms 5, 7-8 entry H          line    30 file /home/bdw2292/miniconda3/envs/amoebamdpoltype/share/psi4/basis/aug-cc-pvqz-ri.gbs 
    atoms 6      entry O          line   332 file /home/bdw2292/miniconda3/envs/amoebamdpoltype/share/psi4/basis/aug-cc-pvqz-ri.gbs 

	 --------------------------------------------------------
	                          DF-MP2                         
	      2nd-Order Density-Fitted Moller-Plesset Theory     
	              RMP2 Wavefunction,   4 Threads             
	                                                         
	        Rob Parrish, Justin Turney, Andy Simmonett,      
	           Ed Hohenstein, and C. David Sherrill          
	 --------------------------------------------------------

   => Auxiliary Basis Set <=

  Basis Set: (AUG-CC-PVQZ AUX)
    Blend: AUG-CC-PVQZ-RI
    Number of shells: 264
    Number of basis function: 1158
    Number of Cartesian functions: 1593
    Spherical Harmonics?: true
    Max angular momentum: 5

	 --------------------------------------------------------
	                 NBF =   550, NAUX =  1158
	 --------------------------------------------------------
	   CLASS    FOCC     OCC    AOCC    AVIR     VIR    FVIR
	   PAIRS      17      34      17     516     516       0
	 --------------------------------------------------------

	-----------------------------------------------------------
	 ==================> DF-MP2 Energies <==================== 
	-----------------------------------------------------------
	 Reference Energy          =   -1493.0819676197811532 [Eh]
	 Singles Energy            =      -0.0000000000000000 [Eh]
	 Same-Spin Energy          =      -0.2645950448887495 [Eh]
	 Opposite-Spin Energy      =      -0.8367552424530852 [Eh]
	 Correlation Energy        =      -1.1013502873418348 [Eh]
	 Total Energy              =   -1494.1833179071229551 [Eh]
	-----------------------------------------------------------
	 ================> DF-SCS-MP2 Energies <================== 
	-----------------------------------------------------------
	 SCS Same-Spin Scale       =       0.3333333333333333 [-]
	 SCS Opposite-Spin Scale   =       1.2000000000000000 [-]
	 SCS Same-Spin Energy      =      -0.0881983482962498 [Eh]
	 SCS Opposite-Spin Energy  =      -1.0041062909437022 [Eh]
	 SCS Correlation Energy    =      -1.0923046392399520 [Eh]
	 SCS Total Energy          =   -1494.1742722590211088 [Eh]
	-----------------------------------------------------------


*** tstop() called on node37.bme.utexas.edu at Tue Feb 22 18:20:09 2022
Module time:
	user time   =      66.71 seconds =       1.11 minutes
	system time =       3.29 seconds =       0.05 minutes
	total time  =         25 seconds =       0.42 minutes
Total time:
	user time   =    1030.67 seconds =      17.18 minutes
	system time =     130.60 seconds =       2.18 minutes
	total time  =        469 seconds =       7.82 minutes

  //>>>>>>>>>>>>>>>>>>>>>>>>>>>>>>>>>>>//
  //  CBS Results: mp2/aug-cc-pV[TQ]Z  //
  //<<<<<<<<<<<<<<<<<<<<<<<<<<<<<<<<<<<//


   ==> HF <==

   HI-zeta (4) Energy:               -1493.081967619781


   ==> Helgaker 2-point correlated extrapolation for method: MP2 <==

   LO-zeta (3) Energy:               -1494.087610528038
   HI-zeta (4) Energy:               -1494.183317907123
   Alpha (exponent) Value:             3.000000000000
   Extrapolated Energy:              -1494.253158426996

   @Extrapolated MP2/(T,Q):          -1494.253158426996



   ==> Helgaker 2-point correlated extrapolation for method: HF <==

   LO-zeta (3) Energy:               -1493.063077179716
   HI-zeta (4) Energy:               -1493.081967619781
   Alpha (exponent) Value:             3.000000000000
   Extrapolated Energy:              -1493.095752535504

   @Extrapolated HF/(T,Q):           -1493.095752535504


   ==> Components <==

  ---------------------------------------------------------------------------------------------------------
                          Method / Basis                      Rqd      Energy [Eh]   Variable
  ---------------------------------------------------------------------------------------------------------
                              hf / aug-cc-pvtz                  *   -1493.06307718   HF TOTAL ENERGY
                             mp2 / aug-cc-pvtz                  *   -1494.08761053   MP2 TOTAL ENERGY
                              hf / aug-cc-pvqz                  *   -1493.08196762   HF TOTAL ENERGY
                             mp2 / aug-cc-pvqz                  *   -1494.18331791   MP2 TOTAL ENERGY
  ---------------------------------------------------------------------------------------------------------

   ==> Stages <==

  ---------------------------------------------------------------------------------------------------------
      Stage               Method / Basis                       Wt      Energy [Eh]   Scheme
  ---------------------------------------------------------------------------------------------------------
        scf                   hf / aug-cc-pvqz                  1   -1493.08196762   xtpl_highest_1
       corl                  mp2 / aug-cc-pv[tq]z               1   -1494.25315843   corl_xtpl_helgaker_2
       corl                   hf / aug-cc-pv[tq]z              -1   -1493.09575254   corl_xtpl_helgaker_2
  ---------------------------------------------------------------------------------------------------------

   ==> CBS <==

  ---------------------------------------------------------------------------------------------------------
      Stage               Method / Basis                               Energy [Eh]   Scheme
  ---------------------------------------------------------------------------------------------------------
        scf                   hf / aug-cc-pvqz                      -1493.08196762   xtpl_highest_1
       corl                  mp2 / aug-cc-pv[tq]z                      -1.15740589   corl_xtpl_helgaker_2
      total                  CBS                                    -1494.23937351   
  ---------------------------------------------------------------------------------------------------------
   => Loading Basis Set <=

    Name: DEF2-SVP
    Role: ORBITAL
    Keyword: BASIS
    atoms 1-3    entry CL         line   356 file /home/bdw2292/miniconda3/envs/amoebamdpoltype/share/psi4/basis/def2-svp.gbs 
    atoms 4      entry C          line    90 file /home/bdw2292/miniconda3/envs/amoebamdpoltype/share/psi4/basis/def2-svp.gbs 
    atoms 5, 7-8 entry H          line    15 file /home/bdw2292/miniconda3/envs/amoebamdpoltype/share/psi4/basis/def2-svp.gbs 
    atoms 6      entry O          line   130 file /home/bdw2292/miniconda3/envs/amoebamdpoltype/share/psi4/basis/def2-svp.gbs 


       N-Body: Complex Energy (fragments = (1, 2), basis = (1, 2): -1494.23937351127302)

   ==> N-Body: Counterpoise Corrected (CP) energies <==

   n-Body     Total Energy [Eh]       I.E. [kcal/mol]      Delta [kcal/mol]
        1    -1494.238788717432        0.000000000000        0.000000000000
        2    -1494.239360971745       -0.359095002567       -0.359095002567

   => Loading Basis Set <=

    Name: DEF2-SVP
    Role: ORBITAL
    Keyword: BASIS
    atoms 1-3    entry CL         line   356 file /home/bdw2292/miniconda3/envs/amoebamdpoltype/share/psi4/basis/def2-svp.gbs 
    atoms 4      entry C          line    90 file /home/bdw2292/miniconda3/envs/amoebamdpoltype/share/psi4/basis/def2-svp.gbs 
    atoms 5, 7-8 entry H          line    15 file /home/bdw2292/miniconda3/envs/amoebamdpoltype/share/psi4/basis/def2-svp.gbs 
    atoms 6      entry O          line   130 file /home/bdw2292/miniconda3/envs/amoebamdpoltype/share/psi4/basis/def2-svp.gbs 

CP Energy =  -0.000572
    Psi4 stopped on: Tuesday, 22 February 2022 06:20PM
    Psi4 wall time for execution: 0:07:50.36

*** Psi4 exiting successfully. Buy a developer a beer!
