
    -----------------------------------------------------------------------
          Psi4: An Open-Source Ab Initio Electronic Structure Package
                               Psi4 1.3.2 release

                         Git: Rev {HEAD} ecbda83 


    R. M. Parrish, L. A. Burns, D. G. A. Smith, A. C. Simmonett,
    A. E. DePrince III, E. G. Hohenstein, U. Bozkaya, A. Yu. Sokolov,
    R. Di Remigio, R. M. Richard, J. F. Gonthier, A. M. James,
    H. R. McAlexander, A. Kumar, M. Saitow, X. Wang, B. P. Pritchard,
    P. Verma, H. F. Schaefer III, K. Patkowski, R. A. King, E. F. Valeev,
    F. A. Evangelista, J. M. Turney, T. D. Crawford, and C. D. Sherrill,
    J. Chem. Theory Comput. 13(7) pp 3185--3197 (2017).
    (doi: 10.1021/acs.jctc.7b00174)


                         Additional Contributions by
    P. Kraus, H. Kruse, M. H. Lechner, M. C. Schieber, R. A. Shaw,
    A. Alenaizan, R. Galvelis, Z. L. Glick, S. Lehtola, and J. P. Misiewicz

    -----------------------------------------------------------------------


    Psi4 started on: Tuesday, 22 February 2022 06:29PM

    Process ID: 32320
    Host:       node37.bme.utexas.edu
    PSIDATADIR: /home/bdw2292/miniconda3/envs/amoebamdpoltype/share/psi4
    Memory:     500.0 MiB
    Threads:    1
    
  ==> Input File <==

--------------------------------------------------------------------------
molecule { 
0 1
 Cl                 -0.3305712     1.3344966     0.3964185
 Cl                  1.9152338    -0.4658238     0.0056181
 Cl                 -0.8039666    -1.4804745    -0.1359058
  C                  0.2708983    -0.3046174     0.6122043
  H                  0.2919728    -0.5092524     1.6825174
--
0 1
  O                 -2.0193102     3.5874809    -0.5884353
  H                 -2.6958072     2.9114408    -0.6358294
  H                 -1.6340476     3.6904218    -1.4588650
}
memory 15GB
set_num_threads(4)
psi4_io.set_default_path("/scratch/bdw2292/Psi4-CHCl3")
set maxiter 500
set freeze_core True
set PROPERTIES_ORIGIN ["COM"]
e_dim= energy('mp2/aug-cc-pV[TQ]Z',bsse_type='cp')

psi4.print_out('CP Energy = %10.6f' % (e_dim))
clean()
--------------------------------------------------------------------------

  Memory set to  13.970 GiB by Python driver.
  Threads set to 4 by Python driver.


   ===> N-Body Interaction Abacus <===
        BSSE Treatment:                     cp
        Number of 1-body computations:     4
        Number of 2-body computations:     1

   ==> N-Body: Now computing 1-body complexes <==


       N-Body: Computing complex (1/4) with fragments (2,) in the basis of fragments (2,).


  //>>>>>>>>>>>>>>>>>>>>>>>>>>>>>>>>>>>//
  //   CBS Setup: mp2/aug-cc-pV[TQ]Z   //
  //<<<<<<<<<<<<<<<<<<<<<<<<<<<<<<<<<<<//

    Naive listing of computations required.
             hf / aug-cc-pvqz              for  HF TOTAL ENERGY
            mp2 / aug-cc-pvtz              for  MP2 TOTAL ENERGY
            mp2 / aug-cc-pvqz              for  MP2 TOTAL ENERGY
             hf / aug-cc-pvtz              for  HF TOTAL ENERGY
             hf / aug-cc-pvqz              for  HF TOTAL ENERGY

    Enlightened listing of computations required.
            mp2 / aug-cc-pvtz              for  MP2 TOTAL ENERGY
            mp2 / aug-cc-pvqz              for  MP2 TOTAL ENERGY

    Full listing of computations to be obtained (required and bonus).
             hf / aug-cc-pvtz              for  HF TOTAL ENERGY
            mp2 / aug-cc-pvtz              for  MP2 TOTAL ENERGY
             hf / aug-cc-pvqz              for  HF TOTAL ENERGY
            mp2 / aug-cc-pvqz              for  MP2 TOTAL ENERGY

  //>>>>>>>>>>>>>>>>>>>>>>>>>>>>>>>>>>>>//
  // CBS Computation: MP2 / AUG-CC-PVTZ //
  //<<<<<<<<<<<<<<<<<<<<<<<<<<<<<<<<<<<<//

    SCF Algorithm Type (re)set to DF.

*** tstart() called on node37.bme.utexas.edu
*** at Tue Feb 22 18:29:20 2022

   => Loading Basis Set <=

    Name: AUG-CC-PVTZ
    Role: ORBITAL
    Keyword: BASIS
    atoms 1   entry O          line   327 file /home/bdw2292/miniconda3/envs/amoebamdpoltype/share/psi4/basis/aug-cc-pvtz.gbs 
    atoms 2-3 entry H          line    36 file /home/bdw2292/miniconda3/envs/amoebamdpoltype/share/psi4/basis/aug-cc-pvtz.gbs 


         ---------------------------------------------------------
                                   SCF
               by Justin Turney, Rob Parrish, Andy Simmonett
                          and Daniel G. A. Smith
                              RHF Reference
                        4 Threads,  14305 MiB Core
         ---------------------------------------------------------

  ==> Geometry <==

    Molecular point group: c1
    Full point group: C1

    Geometry (in Angstrom), charge = 0, multiplicity = 1:

       Center              X                  Y                   Z               Mass       
    ------------   -----------------  -----------------  -----------------  -----------------
         O           -1.976511950830     3.304439971300    -0.638649523149    15.994914619570
         H           -2.653008950830     2.628399871300    -0.686043623149     1.007825032230
         H           -1.591249350830     3.407380871300    -1.509079223149     1.007825032230

  Running in c1 symmetry.

  Rotational constants: A =      9.74030  B =      0.06162  C =      0.06148 [cm^-1]
  Rotational constants: A = 292006.73882  B =   1847.41965  C =   1843.14723 [MHz]
  Nuclear repulsion =    9.183451062008400

  Charge       = 0
  Multiplicity = 1
  Electrons    = 10
  Nalpha       = 5
  Nbeta        = 5

  ==> Algorithm <==

  SCF Algorithm Type is DF.
  DIIS enabled.
  MOM disabled.
  Fractional occupation disabled.
  Guess Type is SAD.
  Energy threshold   = 1.00e-08
  Density threshold  = 1.00e-08
  Integral threshold = 0.00e+00

  ==> Primary Basis <==

  Basis Set: AUG-CC-PVTZ
    Blend: AUG-CC-PVTZ
    Number of shells: 32
    Number of basis function: 92
    Number of Cartesian functions: 105
    Spherical Harmonics?: true
    Max angular momentum: 3

   => Loading Basis Set <=

    Name: (AUG-CC-PVTZ AUX)
    Role: JKFIT
    Keyword: DF_BASIS_SCF
    atoms 1   entry O          line   286 file /home/bdw2292/miniconda3/envs/amoebamdpoltype/share/psi4/basis/aug-cc-pvtz-jkfit.gbs 
    atoms 2-3 entry H          line    70 file /home/bdw2292/miniconda3/envs/amoebamdpoltype/share/psi4/basis/aug-cc-pvtz-jkfit.gbs 

  ==> Pre-Iterations <==

   -------------------------------------------------------
    Irrep   Nso     Nmo     Nalpha   Nbeta   Ndocc  Nsocc
   -------------------------------------------------------
     A         92      92       0       0       0       0
   -------------------------------------------------------
    Total      92      92       5       5       5       0
   -------------------------------------------------------

  ==> Integral Setup <==

  DFHelper Memory: AOs need 0.015 GiB; user supplied 10.477 GiB. Using in-core AOs.

  ==> MemDFJK: Density-Fitted J/K Matrices <==

    J tasked:                   Yes
    K tasked:                   Yes
    wK tasked:                   No
    OpenMP threads:               4
    Memory [MiB]:             10728
    Algorithm:                 Core
    Schwarz Cutoff:           1E-12
    Mask sparsity (%):       0.0000
    Fitting Condition:        1E-10

   => Auxiliary Basis Set <=

  Basis Set: (AUG-CC-PVTZ AUX)
    Blend: AUG-CC-PVTZ-JKFIT
    Number of shells: 58
    Number of basis function: 196
    Number of Cartesian functions: 241
    Spherical Harmonics?: true
    Max angular momentum: 4

  Minimum eigenvalue in the overlap matrix is 3.7735682996E-04.
  Using Symmetric Orthogonalization.

  SCF Guess: Superposition of Atomic Densities via on-the-fly atomic UHF.

  ==> Iterations <==

                           Total Energy        Delta E     RMS |[F,P]|

   @DF-RHF iter SAD:   -75.47397113859054   -7.54740e+01   0.00000e+00 
   @DF-RHF iter   1:   -75.97658548643490   -5.02614e-01   5.09404e-03 DIIS
   @DF-RHF iter   2:   -76.02900223155649   -5.24167e-02   3.45205e-03 DIIS
   @DF-RHF iter   3:   -76.06002793575034   -3.10257e-02   2.34432e-04 DIIS
   @DF-RHF iter   4:   -76.06041758652979   -3.89651e-04   5.59732e-05 DIIS
   @DF-RHF iter   5:   -76.06044153489614   -2.39484e-05   1.26003e-05 DIIS
   @DF-RHF iter   6:   -76.06044349059280   -1.95570e-06   2.80424e-06 DIIS
   @DF-RHF iter   7:   -76.06044359837021   -1.07777e-07   5.29931e-07 DIIS
   @DF-RHF iter   8:   -76.06044360178497   -3.41475e-09   8.79009e-08 DIIS
   @DF-RHF iter   9:   -76.06044360185919   -7.42233e-11   2.18450e-08 DIIS
   @DF-RHF iter  10:   -76.06044360186304   -3.85114e-12   2.97904e-09 DIIS
  Energy and wave function converged.


  ==> Post-Iterations <==

    Orbital Energies [Eh]
    ---------------------

    Doubly Occupied:                                                      

       1A    -20.565509     2A     -1.350743     3A     -0.725013  
       4A     -0.577380     5A     -0.509191  

    Virtual:                                                              

       6A      0.029669     7A      0.047446     8A      0.136477  
       9A      0.157868    10A      0.174277    11A      0.182043  
      12A      0.228835    13A      0.244463    14A      0.263858  
      15A      0.304690    16A      0.313200    17A      0.365233  
      18A      0.437957    19A      0.466798    20A      0.602216  
      21A      0.654299    22A      0.711121    23A      0.719314  
      24A      0.731256    25A      0.828039    26A      0.843778  
      27A      0.890012    28A      0.912906    29A      0.920661  
      30A      0.923870    31A      0.927954    32A      0.971242  
      33A      1.022998    34A      1.045320    35A      1.085144  
      36A      1.114093    37A      1.172778    38A      1.177406  
      39A      1.259590    40A      1.514453    41A      1.563407  
      42A      1.595873    43A      1.785333    44A      1.797207  
      45A      2.003407    46A      2.115941    47A      2.259690  
      48A      2.318633    49A      2.321012    50A      2.413389  
      51A      2.414551    52A      2.438576    53A      2.471489  
      54A      2.686760    55A      2.703161    56A      2.768090  
      57A      2.856996    58A      2.883887    59A      3.645371  
      60A      3.769761    61A      4.007399    62A      4.090236  
      63A      4.211589    64A      4.231432    65A      4.335705  
      66A      4.381908    67A      4.400810    68A      4.416311  
      69A      4.493522    70A      4.707837    71A      4.812959  
      72A      5.124840    73A      5.172735    74A      5.306056  
      75A      5.330559    76A      5.513629    77A      5.721479  
      78A      6.140106    79A      6.534354    80A      6.713406  
      81A      6.859095    82A      7.146363    83A      7.262743  
      84A      7.299002    85A      7.308108    86A      7.371006  
      87A      7.387854    88A      7.558688    89A      7.897859  
      90A      7.964020    91A      8.789637    92A     15.861222  

    Final Occupation by Irrep:
              A 
    DOCC [     5 ]

  @DF-RHF Final Energy:   -76.06044360186304

   => Energetics <=

    Nuclear Repulsion Energy =              9.1834510620084000
    One-Electron Energy =                -123.0321173928159766
    Two-Electron Energy =                  37.7882227289445183
    Total Energy =                        -76.0604436018630565

Computation Completed


Properties will be evaluated at  -3.765863,   6.183885,  -1.303927 [a0]

Properties computed using the SCF density matrix

  Nuclear Dipole Moment: [e a0]
     X:    -0.2424      Y:    -0.4770      Z:    -0.7639

  Electronic Dipole Moment: [e a0]
     X:     0.0463      Y:     0.0911      Z:     0.1458

  Dipole Moment: [e a0]
     X:    -0.1961      Y:    -0.3859      Z:    -0.6181     Total:     0.7546

  Dipole Moment: [D]
     X:    -0.4985      Y:    -0.9809      Z:    -1.5710     Total:     1.9180


*** tstop() called on node37.bme.utexas.edu at Tue Feb 22 18:29:24 2022
Module time:
	user time   =       5.68 seconds =       0.09 minutes
	system time =       0.39 seconds =       0.01 minutes
	total time  =          4 seconds =       0.07 minutes
Total time:
	user time   =       5.68 seconds =       0.09 minutes
	system time =       0.39 seconds =       0.01 minutes
	total time  =          4 seconds =       0.07 minutes

*** tstart() called on node37.bme.utexas.edu
*** at Tue Feb 22 18:29:24 2022


  //>>>>>>>>>>>>>>>>>>>>>>>>>>>>>>>>>>>//
  //               DFMP2               //
  //<<<<<<<<<<<<<<<<<<<<<<<<<<<<<<<<<<<//

   => Loading Basis Set <=

    Name: (AUG-CC-PVTZ AUX)
    Role: RIFIT
    Keyword: DF_BASIS_MP2
    atoms 1   entry O          line   264 file /home/bdw2292/miniconda3/envs/amoebamdpoltype/share/psi4/basis/aug-cc-pvtz-ri.gbs 
    atoms 2-3 entry H          line    30 file /home/bdw2292/miniconda3/envs/amoebamdpoltype/share/psi4/basis/aug-cc-pvtz-ri.gbs 

	 --------------------------------------------------------
	                          DF-MP2                         
	      2nd-Order Density-Fitted Moller-Plesset Theory     
	              RMP2 Wavefunction,   4 Threads             
	                                                         
	        Rob Parrish, Justin Turney, Andy Simmonett,      
	           Ed Hohenstein, and C. David Sherrill          
	 --------------------------------------------------------

   => Auxiliary Basis Set <=

  Basis Set: (AUG-CC-PVTZ AUX)
    Blend: AUG-CC-PVTZ-RI
    Number of shells: 56
    Number of basis function: 198
    Number of Cartesian functions: 246
    Spherical Harmonics?: true
    Max angular momentum: 4

	 --------------------------------------------------------
	                 NBF =    92, NAUX =   198
	 --------------------------------------------------------
	   CLASS    FOCC     OCC    AOCC    AVIR     VIR    FVIR
	   PAIRS       1       5       4      87      87       0
	 --------------------------------------------------------

	-----------------------------------------------------------
	 ==================> DF-MP2 Energies <==================== 
	-----------------------------------------------------------
	 Reference Energy          =     -76.0604436018630423 [Eh]
	 Singles Energy            =      -0.0000000000000000 [Eh]
	 Same-Spin Energy          =      -0.0650941314456918 [Eh]
	 Opposite-Spin Energy      =      -0.2029755224348804 [Eh]
	 Correlation Energy        =      -0.2680696538805722 [Eh]
	 Total Energy              =     -76.3285132557436157 [Eh]
	-----------------------------------------------------------
	 ================> DF-SCS-MP2 Energies <================== 
	-----------------------------------------------------------
	 SCS Same-Spin Scale       =       0.3333333333333333 [-]
	 SCS Opposite-Spin Scale   =       1.2000000000000000 [-]
	 SCS Same-Spin Energy      =      -0.0216980438152306 [Eh]
	 SCS Opposite-Spin Energy  =      -0.2435706269218565 [Eh]
	 SCS Correlation Energy    =      -0.2652686707370871 [Eh]
	 SCS Total Energy          =     -76.3257122726001285 [Eh]
	-----------------------------------------------------------


*** tstop() called on node37.bme.utexas.edu at Tue Feb 22 18:29:24 2022
Module time:
	user time   =       1.50 seconds =       0.03 minutes
	system time =       0.13 seconds =       0.00 minutes
	total time  =          0 seconds =       0.00 minutes
Total time:
	user time   =       7.18 seconds =       0.12 minutes
	system time =       0.52 seconds =       0.01 minutes
	total time  =          4 seconds =       0.07 minutes

  //>>>>>>>>>>>>>>>>>>>>>>>>>>>>>>>>>>>>//
  // CBS Computation: MP2 / AUG-CC-PVQZ //
  //<<<<<<<<<<<<<<<<<<<<<<<<<<<<<<<<<<<<//

    SCF Algorithm Type (re)set to DF.

*** tstart() called on node37.bme.utexas.edu
*** at Tue Feb 22 18:29:24 2022

   => Loading Basis Set <=

    Name: AUG-CC-PVQZ
    Role: ORBITAL
    Keyword: BASIS
    atoms 1   entry O          line   419 file /home/bdw2292/miniconda3/envs/amoebamdpoltype/share/psi4/basis/aug-cc-pvqz.gbs 
    atoms 2-3 entry H          line    36 file /home/bdw2292/miniconda3/envs/amoebamdpoltype/share/psi4/basis/aug-cc-pvqz.gbs 


         ---------------------------------------------------------
                                   SCF
               by Justin Turney, Rob Parrish, Andy Simmonett
                          and Daniel G. A. Smith
                              RHF Reference
                        4 Threads,  14305 MiB Core
         ---------------------------------------------------------

  ==> Geometry <==

    Molecular point group: c1
    Full point group: C1

    Geometry (in Angstrom), charge = 0, multiplicity = 1:

       Center              X                  Y                   Z               Mass       
    ------------   -----------------  -----------------  -----------------  -----------------
         O           -1.976511950830     3.304439971300    -0.638649523149    15.994914619570
         H           -2.653008950830     2.628399871300    -0.686043623149     1.007825032230
         H           -1.591249350830     3.407380871300    -1.509079223149     1.007825032230

  Running in c1 symmetry.

  Rotational constants: A =      9.74030  B =      0.06162  C =      0.06148 [cm^-1]
  Rotational constants: A = 292006.73882  B =   1847.41965  C =   1843.14723 [MHz]
  Nuclear repulsion =    9.183451062008400

  Charge       = 0
  Multiplicity = 1
  Electrons    = 10
  Nalpha       = 5
  Nbeta        = 5

  ==> Algorithm <==

  SCF Algorithm Type is DF.
  DIIS enabled.
  MOM disabled.
  Fractional occupation disabled.
  Guess Type is SAD.
  Energy threshold   = 1.00e-08
  Density threshold  = 1.00e-08
  Integral threshold = 0.00e+00

  ==> Primary Basis <==

  Basis Set: AUG-CC-PVQZ
    Blend: AUG-CC-PVQZ
    Number of shells: 48
    Number of basis function: 172
    Number of Cartesian functions: 215
    Spherical Harmonics?: true
    Max angular momentum: 4

   => Loading Basis Set <=

    Name: (AUG-CC-PVQZ AUX)
    Role: JKFIT
    Keyword: DF_BASIS_SCF
    atoms 1   entry O          line   318 file /home/bdw2292/miniconda3/envs/amoebamdpoltype/share/psi4/basis/aug-cc-pvqz-jkfit.gbs 
    atoms 2-3 entry H          line    70 file /home/bdw2292/miniconda3/envs/amoebamdpoltype/share/psi4/basis/aug-cc-pvqz-jkfit.gbs 

  ==> Pre-Iterations <==

   -------------------------------------------------------
    Irrep   Nso     Nmo     Nalpha   Nbeta   Ndocc  Nsocc
   -------------------------------------------------------
     A        172     172       0       0       0       0
   -------------------------------------------------------
    Total     172     172       5       5       5       0
   -------------------------------------------------------

  ==> Integral Setup <==

  DFHelper Memory: AOs need 0.074 GiB; user supplied 10.477 GiB. Using in-core AOs.

  ==> MemDFJK: Density-Fitted J/K Matrices <==

    J tasked:                   Yes
    K tasked:                   Yes
    wK tasked:                   No
    OpenMP threads:               4
    Memory [MiB]:             10728
    Algorithm:                 Core
    Schwarz Cutoff:           1E-12
    Mask sparsity (%):       0.0000
    Fitting Condition:        1E-10

   => Auxiliary Basis Set <=

  Basis Set: (AUG-CC-PVQZ AUX)
    Blend: AUG-CC-PVQZ-JKFIT
    Number of shells: 70
    Number of basis function: 294
    Number of Cartesian functions: 400
    Spherical Harmonics?: true
    Max angular momentum: 5

  Minimum eigenvalue in the overlap matrix is 8.5390280541E-05.
  Using Symmetric Orthogonalization.

  SCF Guess: Superposition of Atomic Densities via on-the-fly atomic UHF.

  ==> Iterations <==

                           Total Energy        Delta E     RMS |[F,P]|

   @DF-RHF iter SAD:   -75.47912734014010   -7.54791e+01   0.00000e+00 
   @DF-RHF iter   1:   -75.98166754875865   -5.02540e-01   2.73049e-03 DIIS
   @DF-RHF iter   2:   -76.03418863068150   -5.25211e-02   1.85468e-03 DIIS
   @DF-RHF iter   3:   -76.06541235194837   -3.12237e-02   1.26307e-04 DIIS
   @DF-RHF iter   4:   -76.06580406097095   -3.91709e-04   3.08572e-05 DIIS
   @DF-RHF iter   5:   -76.06582890816837   -2.48472e-05   6.92073e-06 DIIS
   @DF-RHF iter   6:   -76.06583094614697   -2.03798e-06   1.58151e-06 DIIS
   @DF-RHF iter   7:   -76.06583106516770   -1.19021e-07   3.08441e-07 DIIS
   @DF-RHF iter   8:   -76.06583106919155   -4.02385e-09   4.93579e-08 DIIS
   @DF-RHF iter   9:   -76.06583106927513   -8.35882e-11   1.19501e-08 DIIS
   @DF-RHF iter  10:   -76.06583106927981   -4.67537e-12   1.66098e-09 DIIS
  Energy and wave function converged.


  ==> Post-Iterations <==

    Orbital Energies [Eh]
    ---------------------

    Doubly Occupied:                                                      

       1A    -20.563054     2A     -1.350017     3A     -0.724978  
       4A     -0.577432     5A     -0.509320  

    Virtual:                                                              

       6A      0.027147     7A      0.042877     8A      0.114697  
       9A      0.132617    10A      0.150354    11A      0.157869  
      12A      0.185974    13A      0.197116    14A      0.208279  
      15A      0.241297    16A      0.258922    17A      0.290434  
      18A      0.358088    19A      0.390600    20A      0.471801  
      21A      0.506729    22A      0.543000    23A      0.545716  
      24A      0.554147    25A      0.613312    26A      0.634218  
      27A      0.649587    28A      0.662645    29A      0.665814  
      30A      0.690241    31A      0.705201    32A      0.714925  
      33A      0.769562    34A      0.787618    35A      0.803480  
      36A      0.809883    37A      0.846699    38A      0.855356  
      39A      0.967464    40A      1.134235    41A      1.140804  
      42A      1.216691    43A      1.329066    44A      1.418245  
      45A      1.480504    46A      1.506135    47A      1.521663  
      48A      1.525099    49A      1.555854    50A      1.595485  
      51A      1.618125    52A      1.636626    53A      1.659598  
      54A      1.672456    55A      1.685984    56A      1.702516  
      57A      1.719883    58A      1.763367    59A      1.781468  
      60A      1.793804    61A      1.828568    62A      1.862910  
      63A      1.881892    64A      1.900624    65A      1.953977  
      66A      2.013860    67A      2.021642    68A      2.029542  
      69A      2.099043    70A      2.218811    71A      2.225725  
      72A      2.307066    73A      2.492186    74A      2.642103  
      75A      2.643390    76A      2.890869    77A      2.962249  
      78A      3.010142    79A      3.023854    80A      3.061470  
      81A      3.088401    82A      3.253112    83A      3.283346  
      84A      3.310608    85A      3.529786    86A      3.591085  
      87A      3.658134    88A      3.681818    89A      3.741128  
      90A      3.741320    91A      3.920867    92A      4.066443  
      93A      4.159371    94A      4.170482    95A      4.174807  
      96A      4.181127    97A      4.250840    98A      4.344142  
      99A      4.419000   100A      4.566169   101A      4.663800  
     102A      4.760919   103A      4.802977   104A      4.807014  
     105A      4.839638   106A      4.875524   107A      4.998590  
     108A      5.275996   109A      5.315742   110A      5.512802  
     111A      5.547790   112A      5.878284   113A      5.882495  
     114A      6.080394   115A      6.230589   116A      6.836000  
     117A      6.859234   118A      6.861762   119A      6.955816  
     120A      7.713913   121A      7.780018   122A      7.828577  
     123A      7.845771   124A      7.878217   125A      7.918821  
     126A      7.946788   127A      8.006706   128A      8.197674  
     129A      8.339643   130A      8.536921   131A      8.591210  
     132A      8.705424   133A      8.758587   134A      8.799311  
     135A      8.876027   136A      8.981857   137A      9.063574  
     138A      9.142684   139A      9.529457   140A      9.842570  
     141A      9.962607   142A      9.965905   143A     10.013076  
     144A     10.440234   145A     10.478362   146A     10.654518  
     147A     10.993236   148A     11.038346   149A     11.078698  
     150A     11.260052   151A     11.368883   152A     11.438843  
     153A     11.697201   154A     11.796631   155A     11.834758  
     156A     12.012728   157A     12.175704   158A     12.225276  
     159A     12.532062   160A     12.736624   161A     12.876164  
     162A     12.895386   163A     13.211011   164A     13.998979  
     165A     14.039333   166A     14.488626   167A     14.846777  
     168A     14.876692   169A     15.302024   170A     16.927855  
     171A     17.267109   172A     45.492548  

    Final Occupation by Irrep:
              A 
    DOCC [     5 ]

  @DF-RHF Final Energy:   -76.06583106927981

   => Energetics <=

    Nuclear Repulsion Energy =              9.1834510620084000
    One-Electron Energy =                -123.0489610103772264
    Two-Electron Energy =                  37.7996788790890292
    Total Energy =                        -76.0658310692797954

Computation Completed


Properties will be evaluated at  -3.765863,   6.183885,  -1.303927 [a0]

Properties computed using the SCF density matrix

  Nuclear Dipole Moment: [e a0]
     X:    -0.2424      Y:    -0.4770      Z:    -0.7639

  Electronic Dipole Moment: [e a0]
     X:     0.0465      Y:     0.0915      Z:     0.1465

  Dipole Moment: [e a0]
     X:    -0.1959      Y:    -0.3855      Z:    -0.6174     Total:     0.7537

  Dipole Moment: [D]
     X:    -0.4979      Y:    -0.9798      Z:    -1.5692     Total:     1.9158


*** tstop() called on node37.bme.utexas.edu at Tue Feb 22 18:29:31 2022
Module time:
	user time   =      10.90 seconds =       0.18 minutes
	system time =       0.75 seconds =       0.01 minutes
	total time  =          7 seconds =       0.12 minutes
Total time:
	user time   =      18.10 seconds =       0.30 minutes
	system time =       1.27 seconds =       0.02 minutes
	total time  =         11 seconds =       0.18 minutes

*** tstart() called on node37.bme.utexas.edu
*** at Tue Feb 22 18:29:31 2022


  //>>>>>>>>>>>>>>>>>>>>>>>>>>>>>>>>>>>//
  //               DFMP2               //
  //<<<<<<<<<<<<<<<<<<<<<<<<<<<<<<<<<<<//

   => Loading Basis Set <=

    Name: (AUG-CC-PVQZ AUX)
    Role: RIFIT
    Keyword: DF_BASIS_MP2
    atoms 1   entry O          line   332 file /home/bdw2292/miniconda3/envs/amoebamdpoltype/share/psi4/basis/aug-cc-pvqz-ri.gbs 
    atoms 2-3 entry H          line    30 file /home/bdw2292/miniconda3/envs/amoebamdpoltype/share/psi4/basis/aug-cc-pvqz-ri.gbs 

	 --------------------------------------------------------
	                          DF-MP2                         
	      2nd-Order Density-Fitted Moller-Plesset Theory     
	              RMP2 Wavefunction,   4 Threads             
	                                                         
	        Rob Parrish, Justin Turney, Andy Simmonett,      
	           Ed Hohenstein, and C. David Sherrill          
	 --------------------------------------------------------

   => Auxiliary Basis Set <=

  Basis Set: (AUG-CC-PVQZ AUX)
    Blend: AUG-CC-PVQZ-RI
    Number of shells: 76
    Number of basis function: 328
    Number of Cartesian functions: 447
    Spherical Harmonics?: true
    Max angular momentum: 5

	 --------------------------------------------------------
	                 NBF =   172, NAUX =   328
	 --------------------------------------------------------
	   CLASS    FOCC     OCC    AOCC    AVIR     VIR    FVIR
	   PAIRS       1       5       4     167     167       0
	 --------------------------------------------------------

	-----------------------------------------------------------
	 ==================> DF-MP2 Energies <==================== 
	-----------------------------------------------------------
	 Reference Energy          =     -76.0658310692798096 [Eh]
	 Singles Energy            =      -0.0000000000000000 [Eh]
	 Same-Spin Energy          =      -0.0671636048696035 [Eh]
	 Opposite-Spin Energy      =      -0.2185150870564830 [Eh]
	 Correlation Energy        =      -0.2856786919260865 [Eh]
	 Total Energy              =     -76.3515097612058895 [Eh]
	-----------------------------------------------------------
	 ================> DF-SCS-MP2 Energies <================== 
	-----------------------------------------------------------
	 SCS Same-Spin Scale       =       0.3333333333333333 [-]
	 SCS Opposite-Spin Scale   =       1.2000000000000000 [-]
	 SCS Same-Spin Energy      =      -0.0223878682898678 [Eh]
	 SCS Opposite-Spin Energy  =      -0.2622181044677795 [Eh]
	 SCS Correlation Energy    =      -0.2846059727576474 [Eh]
	 SCS Total Energy          =     -76.3504370420374556 [Eh]
	-----------------------------------------------------------


*** tstop() called on node37.bme.utexas.edu at Tue Feb 22 18:29:32 2022
Module time:
	user time   =       3.32 seconds =       0.06 minutes
	system time =       0.28 seconds =       0.00 minutes
	total time  =          1 seconds =       0.02 minutes
Total time:
	user time   =      21.47 seconds =       0.36 minutes
	system time =       1.56 seconds =       0.03 minutes
	total time  =         12 seconds =       0.20 minutes

  //>>>>>>>>>>>>>>>>>>>>>>>>>>>>>>>>>>>//
  //  CBS Results: mp2/aug-cc-pV[TQ]Z  //
  //<<<<<<<<<<<<<<<<<<<<<<<<<<<<<<<<<<<//


   ==> HF <==

   HI-zeta (4) Energy:               -76.065831069280


   ==> Helgaker 2-point correlated extrapolation for method: MP2 <==

   LO-zeta (3) Energy:               -76.328513255744
   HI-zeta (4) Energy:               -76.351509761206
   Alpha (exponent) Value:             3.000000000000
   Extrapolated Energy:              -76.368290994922

   @Extrapolated MP2/(T,Q):          -76.368290994922



   ==> Helgaker 2-point correlated extrapolation for method: HF <==

   LO-zeta (3) Energy:               -76.060443601863
   HI-zeta (4) Energy:               -76.065831069280
   Alpha (exponent) Value:             3.000000000000
   Extrapolated Energy:              -76.069762464422

   @Extrapolated HF/(T,Q):           -76.069762464422


   ==> Components <==

  ---------------------------------------------------------------------------------------------------------
                          Method / Basis                      Rqd      Energy [Eh]   Variable
  ---------------------------------------------------------------------------------------------------------
                              hf / aug-cc-pvtz                  *     -76.06044360   HF TOTAL ENERGY
                             mp2 / aug-cc-pvtz                  *     -76.32851326   MP2 TOTAL ENERGY
                              hf / aug-cc-pvqz                  *     -76.06583107   HF TOTAL ENERGY
                             mp2 / aug-cc-pvqz                  *     -76.35150976   MP2 TOTAL ENERGY
  ---------------------------------------------------------------------------------------------------------

   ==> Stages <==

  ---------------------------------------------------------------------------------------------------------
      Stage               Method / Basis                       Wt      Energy [Eh]   Scheme
  ---------------------------------------------------------------------------------------------------------
        scf                   hf / aug-cc-pvqz                  1     -76.06583107   xtpl_highest_1
       corl                  mp2 / aug-cc-pv[tq]z               1     -76.36829099   corl_xtpl_helgaker_2
       corl                   hf / aug-cc-pv[tq]z              -1     -76.06976246   corl_xtpl_helgaker_2
  ---------------------------------------------------------------------------------------------------------

   ==> CBS <==

  ---------------------------------------------------------------------------------------------------------
      Stage               Method / Basis                               Energy [Eh]   Scheme
  ---------------------------------------------------------------------------------------------------------
        scf                   hf / aug-cc-pvqz                        -76.06583107   xtpl_highest_1
       corl                  mp2 / aug-cc-pv[tq]z                      -0.29852853   corl_xtpl_helgaker_2
      total                  CBS                                      -76.36435960   
  ---------------------------------------------------------------------------------------------------------
   => Loading Basis Set <=

    Name: DEF2-SVP
    Role: ORBITAL
    Keyword: BASIS
    atoms 1   entry O          line   130 file /home/bdw2292/miniconda3/envs/amoebamdpoltype/share/psi4/basis/def2-svp.gbs 
    atoms 2-3 entry H          line    15 file /home/bdw2292/miniconda3/envs/amoebamdpoltype/share/psi4/basis/def2-svp.gbs 


       N-Body: Complex Energy (fragments = (2,), basis = (2,):   -76.36435959977966)

       N-Body: Computing complex (2/4) with fragments (2,) in the basis of fragments (1, 2).


  //>>>>>>>>>>>>>>>>>>>>>>>>>>>>>>>>>>>//
  //   CBS Setup: mp2/aug-cc-pV[TQ]Z   //
  //<<<<<<<<<<<<<<<<<<<<<<<<<<<<<<<<<<<//

    Naive listing of computations required.
             hf / aug-cc-pvqz              for  HF TOTAL ENERGY
            mp2 / aug-cc-pvtz              for  MP2 TOTAL ENERGY
            mp2 / aug-cc-pvqz              for  MP2 TOTAL ENERGY
             hf / aug-cc-pvtz              for  HF TOTAL ENERGY
             hf / aug-cc-pvqz              for  HF TOTAL ENERGY

    Enlightened listing of computations required.
            mp2 / aug-cc-pvtz              for  MP2 TOTAL ENERGY
            mp2 / aug-cc-pvqz              for  MP2 TOTAL ENERGY

    Full listing of computations to be obtained (required and bonus).
             hf / aug-cc-pvtz              for  HF TOTAL ENERGY
            mp2 / aug-cc-pvtz              for  MP2 TOTAL ENERGY
             hf / aug-cc-pvqz              for  HF TOTAL ENERGY
            mp2 / aug-cc-pvqz              for  MP2 TOTAL ENERGY

  //>>>>>>>>>>>>>>>>>>>>>>>>>>>>>>>>>>>>//
  // CBS Computation: MP2 / AUG-CC-PVTZ //
  //<<<<<<<<<<<<<<<<<<<<<<<<<<<<<<<<<<<<//

    SCF Algorithm Type (re)set to DF.

*** tstart() called on node37.bme.utexas.edu
*** at Tue Feb 22 18:29:34 2022

   => Loading Basis Set <=

    Name: AUG-CC-PVTZ
    Role: ORBITAL
    Keyword: BASIS
    atoms 1-3    entry CL         line   984 file /home/bdw2292/miniconda3/envs/amoebamdpoltype/share/psi4/basis/aug-cc-pvtz.gbs 
    atoms 4      entry C          line   235 file /home/bdw2292/miniconda3/envs/amoebamdpoltype/share/psi4/basis/aug-cc-pvtz.gbs 
    atoms 5, 7-8 entry H          line    36 file /home/bdw2292/miniconda3/envs/amoebamdpoltype/share/psi4/basis/aug-cc-pvtz.gbs 
    atoms 6      entry O          line   327 file /home/bdw2292/miniconda3/envs/amoebamdpoltype/share/psi4/basis/aug-cc-pvtz.gbs 


         ---------------------------------------------------------
                                   SCF
               by Justin Turney, Rob Parrish, Andy Simmonett
                          and Daniel G. A. Smith
                              RHF Reference
                        4 Threads,  14305 MiB Core
         ---------------------------------------------------------

  ==> Geometry <==

    Molecular point group: c1
    Full point group: C1

    Geometry (in Angstrom), charge = 0, multiplicity = 1:

       Center              X                  Y                   Z               Mass       
    ------------   -----------------  -----------------  -----------------  -----------------
      Gh(CL)         -0.287772950830     1.051455671300     0.346204276851    34.968852682000
      Gh(CL)          1.958032049170    -0.748864728700    -0.044596123149    34.968852682000
      Gh(CL)         -0.761168350830    -1.763515428700    -0.186120023149    34.968852682000
      Gh(C)           0.313696549170    -0.587658328700     0.561990076851    12.000000000000
      Gh(H)           0.334771049170    -0.792293328700     1.632303176851     1.007825032230
         O           -1.976511950830     3.304439971300    -0.638649523149    15.994914619570
         H           -2.653008950830     2.628399871300    -0.686043623149     1.007825032230
         H           -1.591249350830     3.407380871300    -1.509079223149     1.007825032230

  Running in c1 symmetry.

  Rotational constants: A =      0.10116  B =      0.03599  C =      0.02815 [cm^-1]
  Rotational constants: A =   3032.65543  B =   1078.81531  C =    843.83334 [MHz]
  Nuclear repulsion =    9.183451062008400

  Charge       = 0
  Multiplicity = 1
  Electrons    = 10
  Nalpha       = 5
  Nbeta        = 5

  ==> Algorithm <==

  SCF Algorithm Type is DF.
  DIIS enabled.
  MOM disabled.
  Fractional occupation disabled.
  Guess Type is SAD.
  Energy threshold   = 1.00e-08
  Density threshold  = 1.00e-08
  Integral threshold = 0.00e+00

  ==> Primary Basis <==

  Basis Set: AUG-CC-PVTZ
    Blend: AUG-CC-PVTZ
    Number of shells: 103
    Number of basis function: 311
    Number of Cartesian functions: 362
    Spherical Harmonics?: true
    Max angular momentum: 3

   => Loading Basis Set <=

    Name: (AUG-CC-PVTZ AUX)
    Role: JKFIT
    Keyword: DF_BASIS_SCF
    atoms 1-3    entry CL         line   816 file /home/bdw2292/miniconda3/envs/amoebamdpoltype/share/psi4/basis/aug-cc-pvtz-jkfit.gbs 
    atoms 4      entry C          line   162 file /home/bdw2292/miniconda3/envs/amoebamdpoltype/share/psi4/basis/aug-cc-pvtz-jkfit.gbs 
    atoms 5, 7-8 entry H          line    70 file /home/bdw2292/miniconda3/envs/amoebamdpoltype/share/psi4/basis/aug-cc-pvtz-jkfit.gbs 
    atoms 6      entry O          line   286 file /home/bdw2292/miniconda3/envs/amoebamdpoltype/share/psi4/basis/aug-cc-pvtz-jkfit.gbs 

  ==> Pre-Iterations <==

   -------------------------------------------------------
    Irrep   Nso     Nmo     Nalpha   Nbeta   Ndocc  Nsocc
   -------------------------------------------------------
     A        311     311       0       0       0       0
   -------------------------------------------------------
    Total     311     311       5       5       5       0
   -------------------------------------------------------

  ==> Integral Setup <==

  DFHelper Memory: AOs need 0.554 GiB; user supplied 10.477 GiB. Using in-core AOs.

  ==> MemDFJK: Density-Fitted J/K Matrices <==

    J tasked:                   Yes
    K tasked:                   Yes
    wK tasked:                   No
    OpenMP threads:               4
    Memory [MiB]:             10728
    Algorithm:                 Core
    Schwarz Cutoff:           1E-12
    Mask sparsity (%):       6.7018
    Fitting Condition:        1E-10

   => Auxiliary Basis Set <=

  Basis Set: (AUG-CC-PVTZ AUX)
    Blend: AUG-CC-PVTZ-JKFIT
    Number of shells: 228
    Number of basis function: 784
    Number of Cartesian functions: 967
    Spherical Harmonics?: true
    Max angular momentum: 4

  Minimum eigenvalue in the overlap matrix is 5.6629892077E-05.
  Using Symmetric Orthogonalization.

  SCF Guess: Superposition of Atomic Densities via on-the-fly atomic UHF.

  ==> Iterations <==

                           Total Energy        Delta E     RMS |[F,P]|

   @DF-RHF iter SAD:   -75.47397113249114   -7.54740e+01   0.00000e+00 
   @DF-RHF iter   1:   -75.97663605696246   -5.02665e-01   1.50701e-03 DIIS
   @DF-RHF iter   2:   -76.02906034595890   -5.24243e-02   1.02125e-03 DIIS
   @DF-RHF iter   3:   -76.06008470447446   -3.10244e-02   6.93549e-05 DIIS
   @DF-RHF iter   4:   -76.06047442924960   -3.89725e-04   1.65657e-05 DIIS
   @DF-RHF iter   5:   -76.06049840463693   -2.39754e-05   3.72869e-06 DIIS
   @DF-RHF iter   6:   -76.06050036244523   -1.95781e-06   8.30183e-07 DIIS
   @DF-RHF iter   7:   -76.06050047048301   -1.08038e-07   1.57156e-07 DIIS
   @DF-RHF iter   8:   -76.06050047392321   -3.44021e-09   2.60983e-08 DIIS
   @DF-RHF iter   9:   -76.06050047399795   -7.47349e-11   6.47537e-09 DIIS
  Energy and wave function converged.


  ==> Post-Iterations <==

    Orbital Energies [Eh]
    ---------------------

    Doubly Occupied:                                                      

       1A    -20.565408     2A     -1.350681     3A     -0.724953  
       4A     -0.577321     5A     -0.509188  

    Virtual:                                                              

       6A      0.021261     7A      0.036631     8A      0.044592  
       9A      0.055626    10A      0.064051    11A      0.076469  
      12A      0.104939    13A      0.109219    14A      0.109735  
      15A      0.113429    16A      0.123686    17A      0.133411  
      18A      0.146593    19A      0.156738    20A      0.157986  
      21A      0.166903    22A      0.174636    23A      0.178530  
      24A      0.185544    25A      0.191697    26A      0.202280  
      27A      0.217866    28A      0.232778    29A      0.250782  
      30A      0.264124    31A      0.283576    32A      0.313801  
      33A      0.321933    34A      0.325856    35A      0.335564  
      36A      0.346861    37A      0.356194    38A      0.369710  
      39A      0.371485    40A      0.381186    41A      0.391324  
      42A      0.402188    43A      0.408802    44A      0.421481  
      45A      0.422141    46A      0.427417    47A      0.435579  
      48A      0.453966    49A      0.461829    50A      0.468498  
      51A      0.473981    52A      0.487677    53A      0.509188  
      54A      0.516807    55A      0.516980    56A      0.537219  
      57A      0.550175    58A      0.565355    59A      0.577398  
      60A      0.585226    61A      0.605005    62A      0.612751  
      63A      0.635026    64A      0.641921    65A      0.647145  
      66A      0.654408    67A      0.670889    68A      0.675650  
      69A      0.705064    70A      0.733874    71A      0.741246  
      72A      0.750227    73A      0.767700    74A      0.779955  
      75A      0.804406    76A      0.818241    77A      0.822193  
      78A      0.836388    79A      0.840249    80A      0.855733  
      81A      0.873110    82A      0.886516    83A      0.929289  
      84A      0.938182    85A      0.957577    86A      0.972561  
      87A      1.013312    88A      1.025737    89A      1.049346  
      90A      1.057113    91A      1.073440    92A      1.087015  
      93A      1.092249    94A      1.116084    95A      1.130709  
      96A      1.159891    97A      1.169455    98A      1.178562  
      99A      1.185077   100A      1.191817   101A      1.216879  
     102A      1.242344   103A      1.248415   104A      1.252218  
     105A      1.267220   106A      1.274967   107A      1.296994  
     108A      1.310230   109A      1.314241   110A      1.331311  
     111A      1.342220   112A      1.351600   113A      1.353949  
     114A      1.362591   115A      1.381422   116A      1.411159  
     117A      1.426931   118A      1.432334   119A      1.446999  
     120A      1.452510   121A      1.494826   122A      1.496338  
     123A      1.500824   124A      1.508061   125A      1.510446  
     126A      1.517007   127A      1.538338   128A      1.545260  
     129A      1.549155   130A      1.557176   131A      1.565731  
     132A      1.580671   133A      1.585807   134A      1.596301  
     135A      1.605144   136A      1.608785   137A      1.626881  
     138A      1.648495   139A      1.669205   140A      1.682749  
     141A      1.691830   142A      1.697393   143A      1.747402  
     144A      1.754108   145A      1.786709   146A      1.801079  
     147A      1.823249   148A      1.834164   149A      1.862634  
     150A      1.881834   151A      1.893247   152A      1.943647  
     153A      2.019409   154A      2.046224   155A      2.060427  
     156A      2.105824   157A      2.121994   158A      2.130775  
     159A      2.140437   160A      2.164453   161A      2.166852  
     162A      2.174160   163A      2.203660   164A      2.254245  
     165A      2.270353   166A      2.309067   167A      2.339842  
     168A      2.374581   169A      2.382341   170A      2.397174  
     171A      2.445169   172A      2.466904   173A      2.486406  
     174A      2.511862   175A      2.538824   176A      2.553270  
     177A      2.574895   178A      2.582685   179A      2.613901  
     180A      2.682071   181A      2.738030   182A      2.749602  
     183A      2.774225   184A      2.805753   185A      2.834626  
     186A      2.863861   187A      2.939311   188A      3.060134  
     189A      3.708443   190A      3.811448   191A      3.832500  
     192A      3.848405   193A      3.866023   194A      3.885361  
     195A      3.968736   196A      3.972142   197A      3.972803  
     198A      3.974258   199A      3.989216   200A      3.992374  
     201A      4.005101   202A      4.010503   203A      4.018053  
     204A      4.045215   205A      4.057561   206A      4.069630  
     207A      4.081603   208A      4.124838   209A      4.132873  
     210A      4.139322   211A      4.171690   212A      4.178003  
     213A      4.188399   214A      4.200040   215A      4.206508  
     216A      4.213611   217A      4.221461   218A      4.239062  
     219A      4.251700   220A      4.263859   221A      4.282452  
     222A      4.329613   223A      4.392991   224A      4.414352  
     225A      4.421989   226A      4.434188   227A      4.465028  
     228A      4.465806   229A      4.469340   230A      4.497490  
     231A      4.512520   232A      4.594952   233A      4.612150  
     234A      4.681066   235A      4.730542   236A      4.742742  
     237A      4.744702   238A      4.752918   239A      4.767297  
     240A      4.779443   241A      4.784643   242A      4.793626  
     243A      4.807895   244A      4.809412   245A      4.825433  
     246A      4.846707   247A      4.867271   248A      4.901807  
     249A      4.907396   250A      4.919839   251A      4.931487  
     252A      4.934186   253A      5.094744   254A      5.106042  
     255A      5.141960   256A      5.146047   257A      5.157376  
     258A      5.219339   259A      5.255622   260A      5.271682  
     261A      5.316463   262A      5.330265   263A      5.346120  
     264A      5.379579   265A      5.484930   266A      5.491339  
     267A      5.557191   268A      5.625370   269A      5.749330  
     270A      5.784554   271A      5.978091   272A      5.986135  
     273A      6.176244   274A      6.200772   275A      6.244327  
     276A      6.398290   277A      6.572453   278A      6.735290  
     279A      6.758580   280A      6.888600   281A      7.205139  
     282A      7.304246   283A      7.331258   284A      7.366127  
     285A      7.391423   286A      7.397721   287A      7.583248  
     288A      7.906875   289A      7.913809   290A      7.937091  
     291A      7.982674   292A      8.107261   293A      8.812222  
     294A      9.413647   295A     15.842926   296A     16.090962  
     297A     16.441158   298A     16.607522   299A     28.066045  
     300A     28.126406   301A     28.133175   302A     28.150623  
     303A     28.220706   304A     28.223143   305A     28.855057  
     306A     28.889646   307A     29.395426   308A     45.636268  
     309A    160.982513   310A    161.050985   311A    161.078765  

    Final Occupation by Irrep:
              A 
    DOCC [     5 ]

  @DF-RHF Final Energy:   -76.06050047399795

   => Energetics <=

    Nuclear Repulsion Energy =              9.1834510620084000
    One-Electron Energy =                -123.0327969872583367
    Two-Electron Energy =                  37.7888454512519871
    Total Energy =                        -76.0605004739979478

Computation Completed


Properties will be evaluated at   0.000000,  -0.000000,  -0.000000 [a0]

Properties computed using the SCF density matrix

  Nuclear Dipole Moment: [e a0]
     X:   -37.9010      Y:    61.3619      Z:   -13.8032

  Electronic Dipole Moment: [e a0]
     X:    37.7049      Y:   -61.7475      Z:    13.1854

  Dipole Moment: [e a0]
     X:    -0.1961      Y:    -0.3856      Z:    -0.6178     Total:     0.7542

  Dipole Moment: [D]
     X:    -0.4984      Y:    -0.9802      Z:    -1.5702     Total:     1.9170


*** tstop() called on node37.bme.utexas.edu at Tue Feb 22 18:29:53 2022
Module time:
	user time   =      36.93 seconds =       0.62 minutes
	system time =       2.18 seconds =       0.04 minutes
	total time  =         19 seconds =       0.32 minutes
Total time:
	user time   =      60.22 seconds =       1.00 minutes
	system time =       3.78 seconds =       0.06 minutes
	total time  =         33 seconds =       0.55 minutes

*** tstart() called on node37.bme.utexas.edu
*** at Tue Feb 22 18:29:53 2022


  //>>>>>>>>>>>>>>>>>>>>>>>>>>>>>>>>>>>//
  //               DFMP2               //
  //<<<<<<<<<<<<<<<<<<<<<<<<<<<<<<<<<<<//

   => Loading Basis Set <=

    Name: (AUG-CC-PVTZ AUX)
    Role: RIFIT
    Keyword: DF_BASIS_MP2
    atoms 1-3    entry CL         line   742 file /home/bdw2292/miniconda3/envs/amoebamdpoltype/share/psi4/basis/aug-cc-pvtz-ri.gbs 
    atoms 4      entry C          line   148 file /home/bdw2292/miniconda3/envs/amoebamdpoltype/share/psi4/basis/aug-cc-pvtz-ri.gbs 
    atoms 5, 7-8 entry H          line    30 file /home/bdw2292/miniconda3/envs/amoebamdpoltype/share/psi4/basis/aug-cc-pvtz-ri.gbs 
    atoms 6      entry O          line   264 file /home/bdw2292/miniconda3/envs/amoebamdpoltype/share/psi4/basis/aug-cc-pvtz-ri.gbs 

	 --------------------------------------------------------
	                          DF-MP2                         
	      2nd-Order Density-Fitted Moller-Plesset Theory     
	              RMP2 Wavefunction,   4 Threads             
	                                                         
	        Rob Parrish, Justin Turney, Andy Simmonett,      
	           Ed Hohenstein, and C. David Sherrill          
	 --------------------------------------------------------

   => Auxiliary Basis Set <=

  Basis Set: (AUG-CC-PVTZ AUX)
    Blend: AUG-CC-PVTZ-RI
    Number of shells: 209
    Number of basis function: 791
    Number of Cartesian functions: 1010
    Spherical Harmonics?: true
    Max angular momentum: 4

	 --------------------------------------------------------
	                 NBF =   311, NAUX =   791
	 --------------------------------------------------------
	   CLASS    FOCC     OCC    AOCC    AVIR     VIR    FVIR
	   PAIRS       1       5       4     306     306       0
	 --------------------------------------------------------

	-----------------------------------------------------------
	 ==================> DF-MP2 Energies <==================== 
	-----------------------------------------------------------
	 Reference Energy          =     -76.0605004739979478 [Eh]
	 Singles Energy            =      -0.0000000000000000 [Eh]
	 Same-Spin Energy          =      -0.0651066923407754 [Eh]
	 Opposite-Spin Energy      =      -0.2031266958716350 [Eh]
	 Correlation Energy        =      -0.2682333882124104 [Eh]
	 Total Energy              =     -76.3287338622103562 [Eh]
	-----------------------------------------------------------
	 ================> DF-SCS-MP2 Energies <================== 
	-----------------------------------------------------------
	 SCS Same-Spin Scale       =       0.3333333333333333 [-]
	 SCS Opposite-Spin Scale   =       1.2000000000000000 [-]
	 SCS Same-Spin Energy      =      -0.0217022307802585 [Eh]
	 SCS Opposite-Spin Energy  =      -0.2437520350459619 [Eh]
	 SCS Correlation Energy    =      -0.2654542658262204 [Eh]
	 SCS Total Energy          =     -76.3259547398241693 [Eh]
	-----------------------------------------------------------


*** tstop() called on node37.bme.utexas.edu at Tue Feb 22 18:30:03 2022
Module time:
	user time   =      12.82 seconds =       0.21 minutes
	system time =       1.63 seconds =       0.03 minutes
	total time  =         10 seconds =       0.17 minutes
Total time:
	user time   =      73.04 seconds =       1.22 minutes
	system time =       5.41 seconds =       0.09 minutes
	total time  =         43 seconds =       0.72 minutes

  //>>>>>>>>>>>>>>>>>>>>>>>>>>>>>>>>>>>>//
  // CBS Computation: MP2 / AUG-CC-PVQZ //
  //<<<<<<<<<<<<<<<<<<<<<<<<<<<<<<<<<<<<//

    SCF Algorithm Type (re)set to DF.

*** tstart() called on node37.bme.utexas.edu
*** at Tue Feb 22 18:30:03 2022

   => Loading Basis Set <=

    Name: AUG-CC-PVQZ
    Role: ORBITAL
    Keyword: BASIS
    atoms 1-3    entry CL         line  1218 file /home/bdw2292/miniconda3/envs/amoebamdpoltype/share/psi4/basis/aug-cc-pvqz.gbs 
    atoms 4      entry C          line   299 file /home/bdw2292/miniconda3/envs/amoebamdpoltype/share/psi4/basis/aug-cc-pvqz.gbs 
    atoms 5, 7-8 entry H          line    36 file /home/bdw2292/miniconda3/envs/amoebamdpoltype/share/psi4/basis/aug-cc-pvqz.gbs 
    atoms 6      entry O          line   419 file /home/bdw2292/miniconda3/envs/amoebamdpoltype/share/psi4/basis/aug-cc-pvqz.gbs 


         ---------------------------------------------------------
                                   SCF
               by Justin Turney, Rob Parrish, Andy Simmonett
                          and Daniel G. A. Smith
                              RHF Reference
                        4 Threads,  14305 MiB Core
         ---------------------------------------------------------

  ==> Geometry <==

    Molecular point group: c1
    Full point group: C1

    Geometry (in Angstrom), charge = 0, multiplicity = 1:

       Center              X                  Y                   Z               Mass       
    ------------   -----------------  -----------------  -----------------  -----------------
      Gh(CL)         -0.287772950830     1.051455671300     0.346204276851    34.968852682000
      Gh(CL)          1.958032049170    -0.748864728700    -0.044596123149    34.968852682000
      Gh(CL)         -0.761168350830    -1.763515428700    -0.186120023149    34.968852682000
      Gh(C)           0.313696549170    -0.587658328700     0.561990076851    12.000000000000
      Gh(H)           0.334771049170    -0.792293328700     1.632303176851     1.007825032230
         O           -1.976511950830     3.304439971300    -0.638649523149    15.994914619570
         H           -2.653008950830     2.628399871300    -0.686043623149     1.007825032230
         H           -1.591249350830     3.407380871300    -1.509079223149     1.007825032230

  Running in c1 symmetry.

  Rotational constants: A =      0.10116  B =      0.03599  C =      0.02815 [cm^-1]
  Rotational constants: A =   3032.65543  B =   1078.81531  C =    843.83334 [MHz]
  Nuclear repulsion =    9.183451062008400

  Charge       = 0
  Multiplicity = 1
  Electrons    = 10
  Nalpha       = 5
  Nbeta        = 5

  ==> Algorithm <==

  SCF Algorithm Type is DF.
  DIIS enabled.
  MOM disabled.
  Fractional occupation disabled.
  Guess Type is SAD.
  Energy threshold   = 1.00e-08
  Density threshold  = 1.00e-08
  Integral threshold = 0.00e+00

  ==> Primary Basis <==

  Basis Set: AUG-CC-PVQZ
    Blend: AUG-CC-PVQZ
    Number of shells: 148
    Number of basis function: 550
    Number of Cartesian functions: 702
    Spherical Harmonics?: true
    Max angular momentum: 4

   => Loading Basis Set <=

    Name: (AUG-CC-PVQZ AUX)
    Role: JKFIT
    Keyword: DF_BASIS_SCF
    atoms 1-3    entry CL         line   904 file /home/bdw2292/miniconda3/envs/amoebamdpoltype/share/psi4/basis/aug-cc-pvqz-jkfit.gbs 
    atoms 4      entry C          line   178 file /home/bdw2292/miniconda3/envs/amoebamdpoltype/share/psi4/basis/aug-cc-pvqz-jkfit.gbs 
    atoms 5, 7-8 entry H          line    70 file /home/bdw2292/miniconda3/envs/amoebamdpoltype/share/psi4/basis/aug-cc-pvqz-jkfit.gbs 
    atoms 6      entry O          line   318 file /home/bdw2292/miniconda3/envs/amoebamdpoltype/share/psi4/basis/aug-cc-pvqz-jkfit.gbs 

  ==> Pre-Iterations <==

   -------------------------------------------------------
    Irrep   Nso     Nmo     Nalpha   Nbeta   Ndocc  Nsocc
   -------------------------------------------------------
     A        550     550       0       0       0       0
   -------------------------------------------------------
    Total     550     550       5       5       5       0
   -------------------------------------------------------

  ==> Integral Setup <==

  DFHelper Memory: AOs need 2.239 GiB; user supplied 10.477 GiB. Using in-core AOs.

  ==> MemDFJK: Density-Fitted J/K Matrices <==

    J tasked:                   Yes
    K tasked:                   Yes
    wK tasked:                   No
    OpenMP threads:               4
    Memory [MiB]:             10728
    Algorithm:                 Disk
    Schwarz Cutoff:           1E-12
    Mask sparsity (%):      10.4443
    Fitting Condition:        1E-10

   => Auxiliary Basis Set <=

  Basis Set: (AUG-CC-PVQZ AUX)
    Blend: AUG-CC-PVQZ-JKFIT
    Number of shells: 260
    Number of basis function: 1064
    Number of Cartesian functions: 1440
    Spherical Harmonics?: true
    Max angular momentum: 5

  Minimum eigenvalue in the overlap matrix is 1.1194537942E-05.
  Using Symmetric Orthogonalization.

  SCF Guess: Superposition of Atomic Densities via on-the-fly atomic UHF.

  ==> Iterations <==

                           Total Energy        Delta E     RMS |[F,P]|

   @DF-RHF iter SAD:   -75.47912732758812   -7.54791e+01   0.00000e+00 
   @DF-RHF iter   1:   -75.98168443209647   -5.02557e-01   8.53924e-04 DIIS
   @DF-RHF iter   2:   -76.03420883420686   -5.25244e-02   5.80032e-04 DIIS
   @DF-RHF iter   3:   -76.06543173834241   -3.12229e-02   3.95024e-05 DIIS
   @DF-RHF iter   4:   -76.06582348836653   -3.91750e-04   9.65029e-06 DIIS
   @DF-RHF iter   5:   -76.06584833910360   -2.48507e-05   2.16490e-06 DIIS
   @DF-RHF iter   6:   -76.06585037833125   -2.03923e-06   4.94714e-07 DIIS
   @DF-RHF iter   7:   -76.06585049746216   -1.19131e-07   9.65695e-08 DIIS
   @DF-RHF iter   8:   -76.06585050150095   -4.03878e-09   1.54699e-08 DIIS
   @DF-RHF iter   9:   -76.06585050158557   -8.46256e-11   3.74188e-09 DIIS
  Energy and wave function converged.


  ==> Post-Iterations <==

    Orbital Energies [Eh]
    ---------------------

    Doubly Occupied:                                                      

       1A    -20.563027     2A     -1.349990     3A     -0.724952  
       4A     -0.577408     5A     -0.509313  

    Virtual:                                                              

       6A      0.018828     7A      0.033219     8A      0.039499  
       9A      0.048754    10A      0.056683    11A      0.067049  
      12A      0.090598    13A      0.090840    14A      0.092576  
      15A      0.095076    16A      0.104974    17A      0.115396  
      18A      0.126476    19A      0.133576    20A      0.135423  
      21A      0.143276    22A      0.147630    23A      0.153547  
      24A      0.159299    25A      0.164295    26A      0.175062  
      27A      0.185828    28A      0.193856    29A      0.204541  
      30A      0.227599    31A      0.237897    32A      0.247493  
      33A      0.256744    34A      0.265165    35A      0.268888  
      36A      0.269786    37A      0.279707    38A      0.290327  
      39A      0.297032    40A      0.310397    41A      0.313535  
      42A      0.318719    43A      0.326273    44A      0.331841  
      45A      0.336191    46A      0.344123    47A      0.350378  
      48A      0.354368    49A      0.363956    50A      0.378901  
      51A      0.386415    52A      0.393976    53A      0.396425  
      54A      0.404663    55A      0.409409    56A      0.412729  
      57A      0.418778    58A      0.427589    59A      0.435193  
      60A      0.459507    61A      0.465741    62A      0.476571  
      63A      0.491093    64A      0.497089    65A      0.501325  
      66A      0.514042    67A      0.521158    68A      0.533233  
      69A      0.556113    70A      0.563276    71A      0.570060  
      72A      0.573603    73A      0.576934    74A      0.583689  
      75A      0.604623    76A      0.617511    77A      0.632508  
      78A      0.640346    79A      0.654536    80A      0.662127  
      81A      0.670015    82A      0.681196    83A      0.717718  
      84A      0.722470    85A      0.727823    86A      0.739822  
      87A      0.763233    88A      0.776425    89A      0.784641  
      90A      0.792101    91A      0.794801    92A      0.813786  
      93A      0.822328    94A      0.824503    95A      0.840771  
      96A      0.847910    97A      0.849828    98A      0.862493  
      99A      0.868849   100A      0.874125   101A      0.879560  
     102A      0.898393   103A      0.910836   104A      0.914723  
     105A      0.936896   106A      0.941825   107A      0.949215  
     108A      0.951845   109A      0.962842   110A      0.968403  
     111A      0.975028   112A      0.990821   113A      0.993279  
     114A      1.002031   115A      1.012447   116A      1.020036  
     117A      1.024456   118A      1.032386   119A      1.042982  
     120A      1.046238   121A      1.053548   122A      1.058462  
     123A      1.065293   124A      1.077189   125A      1.092718  
     126A      1.094865   127A      1.107867   128A      1.108815  
     129A      1.120753   130A      1.129167   131A      1.136572  
     132A      1.163200   133A      1.164286   134A      1.173830  
     135A      1.182956   136A      1.187844   137A      1.197906  
     138A      1.207650   139A      1.220249   140A      1.224344  
     141A      1.247405   142A      1.255162   143A      1.281888  
     144A      1.305408   145A      1.315434   146A      1.332085  
     147A      1.343109   148A      1.358864   149A      1.374248  
     150A      1.417758   151A      1.436340   152A      1.470283  
     153A      1.514356   154A      1.534221   155A      1.542196  
     156A      1.558682   157A      1.565749   158A      1.571318  
     159A      1.586133   160A      1.596031   161A      1.603288  
     162A      1.613926   163A      1.618020   164A      1.623485  
     165A      1.636130   166A      1.639861   167A      1.648055  
     168A      1.668376   169A      1.678718   170A      1.682457  
     171A      1.715016   172A      1.736549   173A      1.750715  
     174A      1.763079   175A      1.765720   176A      1.783953  
     177A      1.788833   178A      1.797335   179A      1.805996  
     180A      1.815153   181A      1.829991   182A      1.842875  
     183A      1.868019   184A      1.880830   185A      1.883532  
     186A      1.892172   187A      1.912344   188A      1.913661  
     189A      1.929940   190A      1.939237   191A      1.956704  
     192A      1.960582   193A      1.966736   194A      1.976161  
     195A      1.981658   196A      1.990707   197A      2.001064  
     198A      2.005171   199A      2.022758   200A      2.043339  
     201A      2.062450   202A      2.095276   203A      2.103432  
     204A      2.113588   205A      2.126800   206A      2.148542  
     207A      2.160014   208A      2.173000   209A      2.187302  
     210A      2.205719   211A      2.219712   212A      2.221973  
     213A      2.225274   214A      2.239676   215A      2.258175  
     216A      2.278081   217A      2.286413   218A      2.299313  
     219A      2.301160   220A      2.308739   221A      2.333944  
     222A      2.346534   223A      2.372298   224A      2.393119  
     225A      2.399722   226A      2.403440   227A      2.414230  
     228A      2.442449   229A      2.452144   230A      2.461050  
     231A      2.464170   232A      2.473599   233A      2.488664  
     234A      2.497414   235A      2.498901   236A      2.528494  
     237A      2.539431   238A      2.542649   239A      2.564676  
     240A      2.568001   241A      2.571063   242A      2.580575  
     243A      2.591921   244A      2.593463   245A      2.602692  
     246A      2.623899   247A      2.632931   248A      2.654568  
     249A      2.661986   250A      2.668592   251A      2.674458  
     252A      2.700865   253A      2.715063   254A      2.744771  
     255A      2.754286   256A      2.775668   257A      2.795484  
     258A      2.821737   259A      2.833054   260A      2.853868  
     261A      2.857672   262A      2.880250   263A      2.921907  
     264A      2.934384   265A      2.947247   266A      2.958772  
     267A      2.973443   268A      2.986653   269A      3.004242  
     270A      3.025529   271A      3.034305   272A      3.039459  
     273A      3.070801   274A      3.082708   275A      3.089272  
     276A      3.097858   277A      3.120114   278A      3.128905  
     279A      3.153719   280A      3.167950   281A      3.189503  
     282A      3.210910   283A      3.219127   284A      3.241914  
     285A      3.269088   286A      3.283472   287A      3.298549  
     288A      3.309347   289A      3.319160   290A      3.346443  
     291A      3.371747   292A      3.395048   293A      3.416465  
     294A      3.462321   295A      3.485006   296A      3.498468  
     297A      3.506196   298A      3.514422   299A      3.523309  
     300A      3.550877   301A      3.626565   302A      3.637212  
     303A      3.652352   304A      3.674710   305A      3.680780  
     306A      3.708869   307A      3.716187   308A      3.730902  
     309A      3.746916   310A      3.765584   311A      3.803089  
     312A      3.837119   313A      3.843150   314A      3.865209  
     315A      3.879736   316A      3.886503   317A      3.933973  
     318A      3.959828   319A      4.055554   320A      4.070429  
     321A      4.090911   322A      4.108226   323A      4.148073  
     324A      4.172164   325A      4.189570   326A      4.224990  
     327A      4.263645   328A      4.282005   329A      4.300442  
     330A      4.346393   331A      4.355356   332A      4.399053  
     333A      4.428743   334A      4.435194   335A      4.457046  
     336A      4.472992   337A      4.500810   338A      4.618670  
     339A      4.693035   340A      4.747775   341A      4.773815  
     342A      4.788056   343A      4.827555   344A      4.843105  
     345A      4.860771   346A      4.884846   347A      4.901064  
     348A      4.929563   349A      4.989222   350A      5.024291  
     351A      5.055899   352A      5.095219   353A      5.327824  
     354A      5.356040   355A      5.407795   356A      5.447118  
     357A      5.450710   358A      5.459821   359A      5.482083  
     360A      5.496163   361A      5.501806   362A      5.540755  
     363A      5.589680   364A      5.612497   365A      5.654489  
     366A      5.669107   367A      5.688000   368A      5.705449  
     369A      5.724651   370A      5.725671   371A      5.746841  
     372A      5.759720   373A      5.799682   374A      5.801853  
     375A      5.822158   376A      5.884614   377A      5.889870  
     378A      5.922280   379A      5.943291   380A      5.959917  
     381A      5.975722   382A      5.986282   383A      6.010316  
     384A      6.087572   385A      6.102691   386A      6.134023  
     387A      6.161699   388A      6.305431   389A      6.312213  
     390A      6.318617   391A      6.324094   392A      6.324905  
     393A      6.349005   394A      6.367502   395A      6.382470  
     396A      6.431771   397A      6.468545   398A      6.478944  
     399A      6.491026   400A      6.520458   401A      6.530288  
     402A      6.545432   403A      6.554923   404A      6.572379  
     405A      6.594330   406A      6.603456   407A      6.620031  
     408A      6.651764   409A      6.744195   410A      6.890337  
     411A      6.906347   412A      6.966452   413A      6.997498  
     414A      7.150649   415A      7.155992   416A      7.184926  
     417A      7.205833   418A      7.269775   419A      7.415180  
     420A      7.447278   421A      7.452170   422A      7.509801  
     423A      7.532784   424A      7.564860   425A      7.612894  
     426A      7.619794   427A      7.702694   428A      7.718318  
     429A      7.744543   430A      7.750077   431A      7.770884  
     432A      7.848493   433A      7.851519   434A      7.855444  
     435A      7.885544   436A      7.906367   437A      7.913594  
     438A      7.936159   439A      7.952426   440A      7.974717  
     441A      7.983012   442A      7.993616   443A      8.019109  
     444A      8.033608   445A      8.041564   446A      8.081201  
     447A      8.093850   448A      8.106451   449A      8.141675  
     450A      8.163582   451A      8.221592   452A      8.241983  
     453A      8.258587   454A      8.265543   455A      8.386755  
     456A      8.399238   457A      8.421947   458A      8.441904  
     459A      8.471525   460A      8.488239   461A      8.498804  
     462A      8.594123   463A      8.602711   464A      8.662123  
     465A      8.738862   466A      8.802858   467A      8.805096  
     468A      8.822696   469A      8.851792   470A      8.915932  
     471A      8.940472   472A      9.007579   473A      9.030850  
     474A      9.073678   475A      9.181254   476A      9.240458  
     477A      9.261511   478A      9.279547   479A      9.365781  
     480A      9.384923   481A      9.394121   482A      9.533721  
     483A      9.535265   484A      9.616649   485A      9.623883  
     486A      9.874377   487A      9.909726   488A      9.964887  
     489A      9.971313   490A     10.009482   491A     10.041172  
     492A     10.048291   493A     10.453480   494A     10.511804  
     495A     10.532604   496A     10.537437   497A     10.765098  
     498A     10.816792   499A     10.843285   500A     11.033014  
     501A     11.035748   502A     11.047532   503A     11.068511  
     504A     11.124142   505A     11.177249   506A     11.393841  
     507A     11.430902   508A     11.577922   509A     11.625427  
     510A     11.719795   511A     11.855050   512A     11.920010  
     513A     12.067810   514A     12.205381   515A     12.261741  
     516A     12.553204   517A     12.730019   518A     12.750633  
     519A     12.913086   520A     12.919936   521A     13.213691  
     522A     13.726093   523A     13.730114   524A     13.795350  
     525A     14.001013   526A     14.127646   527A     14.498015  
     528A     14.852870   529A     14.885037   530A     15.321547  
     531A     17.032197   532A     17.070173   533A     17.312864  
     534A     31.103908   535A     31.111542   536A     31.119494  
     537A     31.121934   538A     31.170430   539A     31.173233  
     540A     31.317337   541A     31.328482   542A     31.391306  
     543A     42.528786   544A     43.413315   545A     43.540287  
     546A     45.759484   547A     69.592228   548A    160.332259  
     549A    160.436194   550A    160.457579  

    Final Occupation by Irrep:
              A 
    DOCC [     5 ]

  @DF-RHF Final Energy:   -76.06585050158557

   => Energetics <=

    Nuclear Repulsion Energy =              9.1834510620084000
    One-Electron Energy =                -123.0492229513706377
    Two-Electron Energy =                  37.7999213877766636
    Total Energy =                        -76.0658505015855724

Computation Completed


Properties will be evaluated at   0.000000,  -0.000000,  -0.000000 [a0]

Properties computed using the SCF density matrix

  Nuclear Dipole Moment: [e a0]
     X:   -37.9010      Y:    61.3619      Z:   -13.8032

  Electronic Dipole Moment: [e a0]
     X:    37.7052      Y:   -61.7473      Z:    13.1859

  Dipole Moment: [e a0]
     X:    -0.1959      Y:    -0.3854      Z:    -0.6172     Total:     0.7536

  Dipole Moment: [D]
     X:    -0.4978      Y:    -0.9796      Z:    -1.5689     Total:     1.9154


*** tstop() called on node37.bme.utexas.edu at Tue Feb 22 18:31:37 2022
Module time:
	user time   =     171.81 seconds =       2.86 minutes
	system time =      42.09 seconds =       0.70 minutes
	total time  =         94 seconds =       1.57 minutes
Total time:
	user time   =     244.90 seconds =       4.08 minutes
	system time =      47.50 seconds =       0.79 minutes
	total time  =        137 seconds =       2.28 minutes

*** tstart() called on node37.bme.utexas.edu
*** at Tue Feb 22 18:31:37 2022


  //>>>>>>>>>>>>>>>>>>>>>>>>>>>>>>>>>>>//
  //               DFMP2               //
  //<<<<<<<<<<<<<<<<<<<<<<<<<<<<<<<<<<<//

   => Loading Basis Set <=

    Name: (AUG-CC-PVQZ AUX)
    Role: RIFIT
    Keyword: DF_BASIS_MP2
    atoms 1-3    entry CL         line   914 file /home/bdw2292/miniconda3/envs/amoebamdpoltype/share/psi4/basis/aug-cc-pvqz-ri.gbs 
    atoms 4      entry C          line   184 file /home/bdw2292/miniconda3/envs/amoebamdpoltype/share/psi4/basis/aug-cc-pvqz-ri.gbs 
    atoms 5, 7-8 entry H          line    30 file /home/bdw2292/miniconda3/envs/amoebamdpoltype/share/psi4/basis/aug-cc-pvqz-ri.gbs 
    atoms 6      entry O          line   332 file /home/bdw2292/miniconda3/envs/amoebamdpoltype/share/psi4/basis/aug-cc-pvqz-ri.gbs 

	 --------------------------------------------------------
	                          DF-MP2                         
	      2nd-Order Density-Fitted Moller-Plesset Theory     
	              RMP2 Wavefunction,   4 Threads             
	                                                         
	        Rob Parrish, Justin Turney, Andy Simmonett,      
	           Ed Hohenstein, and C. David Sherrill          
	 --------------------------------------------------------

   => Auxiliary Basis Set <=

  Basis Set: (AUG-CC-PVQZ AUX)
    Blend: AUG-CC-PVQZ-RI
    Number of shells: 264
    Number of basis function: 1158
    Number of Cartesian functions: 1593
    Spherical Harmonics?: true
    Max angular momentum: 5

	 --------------------------------------------------------
	                 NBF =   550, NAUX =  1158
	 --------------------------------------------------------
	   CLASS    FOCC     OCC    AOCC    AVIR     VIR    FVIR
	   PAIRS       1       5       4     545     545       0
	 --------------------------------------------------------

	-----------------------------------------------------------
	 ==================> DF-MP2 Energies <==================== 
	-----------------------------------------------------------
	 Reference Energy          =     -76.0658505015855724 [Eh]
	 Singles Energy            =      -0.0000000000000000 [Eh]
	 Same-Spin Energy          =      -0.0671680941030981 [Eh]
	 Opposite-Spin Energy      =      -0.2185933041988536 [Eh]
	 Correlation Energy        =      -0.2857613983019517 [Eh]
	 Total Energy              =     -76.3516118998875299 [Eh]
	-----------------------------------------------------------
	 ================> DF-SCS-MP2 Energies <================== 
	-----------------------------------------------------------
	 SCS Same-Spin Scale       =       0.3333333333333333 [-]
	 SCS Opposite-Spin Scale   =       1.2000000000000000 [-]
	 SCS Same-Spin Energy      =      -0.0223893647010327 [Eh]
	 SCS Opposite-Spin Energy  =      -0.2623119650386244 [Eh]
	 SCS Correlation Energy    =      -0.2847013297396571 [Eh]
	 SCS Total Energy          =     -76.3505518313252338 [Eh]
	-----------------------------------------------------------


*** tstop() called on node37.bme.utexas.edu at Tue Feb 22 18:32:03 2022
Module time:
	user time   =      53.31 seconds =       0.89 minutes
	system time =       3.42 seconds =       0.06 minutes
	total time  =         26 seconds =       0.43 minutes
Total time:
	user time   =     298.21 seconds =       4.97 minutes
	system time =      50.92 seconds =       0.85 minutes
	total time  =        163 seconds =       2.72 minutes

  //>>>>>>>>>>>>>>>>>>>>>>>>>>>>>>>>>>>//
  //  CBS Results: mp2/aug-cc-pV[TQ]Z  //
  //<<<<<<<<<<<<<<<<<<<<<<<<<<<<<<<<<<<//


   ==> HF <==

   HI-zeta (4) Energy:               -76.065850501586


   ==> Helgaker 2-point correlated extrapolation for method: MP2 <==

   LO-zeta (3) Energy:               -76.328733862210
   HI-zeta (4) Energy:               -76.351611899888
   Alpha (exponent) Value:             3.000000000000
   Extrapolated Energy:              -76.368306684138

   @Extrapolated MP2/(T,Q):          -76.368306684138



   ==> Helgaker 2-point correlated extrapolation for method: HF <==

   LO-zeta (3) Energy:               -76.060500473998
   HI-zeta (4) Energy:               -76.065850501586
   Alpha (exponent) Value:             3.000000000000
   Extrapolated Energy:              -76.069754575771

   @Extrapolated HF/(T,Q):           -76.069754575771


   ==> Components <==

  ---------------------------------------------------------------------------------------------------------
                          Method / Basis                      Rqd      Energy [Eh]   Variable
  ---------------------------------------------------------------------------------------------------------
                              hf / aug-cc-pvtz                  *     -76.06050047   HF TOTAL ENERGY
                             mp2 / aug-cc-pvtz                  *     -76.32873386   MP2 TOTAL ENERGY
                              hf / aug-cc-pvqz                  *     -76.06585050   HF TOTAL ENERGY
                             mp2 / aug-cc-pvqz                  *     -76.35161190   MP2 TOTAL ENERGY
  ---------------------------------------------------------------------------------------------------------

   ==> Stages <==

  ---------------------------------------------------------------------------------------------------------
      Stage               Method / Basis                       Wt      Energy [Eh]   Scheme
  ---------------------------------------------------------------------------------------------------------
        scf                   hf / aug-cc-pvqz                  1     -76.06585050   xtpl_highest_1
       corl                  mp2 / aug-cc-pv[tq]z               1     -76.36830668   corl_xtpl_helgaker_2
       corl                   hf / aug-cc-pv[tq]z              -1     -76.06975458   corl_xtpl_helgaker_2
  ---------------------------------------------------------------------------------------------------------

   ==> CBS <==

  ---------------------------------------------------------------------------------------------------------
      Stage               Method / Basis                               Energy [Eh]   Scheme
  ---------------------------------------------------------------------------------------------------------
        scf                   hf / aug-cc-pvqz                        -76.06585050   xtpl_highest_1
       corl                  mp2 / aug-cc-pv[tq]z                      -0.29855211   corl_xtpl_helgaker_2
      total                  CBS                                      -76.36440261   
  ---------------------------------------------------------------------------------------------------------
   => Loading Basis Set <=

    Name: DEF2-SVP
    Role: ORBITAL
    Keyword: BASIS
    atoms 1-3    entry CL         line   356 file /home/bdw2292/miniconda3/envs/amoebamdpoltype/share/psi4/basis/def2-svp.gbs 
    atoms 4      entry C          line    90 file /home/bdw2292/miniconda3/envs/amoebamdpoltype/share/psi4/basis/def2-svp.gbs 
    atoms 5, 7-8 entry H          line    15 file /home/bdw2292/miniconda3/envs/amoebamdpoltype/share/psi4/basis/def2-svp.gbs 
    atoms 6      entry O          line   130 file /home/bdw2292/miniconda3/envs/amoebamdpoltype/share/psi4/basis/def2-svp.gbs 


       N-Body: Complex Energy (fragments = (2,), basis = (1, 2):   -76.36440260995288)

       N-Body: Computing complex (3/4) with fragments (1,) in the basis of fragments (1, 2).


  //>>>>>>>>>>>>>>>>>>>>>>>>>>>>>>>>>>>//
  //   CBS Setup: mp2/aug-cc-pV[TQ]Z   //
  //<<<<<<<<<<<<<<<<<<<<<<<<<<<<<<<<<<<//

    Naive listing of computations required.
             hf / aug-cc-pvqz              for  HF TOTAL ENERGY
            mp2 / aug-cc-pvtz              for  MP2 TOTAL ENERGY
            mp2 / aug-cc-pvqz              for  MP2 TOTAL ENERGY
[...]
     101A      0.576316   102A      0.588804   103A      0.593719  
     104A      0.598751   105A      0.605378   106A      0.612269  
     107A      0.616696   108A      0.621400   109A      0.630528  
     110A      0.631996   111A      0.647865   112A      0.662915  
     113A      0.670727   114A      0.681162   115A      0.691373  
     116A      0.697233   117A      0.713735   118A      0.723483  
     119A      0.724078   120A      0.729751   121A      0.742538  
     122A      0.749613   123A      0.753385   124A      0.755072  
     125A      0.762136   126A      0.771425   127A      0.778166  
     128A      0.783232   129A      0.793602   130A      0.809002  
     131A      0.812340   132A      0.817123   133A      0.825300  
     134A      0.838488   135A      0.839634   136A      0.848811  
     137A      0.862754   138A      0.873468   139A      0.883423  
     140A      0.890324   141A      0.898405   142A      0.900696  
     143A      0.911860   144A      0.923414   145A      0.933842  
     146A      0.947109   147A      0.977336   148A      0.982231  
     149A      0.995830   150A      1.003464   151A      1.022027  
     152A      1.029058   153A      1.035137   154A      1.065914  
     155A      1.074186   156A      1.078903   157A      1.096431  
     158A      1.116843   159A      1.121542   160A      1.136171  
     161A      1.141316   162A      1.150256   163A      1.156414  
     164A      1.169456   165A      1.183263   166A      1.189713  
     167A      1.200672   168A      1.206385   169A      1.222868  
     170A      1.243583   171A      1.246640   172A      1.254461  
     173A      1.259346   174A      1.270163   175A      1.273245  
     176A      1.277191   177A      1.294152   178A      1.297025  
     179A      1.315849   180A      1.331034   181A      1.348586  
     182A      1.373784   183A      1.380520   184A      1.436420  
     185A      1.449542   186A      1.467446   187A      1.486168  
     188A      1.523000   189A      1.547712   190A      1.552541  
     191A      1.565216   192A      1.582649   193A      1.606272  
     194A      1.627898   195A      1.638384   196A      1.642006  
     197A      1.666799   198A      1.678055   199A      1.686801  
     200A      1.706044   201A      1.722111   202A      1.736202  
     203A      1.738697   204A      1.745276   205A      1.758613  
     206A      1.764201   207A      1.773167   208A      1.780235  
     209A      1.790141   210A      1.803567   211A      1.804488  
     212A      1.814842   213A      1.816573   214A      1.821998  
     215A      1.829624   216A      1.838954   217A      1.854092  
     218A      1.856984   219A      1.869881   220A      1.884618  
     221A      1.888195   222A      1.894326   223A      1.902207  
     224A      1.916501   225A      1.925693   226A      1.934893  
     227A      1.940223   228A      1.941531   229A      1.957014  
     230A      1.963507   231A      1.969235   232A      1.976378  
     233A      1.980862   234A      2.002828   235A      2.010251  
     236A      2.022531   237A      2.029384   238A      2.032450  
     239A      2.045122   240A      2.050672   241A      2.058217  
     242A      2.077668   243A      2.079954   244A      2.101268  
     245A      2.112016   246A      2.114001   247A      2.119957  
     248A      2.127234   249A      2.141999   250A      2.152472  
     251A      2.162196   252A      2.173540   253A      2.193055  
     254A      2.197751   255A      2.203865   256A      2.210113  
     257A      2.213019   258A      2.220975   259A      2.226337  
     260A      2.238162   261A      2.239661   262A      2.249178  
     263A      2.258424   264A      2.271589   265A      2.283545  
     266A      2.296533   267A      2.305559   268A      2.308096  
     269A      2.316483   270A      2.324196   271A      2.339670  
     272A      2.361136   273A      2.379745   274A      2.399108  
     275A      2.407223   276A      2.421585   277A      2.430376  
     278A      2.439870   279A      2.457335   280A      2.473567  
     281A      2.487597   282A      2.499177   283A      2.512877  
     284A      2.537339   285A      2.542970   286A      2.557389  
     287A      2.567152   288A      2.580098   289A      2.595739  
     290A      2.604835   291A      2.624978   292A      2.636050  
     293A      2.647122   294A      2.659980   295A      2.696238  
     296A      2.727763   297A      2.768114   298A      2.832973  
     299A      2.842691   300A      2.878133   301A      2.895595  
     302A      2.912260   303A      2.921303   304A      2.933136  
     305A      2.947368   306A      2.961416   307A      3.012147  
     308A      3.030687   309A      3.039085   310A      3.056725  
     311A      3.078665   312A      3.105526   313A      3.112732  
     314A      3.140067   315A      3.160809   316A      3.176305  
     317A      3.198261   318A      3.210518   319A      3.276303  
     320A      3.297885   321A      3.316394   322A      3.341552  
     323A      3.349866   324A      3.378888   325A      3.394924  
     326A      3.403688   327A      3.419253   328A      3.497064  
     329A      3.504713   330A      3.512353   331A      3.539602  
     332A      3.552637   333A      3.582391   334A      3.587754  
     335A      3.664355   336A      3.682259   337A      3.715736  
     338A      3.739294   339A      3.757210   340A      3.761815  
     341A      3.779075   342A      3.786015   343A      3.827486  
     344A      3.859082   345A      3.889161   346A      3.974799  
     347A      3.979842   348A      3.989327   349A      4.073500  
     350A      4.104029   351A      4.209742   352A      4.245361  
     353A      4.269532   354A      4.284087   355A      4.310311  
     356A      4.311566   357A      4.322252   358A      4.342540  
     359A      4.422042   360A      4.436064   361A      4.446929  
     362A      4.475498   363A      4.505629   364A      4.525776  
     365A      4.547674   366A      4.572318   367A      4.600186  
     368A      4.616712   369A      4.635310   370A      4.645474  
     371A      4.671092   372A      4.677620   373A      4.693152  
     374A      4.705840   375A      4.712681   376A      4.719233  
     377A      4.726436   378A      4.733906   379A      4.740636  
     380A      4.752886   381A      4.759547   382A      4.763649  
     383A      4.770418   384A      4.779733   385A      4.784921  
     386A      4.789384   387A      4.792658   388A      4.811510  
     389A      4.815311   390A      4.821096   391A      4.832973  
     392A      4.835489   393A      4.850731   394A      4.861307  
     395A      4.872709   396A      4.877176   397A      4.883993  
     398A      4.899655   399A      4.902810   400A      4.905638  
     401A      4.910746   402A      4.924497   403A      4.936969  
     404A      4.937886   405A      4.952361   406A      4.960633  
     407A      4.967784   408A      4.989276   409A      5.008376  
     410A      5.021939   411A      5.027482   412A      5.044708  
     413A      5.059828   414A      5.080633   415A      5.102708  
     416A      5.113882   417A      5.151023   418A      5.175293  
     419A      5.199123   420A      5.220442   421A      5.274065  
     422A      5.282311   423A      5.312271   424A      5.318353  
     425A      5.350441   426A      5.371371   427A      5.404907  
     428A      5.406689   429A      5.439989   430A      5.499151  
     431A      5.528995   432A      5.539523   433A      5.554986  
     434A      5.623567   435A      5.714270   436A      5.745604  
     437A      5.916450   438A      5.982622   439A      6.086066  
     440A      6.318495   441A      6.468375   442A      6.491180  
     443A      6.496960   444A      6.526478   445A      6.532675  
     446A      6.695004   447A      6.722979   448A      6.729167  
     449A      6.733412   450A      6.802942   451A      6.830447  
     452A      6.843808   453A      6.883671   454A      6.894501  
     455A      6.903882   456A      6.914914   457A      6.916405  
     458A      6.952199   459A      6.979084   460A      6.987303  
     461A      6.996272   462A      7.096836   463A      7.199430  
     464A      7.214182   465A      7.234668   466A      7.240914  
     467A      7.404007   468A      7.416500   469A      7.443431  
     470A      7.524889   471A      7.626834   472A      7.635820  
     473A      7.716403   474A      7.741911   475A      7.771085  
     476A      7.822289   477A      7.854606   478A      7.886780  
     479A      7.906971   480A      7.910317   481A      7.936542  
     482A      7.956190   483A      7.979439   484A      8.009991  
     485A      8.028277   486A      8.058924   487A      8.217370  
     488A      8.362830   489A      8.421694   490A      8.587932  
     491A      8.598951   492A      8.624071   493A      8.627236  
     494A      8.713986   495A      8.721187   496A      8.737272  
     497A      8.816861   498A      8.828869   499A      8.883779  
     500A      8.917457   501A      9.022910   502A      9.071139  
     503A      9.192661   504A      9.335890   505A      9.342576  
     506A      9.532495   507A      9.554507   508A      9.727919  
     509A      9.728994   510A      9.871520   511A     10.006598  
     512A     10.036523   513A     10.043622   514A     10.435478  
     515A     10.437316   516A     10.450823   517A     10.511377  
     518A     10.691623   519A     10.759975   520A     11.035200  
     521A     11.059586   522A     11.120684   523A     11.390022  
     524A     11.426908   525A     11.570057   526A     11.715964  
     527A     11.850760   528A     11.914674   529A     12.064284  
     530A     12.202513   531A     12.259110   532A     12.551182  
     533A     12.743100   534A     12.910747   535A     12.916869  
     536A     12.960784   537A     13.211191   538A     13.998723  
     539A     14.122086   540A     14.495695   541A     14.850554  
     542A     14.882928   543A     15.319392   544A     17.031956  
     545A     17.310486   546A     25.551888   547A     26.709624  
     548A     26.799556   549A     27.385262   550A     45.757081  

    Final Occupation by Irrep:
              A 
    DOCC [    34 ]

  @DF-RHF Final Energy: -1493.08069972554722

   => Energetics <=

    Nuclear Repulsion Energy =            344.3870465183053398
    One-Electron Energy =               -2748.7797270881846998
    Two-Electron Energy =                 911.3119808443320835
    Total Energy =                      -1493.0806997255472197

Computation Completed


Properties will be evaluated at   0.000000,  -0.000000,  -0.000000 [a0]

Properties computed using the SCF density matrix

  Nuclear Dipole Moment: [e a0]
     X:    -4.5067      Y:     6.2689      Z:    -0.6364

  Electronic Dipole Moment: [e a0]
     X:     4.2854      Y:    -6.6048      Z:     0.4927

  Dipole Moment: [e a0]
     X:    -0.2214      Y:    -0.3359      Z:    -0.1437     Total:     0.4272

  Dipole Moment: [D]
     X:    -0.5627      Y:    -0.8539      Z:    -0.3654     Total:     1.0859


*** tstop() called on node37.bme.utexas.edu at Tue Feb 22 18:38:04 2022
Module time:
	user time   =     227.55 seconds =       3.79 minutes
	system time =      48.58 seconds =       0.81 minutes
	total time  =        112 seconds =       1.87 minutes
Total time:
	user time   =    1063.21 seconds =      17.72 minutes
	system time =     164.31 seconds =       2.74 minutes
	total time  =        524 seconds =       8.73 minutes

*** tstart() called on node37.bme.utexas.edu
*** at Tue Feb 22 18:38:04 2022


  //>>>>>>>>>>>>>>>>>>>>>>>>>>>>>>>>>>>//
  //               DFMP2               //
  //<<<<<<<<<<<<<<<<<<<<<<<<<<<<<<<<<<<//

   => Loading Basis Set <=

    Name: (AUG-CC-PVQZ AUX)
    Role: RIFIT
    Keyword: DF_BASIS_MP2
    atoms 1-3    entry CL         line   914 file /home/bdw2292/miniconda3/envs/amoebamdpoltype/share/psi4/basis/aug-cc-pvqz-ri.gbs 
    atoms 4      entry C          line   184 file /home/bdw2292/miniconda3/envs/amoebamdpoltype/share/psi4/basis/aug-cc-pvqz-ri.gbs 
    atoms 5, 7-8 entry H          line    30 file /home/bdw2292/miniconda3/envs/amoebamdpoltype/share/psi4/basis/aug-cc-pvqz-ri.gbs 
    atoms 6      entry O          line   332 file /home/bdw2292/miniconda3/envs/amoebamdpoltype/share/psi4/basis/aug-cc-pvqz-ri.gbs 

	 --------------------------------------------------------
	                          DF-MP2                         
	      2nd-Order Density-Fitted Moller-Plesset Theory     
	              RMP2 Wavefunction,   4 Threads             
	                                                         
	        Rob Parrish, Justin Turney, Andy Simmonett,      
	           Ed Hohenstein, and C. David Sherrill          
	 --------------------------------------------------------

   => Auxiliary Basis Set <=

  Basis Set: (AUG-CC-PVQZ AUX)
    Blend: AUG-CC-PVQZ-RI
    Number of shells: 264
    Number of basis function: 1158
    Number of Cartesian functions: 1593
    Spherical Harmonics?: true
    Max angular momentum: 5

	 --------------------------------------------------------
	                 NBF =   550, NAUX =  1158
	 --------------------------------------------------------
	   CLASS    FOCC     OCC    AOCC    AVIR     VIR    FVIR
	   PAIRS      17      34      17     516     516       0
	 --------------------------------------------------------

	-----------------------------------------------------------
	 ==================> DF-MP2 Energies <==================== 
	-----------------------------------------------------------
	 Reference Energy          =   -1493.0806997255472197 [Eh]
	 Singles Energy            =      -0.0000000000000000 [Eh]
	 Same-Spin Energy          =      -0.2658422480375882 [Eh]
	 Opposite-Spin Energy      =      -0.8381079292913448 [Eh]
	 Correlation Energy        =      -1.1039501773289331 [Eh]
	 Total Energy              =   -1494.1846499028761173 [Eh]
	-----------------------------------------------------------
	 ================> DF-SCS-MP2 Energies <================== 
	-----------------------------------------------------------
	 SCS Same-Spin Scale       =       0.3333333333333333 [-]
	 SCS Opposite-Spin Scale   =       1.2000000000000000 [-]
	 SCS Same-Spin Energy      =      -0.0886140826791960 [Eh]
	 SCS Opposite-Spin Energy  =      -1.0057295151496137 [Eh]
	 SCS Correlation Energy    =      -1.0943435978288099 [Eh]
	 SCS Total Energy          =   -1494.1750433233760305 [Eh]
	-----------------------------------------------------------


*** tstop() called on node37.bme.utexas.edu at Tue Feb 22 18:38:28 2022
Module time:
	user time   =      59.49 seconds =       0.99 minutes
	system time =       3.85 seconds =       0.06 minutes
	total time  =         24 seconds =       0.40 minutes
Total time:
	user time   =    1122.70 seconds =      18.71 minutes
	system time =     168.16 seconds =       2.80 minutes
	total time  =        548 seconds =       9.13 minutes

  //>>>>>>>>>>>>>>>>>>>>>>>>>>>>>>>>>>>//
  //  CBS Results: mp2/aug-cc-pV[TQ]Z  //
  //<<<<<<<<<<<<<<<<<<<<<<<<<<<<<<<<<<<//


   ==> HF <==

   HI-zeta (4) Energy:               -1493.080699725547


   ==> Helgaker 2-point correlated extrapolation for method: MP2 <==

   LO-zeta (3) Energy:               -1494.089005216175
   HI-zeta (4) Energy:               -1494.184649902876
   Alpha (exponent) Value:             3.000000000000
   Extrapolated Energy:              -1494.254444674252

   @Extrapolated MP2/(T,Q):          -1494.254444674252



   ==> Helgaker 2-point correlated extrapolation for method: HF <==

   LO-zeta (3) Energy:               -1493.061853969514
   HI-zeta (4) Energy:               -1493.080699725547
   Alpha (exponent) Value:             3.000000000000
   Extrapolated Energy:              -1493.094452034004

   @Extrapolated HF/(T,Q):           -1493.094452034004


   ==> Components <==

  ---------------------------------------------------------------------------------------------------------
                          Method / Basis                      Rqd      Energy [Eh]   Variable
  ---------------------------------------------------------------------------------------------------------
                              hf / aug-cc-pvtz                  *   -1493.06185397   HF TOTAL ENERGY
                             mp2 / aug-cc-pvtz                  *   -1494.08900522   MP2 TOTAL ENERGY
                              hf / aug-cc-pvqz                  *   -1493.08069973   HF TOTAL ENERGY
                             mp2 / aug-cc-pvqz                  *   -1494.18464990   MP2 TOTAL ENERGY
  ---------------------------------------------------------------------------------------------------------

   ==> Stages <==

  ---------------------------------------------------------------------------------------------------------
      Stage               Method / Basis                       Wt      Energy [Eh]   Scheme
  ---------------------------------------------------------------------------------------------------------
        scf                   hf / aug-cc-pvqz                  1   -1493.08069973   xtpl_highest_1
       corl                  mp2 / aug-cc-pv[tq]z               1   -1494.25444467   corl_xtpl_helgaker_2
       corl                   hf / aug-cc-pv[tq]z              -1   -1493.09445203   corl_xtpl_helgaker_2
  ---------------------------------------------------------------------------------------------------------

   ==> CBS <==

  ---------------------------------------------------------------------------------------------------------
      Stage               Method / Basis                               Energy [Eh]   Scheme
  ---------------------------------------------------------------------------------------------------------
        scf                   hf / aug-cc-pvqz                      -1493.08069973   xtpl_highest_1
       corl                  mp2 / aug-cc-pv[tq]z                      -1.15999264   corl_xtpl_helgaker_2
      total                  CBS                                    -1494.24069237   
  ---------------------------------------------------------------------------------------------------------
   => Loading Basis Set <=

    Name: DEF2-SVP
    Role: ORBITAL
    Keyword: BASIS
    atoms 1-3    entry CL         line   356 file /home/bdw2292/miniconda3/envs/amoebamdpoltype/share/psi4/basis/def2-svp.gbs 
    atoms 4      entry C          line    90 file /home/bdw2292/miniconda3/envs/amoebamdpoltype/share/psi4/basis/def2-svp.gbs 
    atoms 5, 7-8 entry H          line    15 file /home/bdw2292/miniconda3/envs/amoebamdpoltype/share/psi4/basis/def2-svp.gbs 
    atoms 6      entry O          line   130 file /home/bdw2292/miniconda3/envs/amoebamdpoltype/share/psi4/basis/def2-svp.gbs 


       N-Body: Complex Energy (fragments = (1, 2), basis = (1, 2): -1494.24069236579589)

   ==> N-Body: Counterpoise Corrected (CP) energies <==

   n-Body     Total Energy [Eh]       I.E. [kcal/mol]      Delta [kcal/mol]
        1    -1494.238783618514        0.000000000000        0.000000000000
        2    -1494.240612049912       -1.147358024859       -1.147358024859

   => Loading Basis Set <=

    Name: DEF2-SVP
    Role: ORBITAL
    Keyword: BASIS
    atoms 1-3    entry CL         line   356 file /home/bdw2292/miniconda3/envs/amoebamdpoltype/share/psi4/basis/def2-svp.gbs 
    atoms 4      entry C          line    90 file /home/bdw2292/miniconda3/envs/amoebamdpoltype/share/psi4/basis/def2-svp.gbs 
    atoms 5, 7-8 entry H          line    15 file /home/bdw2292/miniconda3/envs/amoebamdpoltype/share/psi4/basis/def2-svp.gbs 
    atoms 6      entry O          line   130 file /home/bdw2292/miniconda3/envs/amoebamdpoltype/share/psi4/basis/def2-svp.gbs 

CP Energy =  -0.001828
    Psi4 stopped on: Tuesday, 22 February 2022 06:38PM
    Psi4 wall time for execution: 0:09:10.31

*** Psi4 exiting successfully. Buy a developer a beer!
