
    -----------------------------------------------------------------------
          Psi4: An Open-Source Ab Initio Electronic Structure Package
                               Psi4 1.3.2 release

                         Git: Rev {HEAD} ecbda83 


    R. M. Parrish, L. A. Burns, D. G. A. Smith, A. C. Simmonett,
    A. E. DePrince III, E. G. Hohenstein, U. Bozkaya, A. Yu. Sokolov,
    R. Di Remigio, R. M. Richard, J. F. Gonthier, A. M. James,
    H. R. McAlexander, A. Kumar, M. Saitow, X. Wang, B. P. Pritchard,
    P. Verma, H. F. Schaefer III, K. Patkowski, R. A. King, E. F. Valeev,
    F. A. Evangelista, J. M. Turney, T. D. Crawford, and C. D. Sherrill,
    J. Chem. Theory Comput. 13(7) pp 3185--3197 (2017).
    (doi: 10.1021/acs.jctc.7b00174)


                         Additional Contributions by
    P. Kraus, H. Kruse, M. H. Lechner, M. C. Schieber, R. A. Shaw,
    A. Alenaizan, R. Galvelis, Z. L. Glick, S. Lehtola, and J. P. Misiewicz

    -----------------------------------------------------------------------


    Psi4 started on: Tuesday, 22 February 2022 06:38PM

    Process ID: 33386
    Host:       node37.bme.utexas.edu
    PSIDATADIR: /home/bdw2292/miniconda3/envs/amoebamdpoltype/share/psi4
    Memory:     500.0 MiB
    Threads:    1
    
  ==> Input File <==

--------------------------------------------------------------------------
molecule { 
0 1
 Cl                 -0.3305712     1.3344966     0.3964185
 Cl                  1.9152338    -0.4658238     0.0056181
 Cl                 -0.8039666    -1.4804745    -0.1359058
  C                  0.2708983    -0.3046174     0.6122043
  H                  0.2919728    -0.5092524     1.6825174
--
0 1
  O                 -2.5449182     3.9379130    -0.8178237
  H                 -3.2214153     3.2618728    -0.8652178
  H                 -2.1596556     4.0408538    -1.6882534
}
memory 15GB
set_num_threads(4)
psi4_io.set_default_path("/scratch/bdw2292/Psi4-CHCl3")
set maxiter 500
set freeze_core True
set PROPERTIES_ORIGIN ["COM"]
e_dim= energy('mp2/aug-cc-pV[TQ]Z',bsse_type='cp')

psi4.print_out('CP Energy = %10.6f' % (e_dim))
clean()
--------------------------------------------------------------------------

  Memory set to  13.970 GiB by Python driver.
  Threads set to 4 by Python driver.


   ===> N-Body Interaction Abacus <===
        BSSE Treatment:                     cp
        Number of 1-body computations:     4
        Number of 2-body computations:     1

   ==> N-Body: Now computing 1-body complexes <==


       N-Body: Computing complex (1/4) with fragments (2,) in the basis of fragments (2,).


  //>>>>>>>>>>>>>>>>>>>>>>>>>>>>>>>>>>>//
  //   CBS Setup: mp2/aug-cc-pV[TQ]Z   //
  //<<<<<<<<<<<<<<<<<<<<<<<<<<<<<<<<<<<//

    Naive listing of computations required.
             hf / aug-cc-pvqz              for  HF TOTAL ENERGY
            mp2 / aug-cc-pvtz              for  MP2 TOTAL ENERGY
            mp2 / aug-cc-pvqz              for  MP2 TOTAL ENERGY
             hf / aug-cc-pvtz              for  HF TOTAL ENERGY
             hf / aug-cc-pvqz              for  HF TOTAL ENERGY

    Enlightened listing of computations required.
            mp2 / aug-cc-pvtz              for  MP2 TOTAL ENERGY
            mp2 / aug-cc-pvqz              for  MP2 TOTAL ENERGY

    Full listing of computations to be obtained (required and bonus).
             hf / aug-cc-pvtz              for  HF TOTAL ENERGY
            mp2 / aug-cc-pvtz              for  MP2 TOTAL ENERGY
             hf / aug-cc-pvqz              for  HF TOTAL ENERGY
            mp2 / aug-cc-pvqz              for  MP2 TOTAL ENERGY

  //>>>>>>>>>>>>>>>>>>>>>>>>>>>>>>>>>>>>//
  // CBS Computation: MP2 / AUG-CC-PVTZ //
  //<<<<<<<<<<<<<<<<<<<<<<<<<<<<<<<<<<<<//

    SCF Algorithm Type (re)set to DF.

*** tstart() called on node37.bme.utexas.edu
*** at Tue Feb 22 18:38:09 2022

   => Loading Basis Set <=

    Name: AUG-CC-PVTZ
    Role: ORBITAL
    Keyword: BASIS
    atoms 1   entry O          line   327 file /home/bdw2292/miniconda3/envs/amoebamdpoltype/share/psi4/basis/aug-cc-pvtz.gbs 
    atoms 2-3 entry H          line    36 file /home/bdw2292/miniconda3/envs/amoebamdpoltype/share/psi4/basis/aug-cc-pvtz.gbs 


         ---------------------------------------------------------
                                   SCF
               by Justin Turney, Rob Parrish, Andy Simmonett
                          and Daniel G. A. Smith
                              RHF Reference
                        4 Threads,  14305 MiB Core
         ---------------------------------------------------------

  ==> Geometry <==

    Molecular point group: c1
    Full point group: C1

    Geometry (in Angstrom), charge = 0, multiplicity = 1:

       Center              X                  Y                   Z               Mass       
    ------------   -----------------  -----------------  -----------------  -----------------
         O           -2.432474921429     3.608438506993    -0.837643100977    15.994914619570
         H           -3.108972021429     2.932398306993    -0.885037200977     1.007825032230
         H           -2.047212321429     3.711379306993    -1.708072800977     1.007825032230

  Running in c1 symmetry.

  Rotational constants: A =      9.63743  B =      0.04773  C =      0.04764 [cm^-1]
  Rotational constants: A = 288922.84052  B =   1430.93752  C =   1428.35669 [MHz]
  Nuclear repulsion =    9.183450444521059

  Charge       = 0
  Multiplicity = 1
  Electrons    = 10
  Nalpha       = 5
  Nbeta        = 5

  ==> Algorithm <==

  SCF Algorithm Type is DF.
  DIIS enabled.
  MOM disabled.
  Fractional occupation disabled.
  Guess Type is SAD.
  Energy threshold   = 1.00e-08
  Density threshold  = 1.00e-08
  Integral threshold = 0.00e+00

  ==> Primary Basis <==

  Basis Set: AUG-CC-PVTZ
    Blend: AUG-CC-PVTZ
    Number of shells: 32
    Number of basis function: 92
    Number of Cartesian functions: 105
    Spherical Harmonics?: true
    Max angular momentum: 3

   => Loading Basis Set <=

    Name: (AUG-CC-PVTZ AUX)
    Role: JKFIT
    Keyword: DF_BASIS_SCF
    atoms 1   entry O          line   286 file /home/bdw2292/miniconda3/envs/amoebamdpoltype/share/psi4/basis/aug-cc-pvtz-jkfit.gbs 
    atoms 2-3 entry H          line    70 file /home/bdw2292/miniconda3/envs/amoebamdpoltype/share/psi4/basis/aug-cc-pvtz-jkfit.gbs 

  ==> Pre-Iterations <==

   -------------------------------------------------------
    Irrep   Nso     Nmo     Nalpha   Nbeta   Ndocc  Nsocc
   -------------------------------------------------------
     A         92      92       0       0       0       0
   -------------------------------------------------------
    Total      92      92       5       5       5       0
   -------------------------------------------------------

  ==> Integral Setup <==

  DFHelper Memory: AOs need 0.015 GiB; user supplied 10.477 GiB. Using in-core AOs.

  ==> MemDFJK: Density-Fitted J/K Matrices <==

    J tasked:                   Yes
    K tasked:                   Yes
    wK tasked:                   No
    OpenMP threads:               4
    Memory [MiB]:             10728
    Algorithm:                 Core
    Schwarz Cutoff:           1E-12
    Mask sparsity (%):       0.0000
    Fitting Condition:        1E-10

   => Auxiliary Basis Set <=

  Basis Set: (AUG-CC-PVTZ AUX)
    Blend: AUG-CC-PVTZ-JKFIT
    Number of shells: 58
    Number of basis function: 196
    Number of Cartesian functions: 241
    Spherical Harmonics?: true
    Max angular momentum: 4

  Minimum eigenvalue in the overlap matrix is 3.7735689160E-04.
  Using Symmetric Orthogonalization.

  SCF Guess: Superposition of Atomic Densities via on-the-fly atomic UHF.

  ==> Iterations <==

                           Total Energy        Delta E     RMS |[F,P]|

   @DF-RHF iter SAD:   -75.47397106750333   -7.54740e+01   0.00000e+00 
   @DF-RHF iter   1:   -75.97658547928209   -5.02614e-01   5.09404e-03 DIIS
   @DF-RHF iter   2:   -76.02900222231615   -5.24167e-02   3.45205e-03 DIIS
   @DF-RHF iter   3:   -76.06002793139140   -3.10257e-02   2.34432e-04 DIIS
   @DF-RHF iter   4:   -76.06041758225771   -3.89651e-04   5.59732e-05 DIIS
   @DF-RHF iter   5:   -76.06044153063766   -2.39484e-05   1.26003e-05 DIIS
   @DF-RHF iter   6:   -76.06044348633571   -1.95570e-06   2.80424e-06 DIIS
   @DF-RHF iter   7:   -76.06044359411300   -1.07777e-07   5.29931e-07 DIIS
   @DF-RHF iter   8:   -76.06044359752794   -3.41494e-09   8.79009e-08 DIIS
   @DF-RHF iter   9:   -76.06044359760199   -7.40528e-11   2.18450e-08 DIIS
   @DF-RHF iter  10:   -76.06044359760615   -4.16378e-12   2.97904e-09 DIIS
  Energy and wave function converged.


  ==> Post-Iterations <==

    Orbital Energies [Eh]
    ---------------------

    Doubly Occupied:                                                      

       1A    -20.565509     2A     -1.350743     3A     -0.725013  
       4A     -0.577380     5A     -0.509191  

    Virtual:                                                              

       6A      0.029669     7A      0.047446     8A      0.136477  
       9A      0.157868    10A      0.174277    11A      0.182043  
      12A      0.228835    13A      0.244463    14A      0.263858  
      15A      0.304690    16A      0.313200    17A      0.365233  
      18A      0.437957    19A      0.466798    20A      0.602216  
      21A      0.654299    22A      0.711121    23A      0.719314  
      24A      0.731256    25A      0.828039    26A      0.843778  
      27A      0.890012    28A      0.912906    29A      0.920661  
      30A      0.923870    31A      0.927954    32A      0.971242  
      33A      1.022998    34A      1.045320    35A      1.085144  
      36A      1.114093    37A      1.172778    38A      1.177406  
      39A      1.259590    40A      1.514453    41A      1.563407  
      42A      1.595873    43A      1.785333    44A      1.797207  
      45A      2.003407    46A      2.115941    47A      2.259690  
      48A      2.318633    49A      2.321012    50A      2.413389  
      51A      2.414551    52A      2.438576    53A      2.471489  
      54A      2.686760    55A      2.703161    56A      2.768089  
      57A      2.856996    58A      2.883887    59A      3.645371  
      60A      3.769761    61A      4.007399    62A      4.090236  
      63A      4.211589    64A      4.231432    65A      4.335705  
      66A      4.381908    67A      4.400810    68A      4.416311  
      69A      4.493522    70A      4.707837    71A      4.812959  
      72A      5.124840    73A      5.172734    74A      5.306056  
      75A      5.330559    76A      5.513629    77A      5.721479  
      78A      6.140105    79A      6.534354    80A      6.713406  
      81A      6.859095    82A      7.146363    83A      7.262743  
      84A      7.299002    85A      7.308108    86A      7.371006  
      87A      7.387854    88A      7.558688    89A      7.897859  
      90A      7.964019    91A      8.789636    92A     15.861220  

    Final Occupation by Irrep:
              A 
    DOCC [     5 ]

  @DF-RHF Final Energy:   -76.06044359760615

   => Energetics <=

    Nuclear Repulsion Energy =              9.1834504445210587
    One-Electron Energy =                -123.0321162908976902
    Two-Electron Energy =                  37.7882222487704880
    Total Energy =                        -76.0604435976061382

Computation Completed


Properties will be evaluated at  -4.627508,   6.758359,  -1.679971 [a0]

Properties computed using the SCF density matrix

  Nuclear Dipole Moment: [e a0]
     X:    -0.2424      Y:    -0.4770      Z:    -0.7639

  Electronic Dipole Moment: [e a0]
     X:     0.0463      Y:     0.0911      Z:     0.1458

  Dipole Moment: [e a0]
     X:    -0.1961      Y:    -0.3859      Z:    -0.6181     Total:     0.7546

  Dipole Moment: [D]
     X:    -0.4985      Y:    -0.9809      Z:    -1.5710     Total:     1.9180


*** tstop() called on node37.bme.utexas.edu at Tue Feb 22 18:38:13 2022
Module time:
	user time   =       6.48 seconds =       0.11 minutes
	system time =       0.45 seconds =       0.01 minutes
	total time  =          4 seconds =       0.07 minutes
Total time:
	user time   =       6.48 seconds =       0.11 minutes
	system time =       0.45 seconds =       0.01 minutes
	total time  =          4 seconds =       0.07 minutes

*** tstart() called on node37.bme.utexas.edu
*** at Tue Feb 22 18:38:13 2022


  //>>>>>>>>>>>>>>>>>>>>>>>>>>>>>>>>>>>//
  //               DFMP2               //
  //<<<<<<<<<<<<<<<<<<<<<<<<<<<<<<<<<<<//

   => Loading Basis Set <=

    Name: (AUG-CC-PVTZ AUX)
    Role: RIFIT
    Keyword: DF_BASIS_MP2
    atoms 1   entry O          line   264 file /home/bdw2292/miniconda3/envs/amoebamdpoltype/share/psi4/basis/aug-cc-pvtz-ri.gbs 
    atoms 2-3 entry H          line    30 file /home/bdw2292/miniconda3/envs/amoebamdpoltype/share/psi4/basis/aug-cc-pvtz-ri.gbs 

	 --------------------------------------------------------
	                          DF-MP2                         
	      2nd-Order Density-Fitted Moller-Plesset Theory     
	              RMP2 Wavefunction,   4 Threads             
	                                                         
	        Rob Parrish, Justin Turney, Andy Simmonett,      
	           Ed Hohenstein, and C. David Sherrill          
	 --------------------------------------------------------

   => Auxiliary Basis Set <=

  Basis Set: (AUG-CC-PVTZ AUX)
    Blend: AUG-CC-PVTZ-RI
    Number of shells: 56
    Number of basis function: 198
    Number of Cartesian functions: 246
    Spherical Harmonics?: true
    Max angular momentum: 4

	 --------------------------------------------------------
	                 NBF =    92, NAUX =   198
	 --------------------------------------------------------
	   CLASS    FOCC     OCC    AOCC    AVIR     VIR    FVIR
	   PAIRS       1       5       4      87      87       0
	 --------------------------------------------------------

	-----------------------------------------------------------
	 ==================> DF-MP2 Energies <==================== 
	-----------------------------------------------------------
	 Reference Energy          =     -76.0604435976061524 [Eh]
	 Singles Energy            =      -0.0000000000000000 [Eh]
	 Same-Spin Energy          =      -0.0650941326716830 [Eh]
	 Opposite-Spin Energy      =      -0.2029755265824826 [Eh]
	 Correlation Energy        =      -0.2680696592541656 [Eh]
	 Total Energy              =     -76.3285132568603188 [Eh]
	-----------------------------------------------------------
	 ================> DF-SCS-MP2 Energies <================== 
	-----------------------------------------------------------
	 SCS Same-Spin Scale       =       0.3333333333333333 [-]
	 SCS Opposite-Spin Scale   =       1.2000000000000000 [-]
	 SCS Same-Spin Energy      =      -0.0216980442238943 [Eh]
	 SCS Opposite-Spin Energy  =      -0.2435706318989792 [Eh]
	 SCS Correlation Energy    =      -0.2652686761228735 [Eh]
	 SCS Total Energy          =     -76.3257122737290246 [Eh]
	-----------------------------------------------------------


*** tstop() called on node37.bme.utexas.edu at Tue Feb 22 18:38:13 2022
Module time:
	user time   =       1.54 seconds =       0.03 minutes
	system time =       0.11 seconds =       0.00 minutes
	total time  =          0 seconds =       0.00 minutes
Total time:
	user time   =       8.02 seconds =       0.13 minutes
	system time =       0.56 seconds =       0.01 minutes
	total time  =          4 seconds =       0.07 minutes

  //>>>>>>>>>>>>>>>>>>>>>>>>>>>>>>>>>>>>//
  // CBS Computation: MP2 / AUG-CC-PVQZ //
  //<<<<<<<<<<<<<<<<<<<<<<<<<<<<<<<<<<<<//

    SCF Algorithm Type (re)set to DF.

*** tstart() called on node37.bme.utexas.edu
*** at Tue Feb 22 18:38:13 2022

   => Loading Basis Set <=

    Name: AUG-CC-PVQZ
    Role: ORBITAL
    Keyword: BASIS
    atoms 1   entry O          line   419 file /home/bdw2292/miniconda3/envs/amoebamdpoltype/share/psi4/basis/aug-cc-pvqz.gbs 
    atoms 2-3 entry H          line    36 file /home/bdw2292/miniconda3/envs/amoebamdpoltype/share/psi4/basis/aug-cc-pvqz.gbs 


         ---------------------------------------------------------
                                   SCF
               by Justin Turney, Rob Parrish, Andy Simmonett
                          and Daniel G. A. Smith
                              RHF Reference
                        4 Threads,  14305 MiB Core
         ---------------------------------------------------------

  ==> Geometry <==

    Molecular point group: c1
    Full point group: C1

    Geometry (in Angstrom), charge = 0, multiplicity = 1:

       Center              X                  Y                   Z               Mass       
    ------------   -----------------  -----------------  -----------------  -----------------
         O           -2.432474921429     3.608438506993    -0.837643100977    15.994914619570
         H           -3.108972021429     2.932398306993    -0.885037200977     1.007825032230
         H           -2.047212321429     3.711379306993    -1.708072800977     1.007825032230

  Running in c1 symmetry.

  Rotational constants: A =      9.63743  B =      0.04773  C =      0.04764 [cm^-1]
  Rotational constants: A = 288922.84052  B =   1430.93752  C =   1428.35669 [MHz]
  Nuclear repulsion =    9.183450444521059

  Charge       = 0
  Multiplicity = 1
  Electrons    = 10
  Nalpha       = 5
  Nbeta        = 5

  ==> Algorithm <==

  SCF Algorithm Type is DF.
  DIIS enabled.
  MOM disabled.
  Fractional occupation disabled.
  Guess Type is SAD.
  Energy threshold   = 1.00e-08
  Density threshold  = 1.00e-08
  Integral threshold = 0.00e+00

  ==> Primary Basis <==

  Basis Set: AUG-CC-PVQZ
    Blend: AUG-CC-PVQZ
    Number of shells: 48
    Number of basis function: 172
    Number of Cartesian functions: 215
    Spherical Harmonics?: true
    Max angular momentum: 4

   => Loading Basis Set <=

    Name: (AUG-CC-PVQZ AUX)
    Role: JKFIT
    Keyword: DF_BASIS_SCF
    atoms 1   entry O          line   318 file /home/bdw2292/miniconda3/envs/amoebamdpoltype/share/psi4/basis/aug-cc-pvqz-jkfit.gbs 
    atoms 2-3 entry H          line    70 file /home/bdw2292/miniconda3/envs/amoebamdpoltype/share/psi4/basis/aug-cc-pvqz-jkfit.gbs 

  ==> Pre-Iterations <==

   -------------------------------------------------------
    Irrep   Nso     Nmo     Nalpha   Nbeta   Ndocc  Nsocc
   -------------------------------------------------------
     A        172     172       0       0       0       0
   -------------------------------------------------------
    Total     172     172       5       5       5       0
   -------------------------------------------------------

  ==> Integral Setup <==

  DFHelper Memory: AOs need 0.074 GiB; user supplied 10.477 GiB. Using in-core AOs.

  ==> MemDFJK: Density-Fitted J/K Matrices <==

    J tasked:                   Yes
    K tasked:                   Yes
    wK tasked:                   No
    OpenMP threads:               4
    Memory [MiB]:             10728
    Algorithm:                 Core
    Schwarz Cutoff:           1E-12
    Mask sparsity (%):       0.0000
    Fitting Condition:        1E-10

   => Auxiliary Basis Set <=

  Basis Set: (AUG-CC-PVQZ AUX)
    Blend: AUG-CC-PVQZ-JKFIT
    Number of shells: 70
    Number of basis function: 294
    Number of Cartesian functions: 400
    Spherical Harmonics?: true
    Max angular momentum: 5

  Minimum eigenvalue in the overlap matrix is 8.5390300649E-05.
  Using Symmetric Orthogonalization.

  SCF Guess: Superposition of Atomic Densities via on-the-fly atomic UHF.

  ==> Iterations <==

                           Total Energy        Delta E     RMS |[F,P]|

   @DF-RHF iter SAD:   -75.47912726891280   -7.54791e+01   0.00000e+00 
   @DF-RHF iter   1:   -75.98166754131444   -5.02540e-01   2.73049e-03 DIIS
   @DF-RHF iter   2:   -76.03418862111435   -5.25211e-02   1.85468e-03 DIIS
   @DF-RHF iter   3:   -76.06541234726072   -3.12237e-02   1.26307e-04 DIIS
   @DF-RHF iter   4:   -76.06580405637087   -3.91709e-04   3.08572e-05 DIIS
   @DF-RHF iter   5:   -76.06582890358249   -2.48472e-05   6.92073e-06 DIIS
   @DF-RHF iter   6:   -76.06583094156224   -2.03798e-06   1.58151e-06 DIIS
   @DF-RHF iter   7:   -76.06583106058375   -1.19022e-07   3.08441e-07 DIIS
   @DF-RHF iter   8:   -76.06583106460731   -4.02356e-09   4.93579e-08 DIIS
   @DF-RHF iter   9:   -76.06583106469117   -8.38583e-11   1.19501e-08 DIIS
   @DF-RHF iter  10:   -76.06583106469508   -3.90799e-12   1.66098e-09 DIIS
  Energy and wave function converged.


  ==> Post-Iterations <==

    Orbital Energies [Eh]
    ---------------------

    Doubly Occupied:                                                      

       1A    -20.563054     2A     -1.350017     3A     -0.724978  
       4A     -0.577432     5A     -0.509320  

    Virtual:                                                              

       6A      0.027147     7A      0.042877     8A      0.114697  
       9A      0.132617    10A      0.150354    11A      0.157869  
      12A      0.185974    13A      0.197116    14A      0.208279  
      15A      0.241297    16A      0.258922    17A      0.290434  
      18A      0.358088    19A      0.390600    20A      0.471801  
      21A      0.506729    22A      0.543000    23A      0.545716  
      24A      0.554147    25A      0.613312    26A      0.634218  
      27A      0.649587    28A      0.662645    29A      0.665814  
      30A      0.690241    31A      0.705201    32A      0.714925  
      33A      0.769562    34A      0.787618    35A      0.803480  
      36A      0.809883    37A      0.846699    38A      0.855356  
      39A      0.967464    40A      1.134235    41A      1.140804  
      42A      1.216691    43A      1.329066    44A      1.418245  
      45A      1.480504    46A      1.506135    47A      1.521663  
      48A      1.525099    49A      1.555854    50A      1.595485  
      51A      1.618125    52A      1.636626    53A      1.659598  
      54A      1.672456    55A      1.685984    56A      1.702516  
      57A      1.719883    58A      1.763367    59A      1.781468  
      60A      1.793804    61A      1.828568    62A      1.862910  
      63A      1.881892    64A      1.900624    65A      1.953977  
      66A      2.013860    67A      2.021642    68A      2.029542  
      69A      2.099043    70A      2.218811    71A      2.225725  
      72A      2.307066    73A      2.492186    74A      2.642103  
      75A      2.643389    76A      2.890869    77A      2.962249  
      78A      3.010142    79A      3.023854    80A      3.061469  
      81A      3.088401    82A      3.253112    83A      3.283346  
      84A      3.310608    85A      3.529786    86A      3.591085  
      87A      3.658133    88A      3.681818    89A      3.741128  
      90A      3.741320    91A      3.920867    92A      4.066443  
      93A      4.159371    94A      4.170482    95A      4.174807  
      96A      4.181127    97A      4.250840    98A      4.344142  
      99A      4.419000   100A      4.566169   101A      4.663800  
     102A      4.760919   103A      4.802977   104A      4.807014  
     105A      4.839638   106A      4.875524   107A      4.998590  
     108A      5.275996   109A      5.315742   110A      5.512802  
     111A      5.547790   112A      5.878284   113A      5.882495  
     114A      6.080394   115A      6.230588   116A      6.836000  
     117A      6.859234   118A      6.861762   119A      6.955816  
     120A      7.713912   121A      7.780018   122A      7.828577  
     123A      7.845771   124A      7.878217   125A      7.918821  
     126A      7.946788   127A      8.006706   128A      8.197673  
     129A      8.339643   130A      8.536920   131A      8.591210  
     132A      8.705424   133A      8.758587   134A      8.799311  
     135A      8.876027   136A      8.981857   137A      9.063574  
     138A      9.142684   139A      9.529457   140A      9.842569  
     141A      9.962607   142A      9.965905   143A     10.013076  
     144A     10.440233   145A     10.478362   146A     10.654518  
     147A     10.993236   148A     11.038346   149A     11.078698  
     150A     11.260053   151A     11.368883   152A     11.438843  
     153A     11.697201   154A     11.796631   155A     11.834758  
     156A     12.012728   157A     12.175704   158A     12.225275  
     159A     12.532061   160A     12.736624   161A     12.876163  
     162A     12.895386   163A     13.211011   164A     13.998978  
     165A     14.039333   166A     14.488625   167A     14.846776  
     168A     14.876692   169A     15.302023   170A     16.927854  
     171A     17.267109   172A     45.492548  

    Final Occupation by Irrep:
              A 
    DOCC [     5 ]

  @DF-RHF Final Energy:   -76.06583106469508

   => Energetics <=

    Nuclear Repulsion Energy =              9.1834504445210587
    One-Electron Energy =                -123.0489599081436864
    Two-Electron Energy =                  37.7996783989275542
    Total Energy =                        -76.0658310646950753

Computation Completed


Properties will be evaluated at  -4.627508,   6.758359,  -1.679971 [a0]

Properties computed using the SCF density matrix

  Nuclear Dipole Moment: [e a0]
     X:    -0.2424      Y:    -0.4770      Z:    -0.7639

  Electronic Dipole Moment: [e a0]
     X:     0.0465      Y:     0.0915      Z:     0.1465

  Dipole Moment: [e a0]
     X:    -0.1959      Y:    -0.3855      Z:    -0.6174     Total:     0.7537

  Dipole Moment: [D]
     X:    -0.4979      Y:    -0.9798      Z:    -1.5692     Total:     1.9158


*** tstop() called on node37.bme.utexas.edu at Tue Feb 22 18:38:18 2022
Module time:
	user time   =      10.14 seconds =       0.17 minutes
	system time =       0.77 seconds =       0.01 minutes
	total time  =          5 seconds =       0.08 minutes
Total time:
	user time   =      18.21 seconds =       0.30 minutes
	system time =       1.34 seconds =       0.02 minutes
	total time  =          9 seconds =       0.15 minutes

*** tstart() called on node37.bme.utexas.edu
*** at Tue Feb 22 18:38:18 2022


  //>>>>>>>>>>>>>>>>>>>>>>>>>>>>>>>>>>>//
  //               DFMP2               //
  //<<<<<<<<<<<<<<<<<<<<<<<<<<<<<<<<<<<//

   => Loading Basis Set <=

    Name: (AUG-CC-PVQZ AUX)
    Role: RIFIT
    Keyword: DF_BASIS_MP2
    atoms 1   entry O          line   332 file /home/bdw2292/miniconda3/envs/amoebamdpoltype/share/psi4/basis/aug-cc-pvqz-ri.gbs 
    atoms 2-3 entry H          line    30 file /home/bdw2292/miniconda3/envs/amoebamdpoltype/share/psi4/basis/aug-cc-pvqz-ri.gbs 

	 --------------------------------------------------------
	                          DF-MP2                         
	      2nd-Order Density-Fitted Moller-Plesset Theory     
	              RMP2 Wavefunction,   4 Threads             
	                                                         
	        Rob Parrish, Justin Turney, Andy Simmonett,      
	           Ed Hohenstein, and C. David Sherrill          
	 --------------------------------------------------------

   => Auxiliary Basis Set <=

  Basis Set: (AUG-CC-PVQZ AUX)
    Blend: AUG-CC-PVQZ-RI
    Number of shells: 76
    Number of basis function: 328
    Number of Cartesian functions: 447
    Spherical Harmonics?: true
    Max angular momentum: 5

	 --------------------------------------------------------
	                 NBF =   172, NAUX =   328
	 --------------------------------------------------------
	   CLASS    FOCC     OCC    AOCC    AVIR     VIR    FVIR
	   PAIRS       1       5       4     167     167       0
	 --------------------------------------------------------

	-----------------------------------------------------------
	 ==================> DF-MP2 Energies <==================== 
	-----------------------------------------------------------
	 Reference Energy          =     -76.0658310646950753 [Eh]
	 Singles Energy            =      -0.0000000000000000 [Eh]
	 Same-Spin Energy          =      -0.0671636060540298 [Eh]
	 Opposite-Spin Energy      =      -0.2185150909561650 [Eh]
	 Correlation Energy        =      -0.2856786970101948 [Eh]
	 Total Energy              =     -76.3515097617052731 [Eh]
	-----------------------------------------------------------
	 ================> DF-SCS-MP2 Energies <================== 
	-----------------------------------------------------------
	 SCS Same-Spin Scale       =       0.3333333333333333 [-]
	 SCS Opposite-Spin Scale   =       1.2000000000000000 [-]
	 SCS Same-Spin Energy      =      -0.0223878686846766 [Eh]
	 SCS Opposite-Spin Energy  =      -0.2622181091473980 [Eh]
	 SCS Correlation Energy    =      -0.2846059778320746 [Eh]
	 SCS Total Energy          =     -76.3504370425271475 [Eh]
	-----------------------------------------------------------


*** tstop() called on node37.bme.utexas.edu at Tue Feb 22 18:38:20 2022
Module time:
	user time   =       2.75 seconds =       0.05 minutes
	system time =       0.20 seconds =       0.00 minutes
	total time  =          2 seconds =       0.03 minutes
Total time:
	user time   =      20.96 seconds =       0.35 minutes
	system time =       1.54 seconds =       0.03 minutes
	total time  =         11 seconds =       0.18 minutes

  //>>>>>>>>>>>>>>>>>>>>>>>>>>>>>>>>>>>//
  //  CBS Results: mp2/aug-cc-pV[TQ]Z  //
  //<<<<<<<<<<<<<<<<<<<<<<<<<<<<<<<<<<<//


   ==> HF <==

   HI-zeta (4) Energy:               -76.065831064695


   ==> Helgaker 2-point correlated extrapolation for method: MP2 <==

   LO-zeta (3) Energy:               -76.328513256860
   HI-zeta (4) Energy:               -76.351509761705
   Alpha (exponent) Value:             3.000000000000
   Extrapolated Energy:              -76.368290994971

   @Extrapolated MP2/(T,Q):          -76.368290994971



   ==> Helgaker 2-point correlated extrapolation for method: HF <==

   LO-zeta (3) Energy:               -76.060443597606
   HI-zeta (4) Energy:               -76.065831064695
   Alpha (exponent) Value:             3.000000000000
   Extrapolated Energy:              -76.069762459598

   @Extrapolated HF/(T,Q):           -76.069762459598


   ==> Components <==

  ---------------------------------------------------------------------------------------------------------
                          Method / Basis                      Rqd      Energy [Eh]   Variable
  ---------------------------------------------------------------------------------------------------------
                              hf / aug-cc-pvtz                  *     -76.06044360   HF TOTAL ENERGY
                             mp2 / aug-cc-pvtz                  *     -76.32851326   MP2 TOTAL ENERGY
                              hf / aug-cc-pvqz                  *     -76.06583106   HF TOTAL ENERGY
                             mp2 / aug-cc-pvqz                  *     -76.35150976   MP2 TOTAL ENERGY
  ---------------------------------------------------------------------------------------------------------

   ==> Stages <==

  ---------------------------------------------------------------------------------------------------------
      Stage               Method / Basis                       Wt      Energy [Eh]   Scheme
  ---------------------------------------------------------------------------------------------------------
        scf                   hf / aug-cc-pvqz                  1     -76.06583106   xtpl_highest_1
       corl                  mp2 / aug-cc-pv[tq]z               1     -76.36829099   corl_xtpl_helgaker_2
       corl                   hf / aug-cc-pv[tq]z              -1     -76.06976246   corl_xtpl_helgaker_2
  ---------------------------------------------------------------------------------------------------------

   ==> CBS <==

  ---------------------------------------------------------------------------------------------------------
      Stage               Method / Basis                               Energy [Eh]   Scheme
  ---------------------------------------------------------------------------------------------------------
        scf                   hf / aug-cc-pvqz                        -76.06583106   xtpl_highest_1
       corl                  mp2 / aug-cc-pv[tq]z                      -0.29852854   corl_xtpl_helgaker_2
      total                  CBS                                      -76.36435960   
  ---------------------------------------------------------------------------------------------------------
   => Loading Basis Set <=

    Name: DEF2-SVP
    Role: ORBITAL
    Keyword: BASIS
    atoms 1   entry O          line   130 file /home/bdw2292/miniconda3/envs/amoebamdpoltype/share/psi4/basis/def2-svp.gbs 
    atoms 2-3 entry H          line    15 file /home/bdw2292/miniconda3/envs/amoebamdpoltype/share/psi4/basis/def2-svp.gbs 


       N-Body: Complex Energy (fragments = (2,), basis = (2,):   -76.36435960006777)

       N-Body: Computing complex (2/4) with fragments (2,) in the basis of fragments (1, 2).


  //>>>>>>>>>>>>>>>>>>>>>>>>>>>>>>>>>>>//
  //   CBS Setup: mp2/aug-cc-pV[TQ]Z   //
  //<<<<<<<<<<<<<<<<<<<<<<<<<<<<<<<<<<<//

    Naive listing of computations required.
             hf / aug-cc-pvqz              for  HF TOTAL ENERGY
            mp2 / aug-cc-pvtz              for  MP2 TOTAL ENERGY
            mp2 / aug-cc-pvqz              for  MP2 TOTAL ENERGY
             hf / aug-cc-pvtz              for  HF TOTAL ENERGY
             hf / aug-cc-pvqz              for  HF TOTAL ENERGY

    Enlightened listing of computations required.
            mp2 / aug-cc-pvtz              for  MP2 TOTAL ENERGY
            mp2 / aug-cc-pvqz              for  MP2 TOTAL ENERGY

    Full listing of computations to be obtained (required and bonus).
             hf / aug-cc-pvtz              for  HF TOTAL ENERGY
            mp2 / aug-cc-pvtz              for  MP2 TOTAL ENERGY
             hf / aug-cc-pvqz              for  HF TOTAL ENERGY
            mp2 / aug-cc-pvqz              for  MP2 TOTAL ENERGY

  //>>>>>>>>>>>>>>>>>>>>>>>>>>>>>>>>>>>>//
  // CBS Computation: MP2 / AUG-CC-PVTZ //
  //<<<<<<<<<<<<<<<<<<<<<<<<<<<<<<<<<<<<//

    SCF Algorithm Type (re)set to DF.

*** tstart() called on node37.bme.utexas.edu
*** at Tue Feb 22 18:38:21 2022

   => Loading Basis Set <=

    Name: AUG-CC-PVTZ
    Role: ORBITAL
    Keyword: BASIS
    atoms 1-3    entry CL         line   984 file /home/bdw2292/miniconda3/envs/amoebamdpoltype/share/psi4/basis/aug-cc-pvtz.gbs 
    atoms 4      entry C          line   235 file /home/bdw2292/miniconda3/envs/amoebamdpoltype/share/psi4/basis/aug-cc-pvtz.gbs 
    atoms 5, 7-8 entry H          line    36 file /home/bdw2292/miniconda3/envs/amoebamdpoltype/share/psi4/basis/aug-cc-pvtz.gbs 
    atoms 6      entry O          line   327 file /home/bdw2292/miniconda3/envs/amoebamdpoltype/share/psi4/basis/aug-cc-pvtz.gbs 


         ---------------------------------------------------------
                                   SCF
               by Justin Turney, Rob Parrish, Andy Simmonett
                          and Daniel G. A. Smith
                              RHF Reference
                        4 Threads,  14305 MiB Core
         ---------------------------------------------------------

  ==> Geometry <==

    Molecular point group: c1
    Full point group: C1

    Geometry (in Angstrom), charge = 0, multiplicity = 1:

       Center              X                  Y                   Z               Mass       
    ------------   -----------------  -----------------  -----------------  -----------------
      Gh(CL)         -0.218127921429     1.005022106993     0.376599099023    34.968852682000
      Gh(CL)          2.027677078571    -0.795298293007    -0.014201300977    34.968852682000
      Gh(CL)         -0.691523321429    -1.809948993007    -0.155725200977    34.968852682000
      Gh(C)           0.383341578571    -0.634091893007     0.592384899023    12.000000000000
      Gh(H)           0.404416078571    -0.838726893007     1.662697999023     1.007825032230
         O           -2.432474921429     3.608438506993    -0.837643100977    15.994914619570
         H           -3.108972021429     2.932398306993    -0.885037200977     1.007825032230
         H           -2.047212321429     3.711379306993    -1.708072800977     1.007825032230

  Running in c1 symmetry.

  Rotational constants: A =      0.09981  B =      0.03009  C =      0.02449 [cm^-1]
  Rotational constants: A =   2992.08210  B =    902.04859  C =    734.09292 [MHz]
  Nuclear repulsion =    9.183450444521059

  Charge       = 0
  Multiplicity = 1
  Electrons    = 10
  Nalpha       = 5
  Nbeta        = 5

  ==> Algorithm <==

  SCF Algorithm Type is DF.
  DIIS enabled.
  MOM disabled.
  Fractional occupation disabled.
  Guess Type is SAD.
  Energy threshold   = 1.00e-08
  Density threshold  = 1.00e-08
  Integral threshold = 0.00e+00

  ==> Primary Basis <==

  Basis Set: AUG-CC-PVTZ
    Blend: AUG-CC-PVTZ
    Number of shells: 103
    Number of basis function: 311
    Number of Cartesian functions: 362
    Spherical Harmonics?: true
    Max angular momentum: 3

   => Loading Basis Set <=

    Name: (AUG-CC-PVTZ AUX)
    Role: JKFIT
    Keyword: DF_BASIS_SCF
    atoms 1-3    entry CL         line   816 file /home/bdw2292/miniconda3/envs/amoebamdpoltype/share/psi4/basis/aug-cc-pvtz-jkfit.gbs 
    atoms 4      entry C          line   162 file /home/bdw2292/miniconda3/envs/amoebamdpoltype/share/psi4/basis/aug-cc-pvtz-jkfit.gbs 
    atoms 5, 7-8 entry H          line    70 file /home/bdw2292/miniconda3/envs/amoebamdpoltype/share/psi4/basis/aug-cc-pvtz-jkfit.gbs 
    atoms 6      entry O          line   286 file /home/bdw2292/miniconda3/envs/amoebamdpoltype/share/psi4/basis/aug-cc-pvtz-jkfit.gbs 

  ==> Pre-Iterations <==

   -------------------------------------------------------
    Irrep   Nso     Nmo     Nalpha   Nbeta   Ndocc  Nsocc
   -------------------------------------------------------
     A        311     311       0       0       0       0
   -------------------------------------------------------
    Total     311     311       5       5       5       0
   -------------------------------------------------------

  ==> Integral Setup <==

  DFHelper Memory: AOs need 0.538 GiB; user supplied 10.477 GiB. Using in-core AOs.

  ==> MemDFJK: Density-Fitted J/K Matrices <==

    J tasked:                   Yes
    K tasked:                   Yes
    wK tasked:                   No
    OpenMP threads:               4
    Memory [MiB]:             10728
    Algorithm:                 Core
    Schwarz Cutoff:           1E-12
    Mask sparsity (%):       9.5967
    Fitting Condition:        1E-10

   => Auxiliary Basis Set <=

  Basis Set: (AUG-CC-PVTZ AUX)
    Blend: AUG-CC-PVTZ-JKFIT
    Number of shells: 228
    Number of basis function: 784
    Number of Cartesian functions: 967
    Spherical Harmonics?: true
    Max angular momentum: 4

  Minimum eigenvalue in the overlap matrix is 5.9276816345E-05.
  Using Symmetric Orthogonalization.

  SCF Guess: Superposition of Atomic Densities via on-the-fly atomic UHF.

  ==> Iterations <==

                           Total Energy        Delta E     RMS |[F,P]|

   @DF-RHF iter SAD:   -75.47397105993065   -7.54740e+01   0.00000e+00 
   @DF-RHF iter   1:   -75.97659136301723   -5.02620e-01   1.50699e-03 DIIS
   @DF-RHF iter   2:   -76.02901267366846   -5.24213e-02   1.02132e-03 DIIS
   @DF-RHF iter   3:   -76.06004429842693   -3.10316e-02   6.93533e-05 DIIS
   @DF-RHF iter   4:   -76.06043398835826   -3.89690e-04   1.65623e-05 DIIS
   @DF-RHF iter   5:   -76.06045794515512   -2.39568e-05   3.72666e-06 DIIS
   @DF-RHF iter   6:   -76.06045990031627   -1.95516e-06   8.29262e-07 DIIS
   @DF-RHF iter   7:   -76.06046000805975   -1.07743e-07   1.56925e-07 DIIS
   @DF-RHF iter   8:   -76.06046001148607   -3.42632e-09   2.60614e-08 DIIS
   @DF-RHF iter   9:   -76.06046001156045   -7.43796e-11   6.46810e-09 DIIS
  Energy and wave function converged.


  ==> Post-Iterations <==

    Orbital Energies [Eh]
    ---------------------

    Doubly Occupied:                                                      

       1A    -20.565489     2A     -1.350729     3A     -0.725001  
       4A     -0.577372     5A     -0.509186  

    Virtual:                                                              

       6A      0.021521     7A      0.035605     8A      0.044699  
       9A      0.055548    10A      0.062273    11A      0.073186  
      12A      0.104727    13A      0.108555    14A      0.109901  
      15A      0.113617    16A      0.120860    17A      0.130375  
      18A      0.143545    19A      0.156808    20A      0.157448  
      21A      0.164495    22A      0.174242    23A      0.177051  
      24A      0.181231    25A      0.189092    26A      0.198723  
      27A      0.212670    28A      0.231777    29A      0.243526  
      30A      0.254118    31A      0.281115    32A      0.301102  
      33A      0.317710    34A      0.323894    35A      0.330133  
      36A      0.346884    37A      0.355457    38A      0.362703  
      39A      0.370972    40A      0.374107    41A      0.382857  
      42A      0.395463    43A      0.404497    44A      0.417373  
      45A      0.418778    46A      0.424411    47A      0.430258  
      48A      0.447128    49A      0.456021    50A      0.461513  
      51A      0.471136    52A      0.477074    53A      0.506212  
      54A      0.507836    55A      0.509196    56A      0.531911  
      57A      0.542768    58A      0.559592    59A      0.566789  
      60A      0.581712    61A      0.594336    62A      0.604664  
      63A      0.626094    64A      0.630170    65A      0.638635  
      66A      0.651630    67A      0.665726    68A      0.674745  
      69A      0.684133    70A      0.722004    71A      0.733370  
      72A      0.749395    73A      0.755106    74A      0.765803  
      75A      0.774048    76A      0.798174    77A      0.800665  
      78A      0.821422    79A      0.840634    80A      0.843098  
      81A      0.859253    82A      0.876168    83A      0.886089  
      84A      0.925282    85A      0.937569    86A      0.941792  
      87A      0.980382    88A      1.010104    89A      1.027336  
      90A      1.040916    91A      1.057749    92A      1.062939  
      93A      1.071787    94A      1.107761    95A      1.114654  
      96A      1.150779    97A      1.159481    98A      1.165926  
      99A      1.172244   100A      1.184110   101A      1.202006  
     102A      1.217937   103A      1.239797   104A      1.246182  
     105A      1.261784   106A      1.265594   107A      1.273666  
     108A      1.287557   109A      1.295223   110A      1.308622  
     111A      1.330545   112A      1.337282   113A      1.350568  
     114A      1.353720   115A      1.376190   116A      1.380578  
     117A      1.395622   118A      1.425086   119A      1.437462  
     120A      1.441996   121A      1.465481   122A      1.491482  
     123A      1.494023   124A      1.498184   125A      1.507283  
     126A      1.510193   127A      1.513241   128A      1.529053  
     129A      1.535462   130A      1.547422   131A      1.547628  
     132A      1.563521   133A      1.571674   134A      1.575910  
     135A      1.596425   136A      1.604439   137A      1.619302  
     138A      1.628926   139A      1.657264   140A      1.658886  
     141A      1.678758   142A      1.696442   143A      1.710975  
     144A      1.727051   145A      1.743179   146A      1.790806  
     147A      1.802883   148A      1.812941   149A      1.843907  
     150A      1.849800   151A      1.867319   152A      1.917357  
     153A      2.011825   154A      2.045552   155A      2.052801  
     156A      2.096004   157A      2.121892   158A      2.123322  
     159A      2.131742   160A      2.143485   161A      2.162106  
     162A      2.179162   163A      2.180438   164A      2.253491  
     165A      2.255292   166A      2.290653   167A      2.294722  
     168A      2.338716   169A      2.339545   170A      2.375027  
     171A      2.420937   172A      2.456866   173A      2.471020  
     174A      2.477081   175A      2.505007   176A      2.507935  
     177A      2.519802   178A      2.566462   179A      2.585608  
     180A      2.610908   181A      2.702054   182A      2.741703  
     183A      2.749299   184A      2.759100   185A      2.801140  
     186A      2.858628   187A      2.911876   188A      3.047868  
     189A      3.665156   190A      3.787233   191A      3.808369  
     192A      3.844475   193A      3.860308   194A      3.866692  
     195A      3.962946   196A      3.966572   197A      3.969034  
     198A      3.973335   199A      3.984022   200A      3.991611  
     201A      3.999929   202A      4.002411   203A      4.012601  
     204A      4.015660   205A      4.048676   206A      4.053076  
     207A      4.074434   208A      4.116935   209A      4.121633  
     210A      4.128272   211A      4.154512   212A      4.170068  
     213A      4.178025   214A      4.189089   215A      4.196277  
     216A      4.212145   217A      4.216039   218A      4.219576  
     219A      4.234359   220A      4.241950   221A      4.246365  
     222A      4.252995   223A      4.356932   224A      4.389474  
     225A      4.411317   226A      4.419487   227A      4.428012  
     228A      4.450303   229A      4.465974   230A      4.468447  
     231A      4.485860   232A      4.497876   233A      4.582477  
     234A      4.669371   235A      4.702297   236A      4.735777  
     237A      4.739875   238A      4.745046   239A      4.752464  
     240A      4.764449   241A      4.769152   242A      4.777507  
     243A      4.783180   244A      4.796358   245A      4.816911  
     246A      4.829762   247A      4.831783   248A      4.882146  
     249A      4.900996   250A      4.903517   251A      4.916586  
     252A      4.921450   253A      5.087218   254A      5.093343  
     255A      5.129173   256A      5.130800   257A      5.138342  
     258A      5.186089   259A      5.251715   260A      5.262914  
     261A      5.311556   262A      5.327634   263A      5.328458  
     264A      5.351728   265A      5.484743   266A      5.486362  
     267A      5.523338   268A      5.547643   269A      5.736797  
     270A      5.765978   271A      5.977012   272A      5.979041  
     273A      6.163529   274A      6.197025   275A      6.213177  
     276A      6.391364   277A      6.546284   278A      6.717448  
     279A      6.752722   280A      6.871232   281A      7.165580  
     282A      7.287916   283A      7.316022   284A      7.345347  
     285A      7.382294   286A      7.390741   287A      7.572501  
     288A      7.900323   289A      7.907831   290A      7.918492  
     291A      7.969590   292A      8.102285   293A      8.793524  
     294A      9.402646   295A     15.805351   296A     15.955456  
     297A     16.434625   298A     16.528053   299A     28.056931  
     300A     28.124905   301A     28.129803   302A     28.141013  
     303A     28.212764   304A     28.214816   305A     28.845420  
     306A     28.858002   307A     29.383667   308A     45.555284  
     309A    160.978641   310A    161.050627   311A    161.065276  

    Final Occupation by Irrep:
              A 
    DOCC [     5 ]

  @DF-RHF Final Energy:   -76.06046001156045

   => Energetics <=

    Nuclear Repulsion Energy =              9.1834504445210587
    One-Electron Energy =                -123.0322637513749839
    Two-Electron Energy =                  37.7883532952934829
    Total Energy =                        -76.0604600115604512

Computation Completed


Properties will be evaluated at   0.000000,  -0.000000,   0.000000 [a0]

Properties computed using the SCF density matrix

  Nuclear Dipole Moment: [e a0]
     X:   -46.5175      Y:    67.1066      Z:   -17.5636

  Electronic Dipole Moment: [e a0]
     X:    46.3212      Y:   -67.4923      Z:    16.9455

  Dipole Moment: [e a0]
     X:    -0.1963      Y:    -0.3857      Z:    -0.6181     Total:     0.7545

  Dipole Moment: [D]
     X:    -0.4989      Y:    -0.9803      Z:    -1.5710     Total:     1.9178


*** tstop() called on node37.bme.utexas.edu at Tue Feb 22 18:38:40 2022
Module time:
	user time   =      39.37 seconds =       0.66 minutes
	system time =       2.10 seconds =       0.04 minutes
	total time  =         19 seconds =       0.32 minutes
Total time:
	user time   =      62.09 seconds =       1.03 minutes
	system time =       3.70 seconds =       0.06 minutes
	total time  =         31 seconds =       0.52 minutes

*** tstart() called on node37.bme.utexas.edu
*** at Tue Feb 22 18:38:40 2022


  //>>>>>>>>>>>>>>>>>>>>>>>>>>>>>>>>>>>//
  //               DFMP2               //
  //<<<<<<<<<<<<<<<<<<<<<<<<<<<<<<<<<<<//

   => Loading Basis Set <=

    Name: (AUG-CC-PVTZ AUX)
    Role: RIFIT
    Keyword: DF_BASIS_MP2
    atoms 1-3    entry CL         line   742 file /home/bdw2292/miniconda3/envs/amoebamdpoltype/share/psi4/basis/aug-cc-pvtz-ri.gbs 
    atoms 4      entry C          line   148 file /home/bdw2292/miniconda3/envs/amoebamdpoltype/share/psi4/basis/aug-cc-pvtz-ri.gbs 
    atoms 5, 7-8 entry H          line    30 file /home/bdw2292/miniconda3/envs/amoebamdpoltype/share/psi4/basis/aug-cc-pvtz-ri.gbs 
    atoms 6      entry O          line   264 file /home/bdw2292/miniconda3/envs/amoebamdpoltype/share/psi4/basis/aug-cc-pvtz-ri.gbs 

	 --------------------------------------------------------
	                          DF-MP2                         
	      2nd-Order Density-Fitted Moller-Plesset Theory     
	              RMP2 Wavefunction,   4 Threads             
	                                                         
	        Rob Parrish, Justin Turney, Andy Simmonett,      
	           Ed Hohenstein, and C. David Sherrill          
	 --------------------------------------------------------

   => Auxiliary Basis Set <=

  Basis Set: (AUG-CC-PVTZ AUX)
    Blend: AUG-CC-PVTZ-RI
    Number of shells: 209
    Number of basis function: 791
    Number of Cartesian functions: 1010
    Spherical Harmonics?: true
    Max angular momentum: 4

	 --------------------------------------------------------
	                 NBF =   311, NAUX =   791
	 --------------------------------------------------------
	   CLASS    FOCC     OCC    AOCC    AVIR     VIR    FVIR
	   PAIRS       1       5       4     306     306       0
	 --------------------------------------------------------

	-----------------------------------------------------------
	 ==================> DF-MP2 Energies <==================== 
	-----------------------------------------------------------
	 Reference Energy          =     -76.0604600115604512 [Eh]
	 Singles Energy            =      -0.0000000000000000 [Eh]
	 Same-Spin Energy          =      -0.0651008296185950 [Eh]
	 Opposite-Spin Energy      =      -0.2030399530699016 [Eh]
	 Correlation Energy        =      -0.2681407826884966 [Eh]
	 Total Energy              =     -76.3286007942489420 [Eh]
	-----------------------------------------------------------
	 ================> DF-SCS-MP2 Energies <================== 
	-----------------------------------------------------------
	 SCS Same-Spin Scale       =       0.3333333333333333 [-]
	 SCS Opposite-Spin Scale   =       1.2000000000000000 [-]
	 SCS Same-Spin Energy      =      -0.0217002765395317 [Eh]
	 SCS Opposite-Spin Energy  =      -0.2436479436838819 [Eh]
	 SCS Correlation Energy    =      -0.2653482202234135 [Eh]
	 SCS Total Energy          =     -76.3258082317838671 [Eh]
	-----------------------------------------------------------


*** tstop() called on node37.bme.utexas.edu at Tue Feb 22 18:38:47 2022
Module time:
	user time   =      17.15 seconds =       0.29 minutes
	system time =       1.11 seconds =       0.02 minutes
	total time  =          7 seconds =       0.12 minutes
Total time:
	user time   =      79.24 seconds =       1.32 minutes
	system time =       4.81 seconds =       0.08 minutes
	total time  =         38 seconds =       0.63 minutes

  //>>>>>>>>>>>>>>>>>>>>>>>>>>>>>>>>>>>>//
  // CBS Computation: MP2 / AUG-CC-PVQZ //
  //<<<<<<<<<<<<<<<<<<<<<<<<<<<<<<<<<<<<//

    SCF Algorithm Type (re)set to DF.

*** tstart() called on node37.bme.utexas.edu
*** at Tue Feb 22 18:38:47 2022

   => Loading Basis Set <=

    Name: AUG-CC-PVQZ
    Role: ORBITAL
    Keyword: BASIS
    atoms 1-3    entry CL         line  1218 file /home/bdw2292/miniconda3/envs/amoebamdpoltype/share/psi4/basis/aug-cc-pvqz.gbs 
    atoms 4      entry C          line   299 file /home/bdw2292/miniconda3/envs/amoebamdpoltype/share/psi4/basis/aug-cc-pvqz.gbs 
    atoms 5, 7-8 entry H          line    36 file /home/bdw2292/miniconda3/envs/amoebamdpoltype/share/psi4/basis/aug-cc-pvqz.gbs 
    atoms 6      entry O          line   419 file /home/bdw2292/miniconda3/envs/amoebamdpoltype/share/psi4/basis/aug-cc-pvqz.gbs 


         ---------------------------------------------------------
                                   SCF
               by Justin Turney, Rob Parrish, Andy Simmonett
                          and Daniel G. A. Smith
                              RHF Reference
                        4 Threads,  14305 MiB Core
         ---------------------------------------------------------

  ==> Geometry <==

    Molecular point group: c1
    Full point group: C1

    Geometry (in Angstrom), charge = 0, multiplicity = 1:

       Center              X                  Y                   Z               Mass       
    ------------   -----------------  -----------------  -----------------  -----------------
      Gh(CL)         -0.218127921429     1.005022106993     0.376599099023    34.968852682000
      Gh(CL)          2.027677078571    -0.795298293007    -0.014201300977    34.968852682000
      Gh(CL)         -0.691523321429    -1.809948993007    -0.155725200977    34.968852682000
      Gh(C)           0.383341578571    -0.634091893007     0.592384899023    12.000000000000
      Gh(H)           0.404416078571    -0.838726893007     1.662697999023     1.007825032230
         O           -2.432474921429     3.608438506993    -0.837643100977    15.994914619570
         H           -3.108972021429     2.932398306993    -0.885037200977     1.007825032230
         H           -2.047212321429     3.711379306993    -1.708072800977     1.007825032230

  Running in c1 symmetry.

  Rotational constants: A =      0.09981  B =      0.03009  C =      0.02449 [cm^-1]
  Rotational constants: A =   2992.08210  B =    902.04859  C =    734.09292 [MHz]
  Nuclear repulsion =    9.183450444521059

  Charge       = 0
  Multiplicity = 1
  Electrons    = 10
  Nalpha       = 5
  Nbeta        = 5

  ==> Algorithm <==

  SCF Algorithm Type is DF.
  DIIS enabled.
  MOM disabled.
  Fractional occupation disabled.
  Guess Type is SAD.
  Energy threshold   = 1.00e-08
  Density threshold  = 1.00e-08
  Integral threshold = 0.00e+00

  ==> Primary Basis <==

  Basis Set: AUG-CC-PVQZ
    Blend: AUG-CC-PVQZ
    Number of shells: 148
    Number of basis function: 550
    Number of Cartesian functions: 702
    Spherical Harmonics?: true
    Max angular momentum: 4

   => Loading Basis Set <=

    Name: (AUG-CC-PVQZ AUX)
    Role: JKFIT
    Keyword: DF_BASIS_SCF
    atoms 1-3    entry CL         line   904 file /home/bdw2292/miniconda3/envs/amoebamdpoltype/share/psi4/basis/aug-cc-pvqz-jkfit.gbs 
    atoms 4      entry C          line   178 file /home/bdw2292/miniconda3/envs/amoebamdpoltype/share/psi4/basis/aug-cc-pvqz-jkfit.gbs 
    atoms 5, 7-8 entry H          line    70 file /home/bdw2292/miniconda3/envs/amoebamdpoltype/share/psi4/basis/aug-cc-pvqz-jkfit.gbs 
    atoms 6      entry O          line   318 file /home/bdw2292/miniconda3/envs/amoebamdpoltype/share/psi4/basis/aug-cc-pvqz-jkfit.gbs 

  ==> Pre-Iterations <==

   -------------------------------------------------------
    Irrep   Nso     Nmo     Nalpha   Nbeta   Ndocc  Nsocc
   -------------------------------------------------------
     A        550     550       0       0       0       0
   -------------------------------------------------------
    Total     550     550       5       5       5       0
   -------------------------------------------------------

  ==> Integral Setup <==

  DFHelper Memory: AOs need 2.150 GiB; user supplied 10.477 GiB. Using in-core AOs.

  ==> MemDFJK: Density-Fitted J/K Matrices <==

    J tasked:                   Yes
    K tasked:                   Yes
    wK tasked:                   No
    OpenMP threads:               4
    Memory [MiB]:             10728
    Algorithm:                 Disk
    Schwarz Cutoff:           1E-12
    Mask sparsity (%):      14.1924
    Fitting Condition:        1E-10

   => Auxiliary Basis Set <=

  Basis Set: (AUG-CC-PVQZ AUX)
    Blend: AUG-CC-PVQZ-JKFIT
    Number of shells: 260
    Number of basis function: 1064
    Number of Cartesian functions: 1440
    Spherical Harmonics?: true
    Max angular momentum: 5

  Minimum eigenvalue in the overlap matrix is 1.1829748679E-05.
  Using Symmetric Orthogonalization.

  SCF Guess: Superposition of Atomic Densities via on-the-fly atomic UHF.

  ==> Iterations <==

                           Total Energy        Delta E     RMS |[F,P]|

   @DF-RHF iter SAD:   -75.47912725731922   -7.54791e+01   0.00000e+00 
   @DF-RHF iter   1:   -75.98167524711769   -5.02548e-01   8.53919e-04 DIIS
   @DF-RHF iter   2:   -76.03419853486173   -5.25233e-02   5.80035e-04 DIIS
   @DF-RHF iter   3:   -76.06542334027822   -3.12248e-02   3.95009e-05 DIIS
   @DF-RHF iter   4:   -76.06581506246620   -3.91722e-04   9.65005e-06 DIIS
   @DF-RHF iter   5:   -76.06583990924155   -2.48468e-05   2.16432e-06 DIIS
   @DF-RHF iter   6:   -76.06584194728381   -2.03804e-06   4.94564e-07 DIIS
   @DF-RHF iter   7:   -76.06584206632769   -1.19044e-07   9.65321e-08 DIIS
   @DF-RHF iter   8:   -76.06584207036155   -4.03386e-09   1.54584e-08 DIIS
   @DF-RHF iter   9:   -76.06584207044587   -8.43130e-11   3.74019e-09 DIIS
  Energy and wave function converged.


  ==> Post-Iterations <==

    Orbital Energies [Eh]
    ---------------------

    Doubly Occupied:                                                      

       1A    -20.563039     2A     -1.350002     3A     -0.724964  
       4A     -0.577420     5A     -0.509316  

    Virtual:                                                              

       6A      0.019094     7A      0.032341     8A      0.039600  
       9A      0.048606    10A      0.055054    11A      0.064335  
      12A      0.089900    13A      0.091070    14A      0.092595  
      15A      0.095167    16A      0.102521    17A      0.112569  
      18A      0.123247    19A      0.133703    20A      0.134926  
      21A      0.141375    22A      0.147582    23A      0.152478  
      24A      0.156935    25A      0.160176    26A      0.172350  
      27A      0.182595    28A      0.190853    29A      0.201335  
      30A      0.216324    31A      0.238069    32A      0.241267  
      33A      0.254984    34A      0.260880    35A      0.262529  
      36A      0.267831    37A      0.275630    38A      0.287543  
      39A      0.293464    40A      0.301033    41A      0.309046  
      42A      0.313526    43A      0.322601    44A      0.327172  
      45A      0.333690    46A      0.336132    47A      0.347429  
      48A      0.352169    49A      0.358227    50A      0.370870  
      51A      0.382142    52A      0.388219    53A      0.391954  
      54A      0.400457    55A      0.403140    56A      0.408418  
      57A      0.413333    58A      0.422012    59A      0.428392  
      60A      0.446792    61A      0.452706    62A      0.468383  
      63A      0.484822    64A      0.486936    65A      0.496701  
      66A      0.501138    67A      0.508203    68A      0.528896  
      69A      0.541328    70A      0.551574    71A      0.562007  
      72A      0.568289    73A      0.575291    74A      0.576859  
      75A      0.596268    76A      0.613112    77A      0.623925  
      78A      0.628153    79A      0.631506    80A      0.642888  
      81A      0.649287    82A      0.660334    83A      0.688295  
      84A      0.695242    85A      0.717646    86A      0.723907  
      87A      0.749483    88A      0.767677    89A      0.773533  
      90A      0.781704    91A      0.791172    92A      0.801287  
      93A      0.812937    94A      0.814641    95A      0.821333  
      96A      0.826597    97A      0.841798    98A      0.849607  
      99A      0.858776   100A      0.862586   101A      0.875924  
     102A      0.879492   103A      0.894945   104A      0.904421  
     105A      0.912298   106A      0.927003   107A      0.934568  
     108A      0.939363   109A      0.957191   110A      0.959377  
     111A      0.963063   112A      0.968336   113A      0.978668  
     114A      0.989969   115A      0.996483   116A      1.003452  
     117A      1.014247   118A      1.021671   119A      1.027079  
     120A      1.028786   121A      1.043611   122A      1.051461  
     123A      1.053710   124A      1.071538   125A      1.076363  
     126A      1.078228   127A      1.095238   128A      1.101931  
     129A      1.105485   130A      1.112988   131A      1.125691  
     132A      1.130606   133A      1.144807   134A      1.159221  
     135A      1.172818   136A      1.176795   137A      1.193004  
     138A      1.194332   139A      1.199719   140A      1.211424  
     141A      1.224345   142A      1.238934   143A      1.247022  
     144A      1.274588   145A      1.297272   146A      1.311374  
     147A      1.336153   148A      1.342617   149A      1.357953  
     150A      1.389259   151A      1.393050   152A      1.428118  
     153A      1.501938   154A      1.516039   155A      1.528470  
     156A      1.546148   157A      1.550263   158A      1.559407  
     159A      1.569070   160A      1.580894   161A      1.595330  
     162A      1.595614   163A      1.602564   164A      1.608942  
     165A      1.613332   166A      1.622141   167A      1.626703  
     168A      1.640998   169A      1.657536   170A      1.660054  
     171A      1.664080   172A      1.666898   173A      1.679062  
     174A      1.723848   175A      1.737348   176A      1.751905  
     177A      1.780043   178A      1.790145   179A      1.794810  
     180A      1.800484   181A      1.805363   182A      1.811911  
     183A      1.822327   184A      1.838253   185A      1.865023  
     186A      1.870177   187A      1.897352   188A      1.905339  
     189A      1.908382   190A      1.910975   191A      1.923136  
     192A      1.933865   193A      1.945504   194A      1.956605  
     195A      1.968762   196A      1.971968   197A      1.980635  
     198A      1.992137   199A      2.005589   200A      2.019834  
     201A      2.023201   202A      2.044167   203A      2.073728  
     204A      2.090127   205A      2.105374   206A      2.108326  
     207A      2.134627   208A      2.136978   209A      2.179392  
     210A      2.185704   211A      2.188454   212A      2.200441  
     213A      2.217729   214A      2.224125   215A      2.244110  
     216A      2.252805   217A      2.258793   218A      2.273794  
     219A      2.276774   220A      2.304484   221A      2.307127  
     222A      2.310243   223A      2.313906   224A      2.383247  
     225A      2.385401   226A      2.388313   227A      2.395962  
     228A      2.425100   229A      2.433548   230A      2.441792  
     231A      2.456788   232A      2.470341   233A      2.481855  
     234A      2.486403   235A      2.495182   236A      2.502239  
     237A      2.514688   238A      2.517913   239A      2.538424  
     240A      2.547390   241A      2.557452   242A      2.561485  
     243A      2.562130   244A      2.587366   245A      2.591662  
     246A      2.603014   247A      2.608808   248A      2.628274  
     249A      2.642216   250A      2.645484   251A      2.655937  
     252A      2.670422   253A      2.687868   254A      2.693695  
     255A      2.725243   256A      2.733920   257A      2.750175  
     258A      2.789247   259A      2.804209   260A      2.829982  
     261A      2.854552   262A      2.860693   263A      2.884521  
     264A      2.902428   265A      2.922654   266A      2.937718  
     267A      2.952223   268A      2.967331   269A      2.976899  
     270A      3.003102   271A      3.008190   272A      3.017361  
     273A      3.034725   274A      3.067154   275A      3.077860  
     276A      3.092068   277A      3.097213   278A      3.101876  
     279A      3.119588   280A      3.149497   281A      3.173339  
     282A      3.193730   283A      3.209662   284A      3.220606  
     285A      3.260573   286A      3.276233   287A      3.283459  
     288A      3.292398   289A      3.313438   290A      3.321252  
     291A      3.346513   292A      3.361438   293A      3.412639  
     294A      3.427871   295A      3.472031   296A      3.474874  
     297A      3.492255   298A      3.500781   299A      3.503167  
     300A      3.542008   301A      3.618633   302A      3.621321  
     303A      3.636133   304A      3.652685   305A      3.658498  
     306A      3.682224   307A      3.708292   308A      3.715167  
     309A      3.728448   310A      3.750390   311A      3.785470  
     312A      3.821262   313A      3.834429   314A      3.854986  
     315A      3.866010   316A      3.874416   317A      3.928368  
     318A      3.931434   319A      3.984990   320A      4.076548  
     321A      4.081758   322A      4.093741   323A      4.132241  
     324A      4.165579   325A      4.177066   326A      4.190918  
     327A      4.209723   328A      4.220633   329A      4.241897  
     330A      4.275738   331A      4.315378   332A      4.382705  
     333A      4.401734   334A      4.413240   335A      4.427173  
     336A      4.438677   337A      4.462338   338A      4.502732  
     339A      4.587020   340A      4.679438   341A      4.760940  
     342A      4.770456   343A      4.778524   344A      4.823885  
     345A      4.844901   346A      4.855289   347A      4.858689  
     348A      4.896457   349A      4.978100   350A      5.009217  
     351A      5.019072   352A      5.042593   353A      5.304960  
     354A      5.332756   355A      5.397480   356A      5.443508  
     357A      5.443873   358A      5.455766   359A      5.480457  
     360A      5.487177   361A      5.490837   362A      5.526724  
     363A      5.585528   364A      5.592202   365A      5.625186  
     366A      5.650984   367A      5.654448   368A      5.677781  
     369A      5.703698   370A      5.718998   371A      5.738777  
     372A      5.748984   373A      5.765734   374A      5.786288  
     375A      5.791691   376A      5.880419   377A      5.882409  
     378A      5.896591   379A      5.902820   380A      5.946261  
     381A      5.949724   382A      5.969692   383A      5.987962  
     384A      6.084060   385A      6.098489   386A      6.109956  
     387A      6.137082   388A      6.275988   389A      6.308098  
     390A      6.311237   391A      6.318294   392A      6.324234  
     393A      6.334355   394A      6.348535   395A      6.373276  
     396A      6.398283   397A      6.463930   398A      6.469177  
     399A      6.486481   400A      6.498124   401A      6.516252  
     402A      6.537965   403A      6.540049   404A      6.566743  
     405A      6.577999   406A      6.584661   407A      6.593255  
     408A      6.620418   409A      6.641106   410A      6.848174  
     411A      6.867651   412A      6.881007   413A      6.966084  
     414A      7.146032   415A      7.150532   416A      7.178716  
     417A      7.198632   418A      7.265729   419A      7.409726  
     420A      7.440648   421A      7.444789   422A      7.506747  
     423A      7.515736   424A      7.560558   425A      7.607845  
     426A      7.609258   427A      7.697855   428A      7.715977  
     429A      7.737996   430A      7.741955   431A      7.769494  
     432A      7.836206   433A      7.845300   434A      7.847041  
     435A      7.856522   436A      7.886362   437A      7.897981  
     438A      7.907249   439A      7.928844   440A      7.953098  
     441A      7.976002   442A      7.981653   443A      8.013948  
     444A      8.017432   445A      8.029533   446A      8.070405  
     447A      8.087363   448A      8.095062   449A      8.133418  
     450A      8.149512   451A      8.204282   452A      8.237160  
     453A      8.241616   454A      8.250512   455A      8.366889  
     456A      8.386075   457A      8.402104   458A      8.421627  
     459A      8.466128   460A      8.476986   461A      8.483633  
     462A      8.556070   463A      8.594156   464A      8.655559  
     465A      8.726536   466A      8.784072   467A      8.805506  
     468A      8.805746   469A      8.811376   470A      8.889156  
     471A      8.935068   472A      8.967484   473A      8.995730  
     474A      9.069480   475A      9.155488   476A      9.221067  
     477A      9.238250   478A      9.248600   479A      9.362115  
     480A      9.374155   481A      9.383199   482A      9.529497  
     483A      9.532578   484A      9.613268   485A      9.617859  
     486A      9.858840   487A      9.894010   488A      9.958106  
     489A      9.963295   490A      9.992618   491A     10.000658  
     492A     10.025152   493A     10.445263   494A     10.496277  
     495A     10.529411   496A     10.531466   497A     10.719396  
     498A     10.813799   499A     10.822573   500A     11.021299  
     501A     11.035590   502A     11.035882   503A     11.045926  
     504A     11.102980   505A     11.174687   506A     11.327482  
     507A     11.384296   508A     11.471505   509A     11.620140  
     510A     11.704092   511A     11.816310   512A     11.871426  
     513A     12.030579   514A     12.187800   515A     12.240929  
     516A     12.546292   517A     12.718747   518A     12.742086  
     519A     12.897800   520A     12.906900   521A     13.212370  
     522A     13.713479   523A     13.719187   524A     13.784941  
     525A     13.999800   526A     14.081849   527A     14.494971  
     528A     14.850071   529A     14.881473   530A     15.310169  
     531A     16.985163   532A     17.060552   533A     17.291376  
     534A     31.103358   535A     31.107811   536A     31.115917  
     537A     31.119426   538A     31.167931   539A     31.169682  
     540A     31.317140   541A     31.324075   542A     31.387436  
     543A     42.497688   544A     43.387225   545A     43.469312  
     546A     45.623244   547A     69.565418   548A    160.326425  
     549A    160.432788   550A    160.445436  

    Final Occupation by Irrep:
              A 
    DOCC [     5 ]

  @DF-RHF Final Energy:   -76.06584207044587

   => Energetics <=

    Nuclear Repulsion Energy =              9.1834504445210587
    One-Electron Energy =                -123.0491000387514617
    Two-Electron Energy =                  37.7998075237845228
    Total Energy =                        -76.0658420704458820

Computation Completed


Properties will be evaluated at   0.000000,  -0.000000,   0.000000 [a0]

Properties computed using the SCF density matrix

  Nuclear Dipole Moment: [e a0]
     X:   -46.5175      Y:    67.1066      Z:   -17.5636

  Electronic Dipole Moment: [e a0]
     X:    46.3216      Y:   -67.4920      Z:    16.9463

  Dipole Moment: [e a0]
     X:    -0.1959      Y:    -0.3854      Z:    -0.6173     Total:     0.7537

  Dipole Moment: [D]
     X:    -0.4979      Y:    -0.9796      Z:    -1.5691     Total:     1.9156


*** tstop() called on node37.bme.utexas.edu at Tue Feb 22 18:40:08 2022
Module time:
	user time   =     161.60 seconds =       2.69 minutes
	system time =      35.65 seconds =       0.59 minutes
	total time  =         81 seconds =       1.35 minutes
Total time:
	user time   =     240.89 seconds =       4.01 minutes
	system time =      40.47 seconds =       0.67 minutes
	total time  =        119 seconds =       1.98 minutes

*** tstart() called on node37.bme.utexas.edu
*** at Tue Feb 22 18:40:08 2022


  //>>>>>>>>>>>>>>>>>>>>>>>>>>>>>>>>>>>//
  //               DFMP2               //
  //<<<<<<<<<<<<<<<<<<<<<<<<<<<<<<<<<<<//

   => Loading Basis Set <=

    Name: (AUG-CC-PVQZ AUX)
    Role: RIFIT
    Keyword: DF_BASIS_MP2
    atoms 1-3    entry CL         line   914 file /home/bdw2292/miniconda3/envs/amoebamdpoltype/share/psi4/basis/aug-cc-pvqz-ri.gbs 
    atoms 4      entry C          line   184 file /home/bdw2292/miniconda3/envs/amoebamdpoltype/share/psi4/basis/aug-cc-pvqz-ri.gbs 
    atoms 5, 7-8 entry H          line    30 file /home/bdw2292/miniconda3/envs/amoebamdpoltype/share/psi4/basis/aug-cc-pvqz-ri.gbs 
    atoms 6      entry O          line   332 file /home/bdw2292/miniconda3/envs/amoebamdpoltype/share/psi4/basis/aug-cc-pvqz-ri.gbs 

	 --------------------------------------------------------
	                          DF-MP2                         
	      2nd-Order Density-Fitted Moller-Plesset Theory     
	              RMP2 Wavefunction,   4 Threads             
	                                                         
	        Rob Parrish, Justin Turney, Andy Simmonett,      
	           Ed Hohenstein, and C. David Sherrill          
	 --------------------------------------------------------

   => Auxiliary Basis Set <=

  Basis Set: (AUG-CC-PVQZ AUX)
    Blend: AUG-CC-PVQZ-RI
    Number of shells: 264
    Number of basis function: 1158
    Number of Cartesian functions: 1593
    Spherical Harmonics?: true
    Max angular momentum: 5

	 --------------------------------------------------------
	                 NBF =   550, NAUX =  1158
	 --------------------------------------------------------
	   CLASS    FOCC     OCC    AOCC    AVIR     VIR    FVIR
	   PAIRS       1       5       4     545     545       0
	 --------------------------------------------------------

	-----------------------------------------------------------
	 ==================> DF-MP2 Energies <==================== 
	-----------------------------------------------------------
	 Reference Energy          =     -76.0658420704458678 [Eh]
	 Singles Energy            =      -0.0000000000000000 [Eh]
	 Same-Spin Energy          =      -0.0671656942276723 [Eh]
	 Opposite-Spin Energy      =      -0.2185480373189163 [Eh]
	 Correlation Energy        =      -0.2857137315465885 [Eh]
	 Total Energy              =     -76.3515558019924612 [Eh]
	-----------------------------------------------------------
	 ================> DF-SCS-MP2 Energies <================== 
	-----------------------------------------------------------
	 SCS Same-Spin Scale       =       0.3333333333333333 [-]
	 SCS Opposite-Spin Scale   =       1.2000000000000000 [-]
	 SCS Same-Spin Energy      =      -0.0223885647425574 [Eh]
	 SCS Opposite-Spin Energy  =      -0.2622576447826995 [Eh]
	 SCS Correlation Energy    =      -0.2846462095252569 [Eh]
	 SCS Total Energy          =     -76.3504882799711311 [Eh]
	-----------------------------------------------------------


*** tstop() called on node37.bme.utexas.edu at Tue Feb 22 18:40:28 2022
Module time:
	user time   =      52.35 seconds =       0.87 minutes
	system time =       3.05 seconds =       0.05 minutes
	total time  =         20 seconds =       0.33 minutes
Total time:
	user time   =     293.25 seconds =       4.89 minutes
	system time =      43.52 seconds =       0.73 minutes
	total time  =        139 seconds =       2.32 minutes

  //>>>>>>>>>>>>>>>>>>>>>>>>>>>>>>>>>>>//
  //  CBS Results: mp2/aug-cc-pV[TQ]Z  //
  //<<<<<<<<<<<<<<<<<<<<<<<<<<<<<<<<<<<//


   ==> HF <==

   HI-zeta (4) Energy:               -76.065842070446


   ==> Helgaker 2-point correlated extrapolation for method: MP2 <==

   LO-zeta (3) Energy:               -76.328600794249
   HI-zeta (4) Energy:               -76.351555801992
   Alpha (exponent) Value:             3.000000000000
   Extrapolated Energy:              -76.368306753589

   @Extrapolated MP2/(T,Q):          -76.368306753589



   ==> Helgaker 2-point correlated extrapolation for method: HF <==

   LO-zeta (3) Energy:               -76.060460011560
   HI-zeta (4) Energy:               -76.065842070446
   Alpha (exponent) Value:             3.000000000000
   Extrapolated Energy:              -76.069769518822

   @Extrapolated HF/(T,Q):           -76.069769518822


   ==> Components <==

  ---------------------------------------------------------------------------------------------------------
                          Method / Basis                      Rqd      Energy [Eh]   Variable
  ---------------------------------------------------------------------------------------------------------
                              hf / aug-cc-pvtz                  *     -76.06046001   HF TOTAL ENERGY
                             mp2 / aug-cc-pvtz                  *     -76.32860079   MP2 TOTAL ENERGY
                              hf / aug-cc-pvqz                  *     -76.06584207   HF TOTAL ENERGY
                             mp2 / aug-cc-pvqz                  *     -76.35155580   MP2 TOTAL ENERGY
  ---------------------------------------------------------------------------------------------------------

   ==> Stages <==

  ---------------------------------------------------------------------------------------------------------
      Stage               Method / Basis                       Wt      Energy [Eh]   Scheme
  ---------------------------------------------------------------------------------------------------------
        scf                   hf / aug-cc-pvqz                  1     -76.06584207   xtpl_highest_1
       corl                  mp2 / aug-cc-pv[tq]z               1     -76.36830675   corl_xtpl_helgaker_2
       corl                   hf / aug-cc-pv[tq]z              -1     -76.06976952   corl_xtpl_helgaker_2
  ---------------------------------------------------------------------------------------------------------

   ==> CBS <==

  ---------------------------------------------------------------------------------------------------------
      Stage               Method / Basis                               Energy [Eh]   Scheme
  ---------------------------------------------------------------------------------------------------------
        scf                   hf / aug-cc-pvqz                        -76.06584207   xtpl_highest_1
       corl                  mp2 / aug-cc-pv[tq]z                      -0.29853723   corl_xtpl_helgaker_2
      total                  CBS                                      -76.36437931   
  ---------------------------------------------------------------------------------------------------------
   => Loading Basis Set <=

    Name: DEF2-SVP
    Role: ORBITAL
    Keyword: BASIS
    atoms 1-3    entry CL         line   356 file /home/bdw2292/miniconda3/envs/amoebamdpoltype/share/psi4/basis/def2-svp.gbs 
    atoms 4      entry C          line    90 file /home/bdw2292/miniconda3/envs/amoebamdpoltype/share/psi4/basis/def2-svp.gbs 
    atoms 5, 7-8 entry H          line    15 file /home/bdw2292/miniconda3/envs/amoebamdpoltype/share/psi4/basis/def2-svp.gbs 
    atoms 6      entry O          line   130 file /home/bdw2292/miniconda3/envs/amoebamdpoltype/share/psi4/basis/def2-svp.gbs 


       N-Body: Complex Energy (fragments = (2,), basis = (1, 2):   -76.36437930521322)

       N-Body: Computing complex (3/4) with fragments (1,) in the basis of fragments (1, 2).


  //>>>>>>>>>>>>>>>>>>>>>>>>>>>>>>>>>>>//
  //   CBS Setup: mp2/aug-cc-pV[TQ]Z   //
  //<<<<<<<<<<<<<<<<<<<<<<<<<<<<<<<<<<<//

    Naive listing of computations required.
             hf / aug-cc-pvqz              for  HF TOTAL ENERGY
            mp2 / aug-cc-pvtz              for  MP2 TOTAL ENERGY
            mp2 / aug-cc-pvqz              for  MP2 TOTAL ENERGY
[...]
     101A      0.571027   102A      0.577102   103A      0.586553  
     104A      0.588703   105A      0.598626   106A      0.607369  
     107A      0.610031   108A      0.617350   109A      0.619163  
     110A      0.623758   111A      0.636169   112A      0.648157  
     113A      0.655545   114A      0.656359   115A      0.670578  
     116A      0.681785   117A      0.689168   118A      0.708225  
     119A      0.713790   120A      0.719297   121A      0.726340  
     122A      0.736196   123A      0.749104   124A      0.755035  
     125A      0.756808   126A      0.765967   127A      0.773736  
     128A      0.780840   129A      0.784862   130A      0.793303  
     131A      0.803099   132A      0.808418   133A      0.815629  
     134A      0.818549   135A      0.826155   136A      0.838615  
     137A      0.852968   138A      0.860372   139A      0.864870  
     140A      0.874599   141A      0.876555   142A      0.889628  
     143A      0.895973   144A      0.905238   145A      0.909575  
     146A      0.917378   147A      0.943020   148A      0.945189  
     149A      0.978601   150A      0.987582   151A      0.999721  
     152A      1.010531   153A      1.022497   154A      1.040301  
     155A      1.055241   156A      1.074240   157A      1.081837  
     158A      1.102108   159A      1.110248   160A      1.129177  
     161A      1.135916   162A      1.139981   163A      1.151427  
     164A      1.160269   165A      1.169408   166A      1.180913  
     167A      1.183411   168A      1.200260   169A      1.206792  
     170A      1.219672   171A      1.236611   172A      1.243017  
     173A      1.245495   174A      1.247621   175A      1.266450  
     176A      1.269101   177A      1.278138   178A      1.286264  
     179A      1.292611   180A      1.314952   181A      1.318263  
     182A      1.353939   183A      1.382897   184A      1.392810  
     185A      1.426709   186A      1.454822   187A      1.464751  
     188A      1.483825   189A      1.520356   190A      1.536613  
     191A      1.548312   192A      1.555870   193A      1.574621  
     194A      1.598513   195A      1.603869   196A      1.624467  
     197A      1.637632   198A      1.653764   199A      1.658228  
     200A      1.692598   201A      1.703683   202A      1.705440  
     203A      1.721964   204A      1.733997   205A      1.739508  
     206A      1.745057   207A      1.752567   208A      1.762921  
     209A      1.776509   210A      1.784685   211A      1.787359  
     212A      1.789856   213A      1.799287   214A      1.803292  
     215A      1.814577   216A      1.821659   217A      1.823153  
     218A      1.838167   219A      1.843797   220A      1.854752  
     221A      1.865488   222A      1.876118   223A      1.883705  
     224A      1.895641   225A      1.901873   226A      1.912177  
     227A      1.920167   228A      1.932637   229A      1.937106  
     230A      1.941001   231A      1.952382   232A      1.960721  
     233A      1.967542   234A      1.972507   235A      1.998133  
     236A      2.003622   237A      2.010638   238A      2.013387  
     239A      2.022655   240A      2.032496   241A      2.035340  
     242A      2.039025   243A      2.056444   244A      2.062530  
     245A      2.071236   246A      2.091233   247A      2.106059  
     248A      2.117708   249A      2.119810   250A      2.121938  
     251A      2.131313   252A      2.138243   253A      2.181315  
     254A      2.185656   255A      2.190993   256A      2.194565  
     257A      2.201773   258A      2.212268   259A      2.216352  
     260A      2.218292   261A      2.227287   262A      2.232950  
     263A      2.241343   264A      2.251379   265A      2.259530  
     266A      2.265121   267A      2.280116   268A      2.291368  
     269A      2.297368   270A      2.308305   271A      2.312479  
     272A      2.323509   273A      2.340966   274A      2.354206  
     275A      2.364769   276A      2.404073   277A      2.405715  
     278A      2.418030   279A      2.429057   280A      2.463185  
     281A      2.466364   282A      2.475807   283A      2.486240  
     284A      2.497565   285A      2.517718   286A      2.534406  
     287A      2.549824   288A      2.558386   289A      2.580120  
     290A      2.585169   291A      2.611259   292A      2.620587  
     293A      2.637285   294A      2.642473   295A      2.651942  
     296A      2.673334   297A      2.748836   298A      2.822685  
     299A      2.827760   300A      2.834220   301A      2.874801  
     302A      2.903395   303A      2.907017   304A      2.907483  
     305A      2.912727   306A      2.919184   307A      2.981500  
     308A      3.006459   309A      3.016080   310A      3.032169  
     311A      3.054171   312A      3.093372   313A      3.096755  
     314A      3.123751   315A      3.125607   316A      3.134159  
     317A      3.172126   318A      3.183778   319A      3.275967  
     320A      3.294478   321A      3.308043   322A      3.328885  
     323A      3.332013   324A      3.348100   325A      3.353332  
     326A      3.394660   327A      3.406531   328A      3.480831  
     329A      3.484592   330A      3.493022   331A      3.538471  
     332A      3.542542   333A      3.551606   334A      3.559930  
     335A      3.627385   336A      3.658994   337A      3.680883  
     338A      3.723136   339A      3.746916   340A      3.749925  
     341A      3.767787   342A      3.773557   343A      3.791114  
     344A      3.854088   345A      3.863174   346A      3.972815  
     347A      3.980590   348A      3.983507   349A      3.994916  
     350A      4.090291   351A      4.186036   352A      4.199497  
     353A      4.210555   354A      4.243682   355A      4.253639  
     356A      4.271045   357A      4.303286   358A      4.311260  
     359A      4.400838   360A      4.428973   361A      4.437608  
     362A      4.438680   363A      4.463590   364A      4.493320  
     365A      4.517561   366A      4.545643   367A      4.564295  
     368A      4.579326   369A      4.608410   370A      4.622755  
     371A      4.664133   372A      4.666809   373A      4.671974  
     374A      4.691479   375A      4.710536   376A      4.714981  
     377A      4.718093   378A      4.718619   379A      4.723118  
     380A      4.744049   381A      4.750480   382A      4.753348  
     383A      4.759178   384A      4.773694   385A      4.775950  
     386A      4.777774   387A      4.785600   388A      4.791607  
     389A      4.795933   390A      4.807831   391A      4.808758  
     392A      4.827870   393A      4.833268   394A      4.843256  
     395A      4.851589   396A      4.856855   397A      4.861307  
     398A      4.868977   399A      4.891443   400A      4.894483  
     401A      4.896172   402A      4.910925   403A      4.917959  
     404A      4.925930   405A      4.932237   406A      4.937931  
     407A      4.954235   408A      4.964443   409A      4.973822  
     410A      4.987911   411A      4.993844   412A      4.997105  
     413A      5.039476   414A      5.051652   415A      5.063897  
     416A      5.089423   417A      5.100594   418A      5.157969  
     419A      5.161100   420A      5.207500   421A      5.256390  
     422A      5.267406   423A      5.300071   424A      5.307781  
     425A      5.314046   426A      5.335764   427A      5.393329  
     428A      5.396703   429A      5.420808   430A      5.440002  
     431A      5.519705   432A      5.523977   433A      5.533648  
     434A      5.584024   435A      5.643201   436A      5.724994  
     437A      5.902182   438A      5.939800   439A      6.084184  
     440A      6.280229   441A      6.460214   442A      6.483090  
     443A      6.487241   444A      6.519878   445A      6.523309  
     446A      6.690542   447A      6.718110   448A      6.720740  
     449A      6.726926   450A      6.791693   451A      6.821714  
     452A      6.825811   453A      6.854056   454A      6.867242  
     455A      6.878376   456A      6.896867   457A      6.904021  
     458A      6.911834   459A      6.963809   460A      6.969830  
     461A      6.983839   462A      7.090725   463A      7.194491  
     464A      7.200219   465A      7.221613   466A      7.226389  
     467A      7.399375   468A      7.403939   469A      7.432167  
     470A      7.518903   471A      7.617722   472A      7.620633  
     473A      7.716215   474A      7.737382   475A      7.746173  
     476A      7.817232   477A      7.841606   478A      7.853637  
     479A      7.886526   480A      7.891202   481A      7.913237  
     482A      7.928704   483A      7.953558   484A      8.005759  
     485A      8.014467   486A      8.027054   487A      8.204905  
     488A      8.350792   489A      8.369769   490A      8.553545  
     491A      8.593912   492A      8.620072   493A      8.621228  
     494A      8.710650   495A      8.714280   496A      8.727031  
     497A      8.784873   498A      8.807473   499A      8.851639  
     500A      8.890106   501A      8.995257   502A      9.069375  
     503A      9.156886   504A      9.329646   505A      9.334313  
     506A      9.532404   507A      9.548063   508A      9.720075  
     509A      9.721746   510A      9.858630   511A      9.991046  
     512A      9.999363   513A     10.024489   514A     10.431736  
     515A     10.433018   516A     10.445175   517A     10.497087  
     518A     10.685378   519A     10.719326   520A     11.020608  
     521A     11.043505   522A     11.102525   523A     11.323877  
     524A     11.383591   525A     11.470509   526A     11.703432  
     527A     11.815604   528A     11.869925   529A     12.029871  
     530A     12.187096   531A     12.240538   532A     12.546077  
     533A     12.741815   534A     12.896785   535A     12.906660  
     536A     12.948092   537A     13.212057   538A     13.999662  
     539A     14.081309   540A     14.494704   541A     14.849820  
     542A     14.881317   543A     15.309980   544A     16.985587  
     545A     17.291094   546A     25.538678   547A     26.688601  
     548A     26.748060   549A     27.350803   550A     45.621788  

    Final Occupation by Irrep:
              A 
    DOCC [    34 ]

  @DF-RHF Final Energy: -1493.08227345358273

   => Energetics <=

    Nuclear Repulsion Energy =            335.0868850662960199
    One-Electron Energy =               -2730.1159847649387302
    Two-Electron Energy =                 901.9468262450600378
    Total Energy =                      -1493.0822734535827294

Computation Completed


Properties will be evaluated at   0.000000,  -0.000000,   0.000000 [a0]

Properties computed using the SCF density matrix

  Nuclear Dipole Moment: [e a0]
     X:    -5.4898      Y:     6.9243      Z:    -1.0655

  Electronic Dipole Moment: [e a0]
     X:     5.2864      Y:    -7.3247      Z:     0.9217

  Dipole Moment: [e a0]
     X:    -0.2034      Y:    -0.4004      Z:    -0.1438     Total:     0.4716

  Dipole Moment: [D]
     X:    -0.5170      Y:    -1.0178      Z:    -0.3654     Total:     1.1986


*** tstop() called on node37.bme.utexas.edu at Tue Feb 22 18:45:32 2022
Module time:
	user time   =     204.97 seconds =       3.42 minutes
	system time =      43.93 seconds =       0.73 minutes
	total time  =         94 seconds =       1.57 minutes
Total time:
	user time   =    1005.45 seconds =      16.76 minutes
	system time =     149.73 seconds =       2.50 minutes
	total time  =        443 seconds =       7.38 minutes

*** tstart() called on node37.bme.utexas.edu
*** at Tue Feb 22 18:45:32 2022


  //>>>>>>>>>>>>>>>>>>>>>>>>>>>>>>>>>>>//
  //               DFMP2               //
  //<<<<<<<<<<<<<<<<<<<<<<<<<<<<<<<<<<<//

   => Loading Basis Set <=

    Name: (AUG-CC-PVQZ AUX)
    Role: RIFIT
    Keyword: DF_BASIS_MP2
    atoms 1-3    entry CL         line   914 file /home/bdw2292/miniconda3/envs/amoebamdpoltype/share/psi4/basis/aug-cc-pvqz-ri.gbs 
    atoms 4      entry C          line   184 file /home/bdw2292/miniconda3/envs/amoebamdpoltype/share/psi4/basis/aug-cc-pvqz-ri.gbs 
    atoms 5, 7-8 entry H          line    30 file /home/bdw2292/miniconda3/envs/amoebamdpoltype/share/psi4/basis/aug-cc-pvqz-ri.gbs 
    atoms 6      entry O          line   332 file /home/bdw2292/miniconda3/envs/amoebamdpoltype/share/psi4/basis/aug-cc-pvqz-ri.gbs 

	 --------------------------------------------------------
	                          DF-MP2                         
	      2nd-Order Density-Fitted Moller-Plesset Theory     
	              RMP2 Wavefunction,   4 Threads             
	                                                         
	        Rob Parrish, Justin Turney, Andy Simmonett,      
	           Ed Hohenstein, and C. David Sherrill          
	 --------------------------------------------------------

   => Auxiliary Basis Set <=

  Basis Set: (AUG-CC-PVQZ AUX)
    Blend: AUG-CC-PVQZ-RI
    Number of shells: 264
    Number of basis function: 1158
    Number of Cartesian functions: 1593
    Spherical Harmonics?: true
    Max angular momentum: 5

	 --------------------------------------------------------
	                 NBF =   550, NAUX =  1158
	 --------------------------------------------------------
	   CLASS    FOCC     OCC    AOCC    AVIR     VIR    FVIR
	   PAIRS      17      34      17     516     516       0
	 --------------------------------------------------------

	-----------------------------------------------------------
	 ==================> DF-MP2 Energies <==================== 
	-----------------------------------------------------------
	 Reference Energy          =   -1493.0822734535827294 [Eh]
	 Singles Energy            =      -0.0000000000000000 [Eh]
	 Same-Spin Energy          =      -0.2649546867238913 [Eh]
	 Opposite-Spin Energy      =      -0.8371524988652890 [Eh]
	 Correlation Energy        =      -1.1021071855891802 [Eh]
	 Total Energy              =   -1494.1843806391718772 [Eh]
	-----------------------------------------------------------
	 ================> DF-SCS-MP2 Energies <================== 
	-----------------------------------------------------------
	 SCS Same-Spin Scale       =       0.3333333333333333 [-]
	 SCS Opposite-Spin Scale   =       1.2000000000000000 [-]
	 SCS Same-Spin Energy      =      -0.0883182289079638 [Eh]
	 SCS Opposite-Spin Energy  =      -1.0045829986383468 [Eh]
	 SCS Correlation Energy    =      -1.0929012275463106 [Eh]
	 SCS Total Energy          =   -1494.1751746811289649 [Eh]
	-----------------------------------------------------------


*** tstop() called on node37.bme.utexas.edu at Tue Feb 22 18:45:53 2022
Module time:
	user time   =      58.72 seconds =       0.98 minutes
	system time =       3.71 seconds =       0.06 minutes
	total time  =         21 seconds =       0.35 minutes
Total time:
	user time   =    1064.18 seconds =      17.74 minutes
	system time =     153.44 seconds =       2.56 minutes
	total time  =        464 seconds =       7.73 minutes

  //>>>>>>>>>>>>>>>>>>>>>>>>>>>>>>>>>>>//
  //  CBS Results: mp2/aug-cc-pV[TQ]Z  //
  //<<<<<<<<<<<<<<<<<<<<<<<<<<<<<<<<<<<//


   ==> HF <==

   HI-zeta (4) Energy:               -1493.082273453583


   ==> Helgaker 2-point correlated extrapolation for method: MP2 <==

   LO-zeta (3) Energy:               -1494.088723608912
   HI-zeta (4) Energy:               -1494.184380639172
   Alpha (exponent) Value:             3.000000000000
   Extrapolated Energy:              -1494.254184418010

   @Extrapolated MP2/(T,Q):          -1494.254184418010



   ==> Helgaker 2-point correlated extrapolation for method: HF <==

   LO-zeta (3) Energy:               -1493.063402729636
   HI-zeta (4) Energy:               -1493.082273453583
   Alpha (exponent) Value:             3.000000000000
   Extrapolated Energy:              -1493.096043981868

   @Extrapolated HF/(T,Q):           -1493.096043981868


   ==> Components <==

  ---------------------------------------------------------------------------------------------------------
                          Method / Basis                      Rqd      Energy [Eh]   Variable
  ---------------------------------------------------------------------------------------------------------
                              hf / aug-cc-pvtz                  *   -1493.06340273   HF TOTAL ENERGY
                             mp2 / aug-cc-pvtz                  *   -1494.08872361   MP2 TOTAL ENERGY
                              hf / aug-cc-pvqz                  *   -1493.08227345   HF TOTAL ENERGY
                             mp2 / aug-cc-pvqz                  *   -1494.18438064   MP2 TOTAL ENERGY
  ---------------------------------------------------------------------------------------------------------

   ==> Stages <==

  ---------------------------------------------------------------------------------------------------------
      Stage               Method / Basis                       Wt      Energy [Eh]   Scheme
  ---------------------------------------------------------------------------------------------------------
        scf                   hf / aug-cc-pvqz                  1   -1493.08227345   xtpl_highest_1
       corl                  mp2 / aug-cc-pv[tq]z               1   -1494.25418442   corl_xtpl_helgaker_2
       corl                   hf / aug-cc-pv[tq]z              -1   -1493.09604398   corl_xtpl_helgaker_2
  ---------------------------------------------------------------------------------------------------------

   ==> CBS <==

  ---------------------------------------------------------------------------------------------------------
      Stage               Method / Basis                               Energy [Eh]   Scheme
  ---------------------------------------------------------------------------------------------------------
        scf                   hf / aug-cc-pvqz                      -1493.08227345   xtpl_highest_1
       corl                  mp2 / aug-cc-pv[tq]z                      -1.15814044   corl_xtpl_helgaker_2
      total                  CBS                                    -1494.24041389   
  ---------------------------------------------------------------------------------------------------------
   => Loading Basis Set <=

    Name: DEF2-SVP
    Role: ORBITAL
    Keyword: BASIS
    atoms 1-3    entry CL         line   356 file /home/bdw2292/miniconda3/envs/amoebamdpoltype/share/psi4/basis/def2-svp.gbs 
    atoms 4      entry C          line    90 file /home/bdw2292/miniconda3/envs/amoebamdpoltype/share/psi4/basis/def2-svp.gbs 
    atoms 5, 7-8 entry H          line    15 file /home/bdw2292/miniconda3/envs/amoebamdpoltype/share/psi4/basis/def2-svp.gbs 
    atoms 6      entry O          line   130 file /home/bdw2292/miniconda3/envs/amoebamdpoltype/share/psi4/basis/def2-svp.gbs 


       N-Body: Complex Energy (fragments = (1, 2), basis = (1, 2): -1494.24041388972455)

   ==> N-Body: Counterpoise Corrected (CP) energies <==

   n-Body     Total Energy [Eh]       I.E. [kcal/mol]      Delta [kcal/mol]
        1    -1494.238783618443        0.000000000000        0.000000000000
        2    -1494.240376552767       -0.999581379118       -0.999581379118

   => Loading Basis Set <=

    Name: DEF2-SVP
    Role: ORBITAL
    Keyword: BASIS
    atoms 1-3    entry CL         line   356 file /home/bdw2292/miniconda3/envs/amoebamdpoltype/share/psi4/basis/def2-svp.gbs 
    atoms 4      entry C          line    90 file /home/bdw2292/miniconda3/envs/amoebamdpoltype/share/psi4/basis/def2-svp.gbs 
    atoms 5, 7-8 entry H          line    15 file /home/bdw2292/miniconda3/envs/amoebamdpoltype/share/psi4/basis/def2-svp.gbs 
    atoms 6      entry O          line   130 file /home/bdw2292/miniconda3/envs/amoebamdpoltype/share/psi4/basis/def2-svp.gbs 

CP Energy =  -0.001593
    Psi4 stopped on: Tuesday, 22 February 2022 06:45PM
    Psi4 wall time for execution: 0:07:45.21

*** Psi4 exiting successfully. Buy a developer a beer!
