
    -----------------------------------------------------------------------
          Psi4: An Open-Source Ab Initio Electronic Structure Package
                               Psi4 1.3.2 release

                         Git: Rev {HEAD} ecbda83 


    R. M. Parrish, L. A. Burns, D. G. A. Smith, A. C. Simmonett,
    A. E. DePrince III, E. G. Hohenstein, U. Bozkaya, A. Yu. Sokolov,
    R. Di Remigio, R. M. Richard, J. F. Gonthier, A. M. James,
    H. R. McAlexander, A. Kumar, M. Saitow, X. Wang, B. P. Pritchard,
    P. Verma, H. F. Schaefer III, K. Patkowski, R. A. King, E. F. Valeev,
    F. A. Evangelista, J. M. Turney, T. D. Crawford, and C. D. Sherrill,
    J. Chem. Theory Comput. 13(7) pp 3185--3197 (2017).
    (doi: 10.1021/acs.jctc.7b00174)


                         Additional Contributions by
    P. Kraus, H. Kruse, M. H. Lechner, M. C. Schieber, R. A. Shaw,
    A. Alenaizan, R. Galvelis, Z. L. Glick, S. Lehtola, and J. P. Misiewicz

    -----------------------------------------------------------------------


    Psi4 started on: Tuesday, 22 February 2022 07:15PM

    Process ID: 38755
    Host:       node37.bme.utexas.edu
    PSIDATADIR: /home/bdw2292/miniconda3/envs/amoebamdpoltype/share/psi4
    Memory:     500.0 MiB
    Threads:    1
    
  ==> Input File <==

--------------------------------------------------------------------------
molecule { 
0 1
 Cl                 -0.0607084     0.3731964    -0.0136444
 Cl                  2.2864943    -1.3072355     0.3117727
 Cl                 -0.3552486    -2.5098910     0.1828073
  C                  0.5792523    -1.1072755     0.6895374
  H                  0.4887905    -1.0243117     1.7725520
--
0 1
 Cl                 -2.4189608     5.7998081    -0.7221101
 Cl                 -0.0811609     4.0750863    -0.6905508
 Cl                 -2.7429456     2.9128507    -0.7348089
  C                 -1.7558892     4.2612923    -0.1830788
  H                 -1.7724137     4.2580700     0.9067636
}
memory 15GB
set_num_threads(4)
psi4_io.set_default_path("/scratch/bdw2292/Psi4-CHCl3")
set maxiter 500
set freeze_core True
set PROPERTIES_ORIGIN ["COM"]
e_dim= energy('mp2/aug-cc-pV[TQ]Z',bsse_type='cp')

psi4.print_out('CP Energy = %10.6f' % (e_dim))
clean()
--------------------------------------------------------------------------

  Memory set to  13.970 GiB by Python driver.
  Threads set to 4 by Python driver.


   ===> N-Body Interaction Abacus <===
        BSSE Treatment:                     cp
        Number of 1-body computations:     4
        Number of 2-body computations:     1

   ==> N-Body: Now computing 1-body complexes <==


       N-Body: Computing complex (1/4) with fragments (2,) in the basis of fragments (2,).


  //>>>>>>>>>>>>>>>>>>>>>>>>>>>>>>>>>>>//
  //   CBS Setup: mp2/aug-cc-pV[TQ]Z   //
  //<<<<<<<<<<<<<<<<<<<<<<<<<<<<<<<<<<<//

    Naive listing of computations required.
             hf / aug-cc-pvqz              for  HF TOTAL ENERGY
            mp2 / aug-cc-pvtz              for  MP2 TOTAL ENERGY
            mp2 / aug-cc-pvqz              for  MP2 TOTAL ENERGY
             hf / aug-cc-pvtz              for  HF TOTAL ENERGY
             hf / aug-cc-pvqz              for  HF TOTAL ENERGY

    Enlightened listing of computations required.
            mp2 / aug-cc-pvtz              for  MP2 TOTAL ENERGY
            mp2 / aug-cc-pvqz              for  MP2 TOTAL ENERGY

    Full listing of computations to be obtained (required and bonus).
             hf / aug-cc-pvtz              for  HF TOTAL ENERGY
            mp2 / aug-cc-pvtz              for  MP2 TOTAL ENERGY
             hf / aug-cc-pvqz              for  HF TOTAL ENERGY
            mp2 / aug-cc-pvqz              for  MP2 TOTAL ENERGY

  //>>>>>>>>>>>>>>>>>>>>>>>>>>>>>>>>>>>>//
  // CBS Computation: MP2 / AUG-CC-PVTZ //
  //<<<<<<<<<<<<<<<<<<<<<<<<<<<<<<<<<<<<//

    SCF Algorithm Type (re)set to DF.

*** tstart() called on node37.bme.utexas.edu
*** at Tue Feb 22 19:15:23 2022

   => Loading Basis Set <=

    Name: AUG-CC-PVTZ
    Role: ORBITAL
    Keyword: BASIS
    atoms 1-3 entry CL         line   984 file /home/bdw2292/miniconda3/envs/amoebamdpoltype/share/psi4/basis/aug-cc-pvtz.gbs 
    atoms 4   entry C          line   235 file /home/bdw2292/miniconda3/envs/amoebamdpoltype/share/psi4/basis/aug-cc-pvtz.gbs 
    atoms 5   entry H          line    36 file /home/bdw2292/miniconda3/envs/amoebamdpoltype/share/psi4/basis/aug-cc-pvtz.gbs 


         ---------------------------------------------------------
                                   SCF
               by Justin Turney, Rob Parrish, Andy Simmonett
                          and Daniel G. A. Smith
                              RHF Reference
                        4 Threads,  14305 MiB Core
         ---------------------------------------------------------

  ==> Geometry <==

    Molecular point group: c1
    Full point group: C1

    Geometry (in Angstrom), charge = 0, multiplicity = 1:

       Center              X                  Y                   Z               Mass       
    ------------   -----------------  -----------------  -----------------  -----------------
         CL          -1.853521658279     4.239990948000    -0.512216263870    34.968852682000
         CL           0.484278241721     2.515269148000    -0.480656963870    34.968852682000
         CL          -2.177506458279     1.353033548000    -0.524915063870    34.968852682000
         C           -1.190450058279     2.701475148000     0.026815036130    12.000000000000
         H           -1.206974558279     2.698252848000     1.116657436130     1.007825032230

  Running in c1 symmetry.

  Rotational constants: A =      0.10833  B =      0.01402  C =      0.01257 [cm^-1]
  Rotational constants: A =   3247.70385  B =    420.42791  C =    376.72422 [MHz]
  Nuclear repulsion =  264.418964808030466

  Charge       = 0
  Multiplicity = 1
  Electrons    = 58
  Nalpha       = 29
  Nbeta        = 29

  ==> Algorithm <==

  SCF Algorithm Type is DF.
  DIIS enabled.
  MOM disabled.
  Fractional occupation disabled.
  Guess Type is SAD.
  Energy threshold   = 1.00e-08
  Density threshold  = 1.00e-08
  Integral threshold = 0.00e+00

  ==> Primary Basis <==

  Basis Set: AUG-CC-PVTZ
    Blend: AUG-CC-PVTZ
    Number of shells: 71
    Number of basis function: 219
    Number of Cartesian functions: 257
    Spherical Harmonics?: true
    Max angular momentum: 3

   => Loading Basis Set <=

    Name: (AUG-CC-PVTZ AUX)
    Role: JKFIT
    Keyword: DF_BASIS_SCF
    atoms 1-3 entry CL         line   816 file /home/bdw2292/miniconda3/envs/amoebamdpoltype/share/psi4/basis/aug-cc-pvtz-jkfit.gbs 
    atoms 4   entry C          line   162 file /home/bdw2292/miniconda3/envs/amoebamdpoltype/share/psi4/basis/aug-cc-pvtz-jkfit.gbs 
    atoms 5   entry H          line    70 file /home/bdw2292/miniconda3/envs/amoebamdpoltype/share/psi4/basis/aug-cc-pvtz-jkfit.gbs 

  ==> Pre-Iterations <==

   -------------------------------------------------------
    Irrep   Nso     Nmo     Nalpha   Nbeta   Ndocc  Nsocc
   -------------------------------------------------------
     A        219     219       0       0       0       0
   -------------------------------------------------------
    Total     219     219      29      29      29       0
   -------------------------------------------------------

  ==> Integral Setup <==

  DFHelper Memory: AOs need 0.224 GiB; user supplied 10.477 GiB. Using in-core AOs.

  ==> MemDFJK: Density-Fitted J/K Matrices <==

    J tasked:                   Yes
    K tasked:                   Yes
    wK tasked:                   No
    OpenMP threads:               4
    Memory [MiB]:             10728
    Algorithm:                 Core
    Schwarz Cutoff:           1E-12
    Mask sparsity (%):       0.0000
    Fitting Condition:        1E-10

   => Auxiliary Basis Set <=

  Basis Set: (AUG-CC-PVTZ AUX)
    Blend: AUG-CC-PVTZ-JKFIT
    Number of shells: 170
    Number of basis function: 588
    Number of Cartesian functions: 726
    Spherical Harmonics?: true
    Max angular momentum: 4

  Minimum eigenvalue in the overlap matrix is 6.3167594113E-05.
  Using Symmetric Orthogonalization.

  SCF Guess: Superposition of Atomic Densities via on-the-fly atomic UHF.

  ==> Iterations <==

                           Total Energy        Delta E     RMS |[F,P]|

   @DF-RHF iter SAD: -1416.92125676450792   -1.41692e+03   0.00000e+00 
   @DF-RHF iter   1: -1416.94877065142327   -2.75139e-02   1.35716e-03 DIIS
   @DF-RHF iter   2: -1416.98301230557763   -3.42417e-02   8.94167e-04 DIIS
   @DF-RHF iter   3: -1417.00046874540658   -1.74564e-02   1.76357e-04 DIIS
   @DF-RHF iter   4: -1417.00207570101338   -1.60696e-03   5.26221e-05 DIIS
   @DF-RHF iter   5: -1417.00224348149959   -1.67780e-04   1.30597e-05 DIIS
   @DF-RHF iter   6: -1417.00225604307798   -1.25616e-05   2.89172e-06 DIIS
   @DF-RHF iter   7: -1417.00225655105669   -5.07979e-07   7.81975e-07 DIIS
   @DF-RHF iter   8: -1417.00225658586055   -3.48039e-08   2.15476e-07 DIIS
   @DF-RHF iter   9: -1417.00225658900831   -3.14776e-09   5.24987e-08 DIIS
   @DF-RHF iter  10: -1417.00225658927889   -2.70575e-10   1.62503e-08 DIIS
   @DF-RHF iter  11: -1417.00225658930503   -2.61480e-11   3.48529e-09 DIIS
  Energy and wave function converged.


  ==> Post-Iterations <==

    Orbital Energies [Eh]
    ---------------------

    Doubly Occupied:                                                      

       1A   -104.866985     2A   -104.866958     3A   -104.866955  
       4A    -11.434003     5A    -10.591559     6A    -10.591537  
       7A    -10.591527     8A     -8.058379     9A     -8.058356  
      10A     -8.058353    11A     -8.056232    12A     -8.056209  
      13A     -8.056206    14A     -8.056184    15A     -8.056161  
      16A     -8.056158    17A     -1.245908    18A     -1.116649  
      19A     -1.116623    20A     -0.873235    21A     -0.682803  
      22A     -0.628744    23A     -0.628720    24A     -0.505088  
      25A     -0.505064    26A     -0.469175    27A     -0.469148  
      28A     -0.464149    29A     -0.451525  

    Virtual:                                                              

      30A      0.033113    31A      0.061754    32A      0.068601  
      33A      0.068604    34A      0.103610    35A      0.113866  
      36A      0.113869    37A      0.122100    38A      0.122103  
      39A      0.130946    40A      0.141756    41A      0.160493  
      42A      0.160496    43A      0.163518    44A      0.193915  
      45A      0.198645    46A      0.198662    47A      0.245464  
      48A      0.257213    49A      0.257218    50A      0.300712  
      51A      0.301969    52A      0.301978    53A      0.332915  
      54A      0.343543    55A      0.343568    56A      0.377406  
      57A      0.377432    58A      0.402738    59A      0.408725  
      60A      0.427839    61A      0.427872    62A      0.435900  
      63A      0.447806    64A      0.447826    65A      0.485856  
      66A      0.485889    67A      0.504508    68A      0.519928  
      69A      0.536793    70A      0.536862    71A      0.554120  
      72A      0.588139    73A      0.588197    74A      0.684150  
      75A      0.684189    76A      0.709707    77A      0.735548  
      78A      0.735562    79A      0.751347    80A      0.796403  
      81A      0.801693    82A      0.801704    83A      0.814701  
      84A      0.845447    85A      0.848699    86A      0.848721  
      87A      0.870846    88A      0.870876    89A      0.875969  
      90A      0.910640    91A      0.910697    92A      0.915535  
      93A      0.940511    94A      0.948076    95A      0.948105  
      96A      0.963800    97A      1.020223    98A      1.020317  
      99A      1.042290   100A      1.062027   101A      1.062076  
     102A      1.085205   103A      1.108420   104A      1.108510  
     105A      1.126275   106A      1.126340   107A      1.130066  
     108A      1.160287   109A      1.160357   110A      1.188710  
     111A      1.258282   112A      1.258369   113A      1.275442  
     114A      1.294567   115A      1.294586   116A      1.378422  
     117A      1.378515   118A      1.422958   119A      1.468959  
     120A      1.505985   121A      1.506115   122A      1.557431  
     123A      1.570211   124A      1.570221   125A      1.604043  
     126A      1.604222   127A      1.642220   128A      1.727600  
     129A      1.727618   130A      1.750634   131A      1.751430  
     132A      1.767726   133A      1.767759   134A      1.785142  
     135A      1.865720   136A      1.865908   137A      1.866731  
     138A      1.889210   139A      1.912958   140A      1.913039  
     141A      1.935073   142A      1.968051   143A      1.968105  
     144A      2.146890   145A      2.146933   146A      2.402669  
     147A      2.536542   148A      2.536602   149A      2.583584  
     150A      2.589167   151A      2.589188   152A      2.604337  
     153A      2.632749   154A      2.651956   155A      2.652079  
     156A      2.681364   157A      2.681390   158A      2.706708  
     159A      2.706766   160A      2.708325   161A      2.721374  
     162A      2.931446   163A      2.931544   164A      2.943586  
     165A      2.943639   166A      2.974205   167A      2.998323  
     168A      3.007087   169A      3.007092   170A      3.047579  
     171A      3.067095   172A      3.081921   173A      3.081938  
     174A      3.104598   175A      3.104628   176A      3.124726  
     177A      3.140666   178A      3.140672   179A      3.148680  
     180A      3.170025   181A      3.201486   182A      3.201512  
     183A      3.204644   184A      3.248191   185A      3.248264  
     186A      3.283525   187A      3.283534   188A      3.345727  
     189A      3.418136   190A      3.483625   191A      3.483922  
     192A      3.525131   193A      3.677100   194A      3.677237  
     195A      3.773402   196A      3.788178   197A      3.788261  
     198A      3.997837   199A      3.997930   200A      4.016181  
     201A      4.059631   202A      4.188670   203A      4.272230  
     204A      4.272317   205A      4.419865   206A      4.420074  
     207A      4.723903   208A      4.723988   209A      4.821601  
     210A      4.930860   211A      4.930904   212A      5.235498  
     213A      5.235745   214A      5.579947   215A      5.975087  
     216A      7.085518   217A      7.700097   218A      7.700815  
     219A     13.781800  

    Final Occupation by Irrep:
              A 
    DOCC [    29 ]

  @DF-RHF Final Energy: -1417.00225658930503

   => Energetics <=

    Nuclear Repulsion Energy =            264.4189648080304664
    One-Electron Energy =               -2483.8852576572667203
    Two-Electron Energy =                 802.4640362599310492
    Total Energy =                      -1417.0022565893050341

Computation Completed


Properties will be evaluated at  -2.236105,   5.107164,  -0.827406 [a0]

Properties computed using the SCF density matrix

  Nuclear Dipole Moment: [e a0]
     X:    -0.0251      Y:    -0.0045      Z:     1.6443

  Electronic Dipole Moment: [e a0]
     X:     0.0179      Y:     0.0034      Z:    -1.1751

  Dipole Moment: [e a0]
     X:    -0.0072      Y:    -0.0012      Z:     0.4691     Total:     0.4692

  Dipole Moment: [D]
     X:    -0.0183      Y:    -0.0030      Z:     1.1924     Total:     1.1926


*** tstop() called on node37.bme.utexas.edu at Tue Feb 22 19:15:30 2022
Module time:
	user time   =      20.71 seconds =       0.35 minutes
	system time =       1.23 seconds =       0.02 minutes
	total time  =          7 seconds =       0.12 minutes
Total time:
	user time   =      20.71 seconds =       0.35 minutes
	system time =       1.23 seconds =       0.02 minutes
	total time  =          7 seconds =       0.12 minutes

*** tstart() called on node37.bme.utexas.edu
*** at Tue Feb 22 19:15:30 2022


  //>>>>>>>>>>>>>>>>>>>>>>>>>>>>>>>>>>>//
  //               DFMP2               //
  //<<<<<<<<<<<<<<<<<<<<<<<<<<<<<<<<<<<//

   => Loading Basis Set <=

    Name: (AUG-CC-PVTZ AUX)
    Role: RIFIT
    Keyword: DF_BASIS_MP2
    atoms 1-3 entry CL         line   742 file /home/bdw2292/miniconda3/envs/amoebamdpoltype/share/psi4/basis/aug-cc-pvtz-ri.gbs 
    atoms 4   entry C          line   148 file /home/bdw2292/miniconda3/envs/amoebamdpoltype/share/psi4/basis/aug-cc-pvtz-ri.gbs 
    atoms 5   entry H          line    30 file /home/bdw2292/miniconda3/envs/amoebamdpoltype/share/psi4/basis/aug-cc-pvtz-ri.gbs 

	 --------------------------------------------------------
	                          DF-MP2                         
	      2nd-Order Density-Fitted Moller-Plesset Theory     
	              RMP2 Wavefunction,   4 Threads             
	                                                         
	        Rob Parrish, Justin Turney, Andy Simmonett,      
	           Ed Hohenstein, and C. David Sherrill          
	 --------------------------------------------------------

   => Auxiliary Basis Set <=

  Basis Set: (AUG-CC-PVTZ AUX)
    Blend: AUG-CC-PVTZ-RI
    Number of shells: 153
    Number of basis function: 593
    Number of Cartesian functions: 764
    Spherical Harmonics?: true
    Max angular momentum: 4

	 --------------------------------------------------------
	                 NBF =   219, NAUX =   593
	 --------------------------------------------------------
	   CLASS    FOCC     OCC    AOCC    AVIR     VIR    FVIR
	   PAIRS      16      29      13     190     190       0
	 --------------------------------------------------------

	-----------------------------------------------------------
	 ==================> DF-MP2 Energies <==================== 
	-----------------------------------------------------------
	 Reference Energy          =   -1417.0022565893050341 [Eh]
	 Singles Energy            =      -0.0000000000000000 [Eh]
	 Same-Spin Energy          =      -0.1911304854817529 [Eh]
	 Opposite-Spin Energy      =      -0.5650644437940591 [Eh]
	 Correlation Energy        =      -0.7561949292758120 [Eh]
	 Total Energy              =   -1417.7584515185808414 [Eh]
	-----------------------------------------------------------
	 ================> DF-SCS-MP2 Energies <================== 
	-----------------------------------------------------------
	 SCS Same-Spin Scale       =       0.3333333333333333 [-]
	 SCS Opposite-Spin Scale   =       1.2000000000000000 [-]
	 SCS Same-Spin Energy      =      -0.0637101618272510 [Eh]
	 SCS Opposite-Spin Energy  =      -0.6780773325528708 [Eh]
	 SCS Correlation Energy    =      -0.7417874943801218 [Eh]
	 SCS Total Energy          =   -1417.7440440836851394 [Eh]
	-----------------------------------------------------------


*** tstop() called on node37.bme.utexas.edu at Tue Feb 22 19:15:34 2022
Module time:
	user time   =       9.76 seconds =       0.16 minutes
	system time =       0.54 seconds =       0.01 minutes
	total time  =          4 seconds =       0.07 minutes
Total time:
	user time   =      30.48 seconds =       0.51 minutes
	system time =       1.77 seconds =       0.03 minutes
	total time  =         11 seconds =       0.18 minutes

  //>>>>>>>>>>>>>>>>>>>>>>>>>>>>>>>>>>>>//
  // CBS Computation: MP2 / AUG-CC-PVQZ //
  //<<<<<<<<<<<<<<<<<<<<<<<<<<<<<<<<<<<<//

    SCF Algorithm Type (re)set to DF.

*** tstart() called on node37.bme.utexas.edu
*** at Tue Feb 22 19:15:34 2022

   => Loading Basis Set <=

    Name: AUG-CC-PVQZ
    Role: ORBITAL
    Keyword: BASIS
    atoms 1-3 entry CL         line  1218 file /home/bdw2292/miniconda3/envs/amoebamdpoltype/share/psi4/basis/aug-cc-pvqz.gbs 
    atoms 4   entry C          line   299 file /home/bdw2292/miniconda3/envs/amoebamdpoltype/share/psi4/basis/aug-cc-pvqz.gbs 
    atoms 5   entry H          line    36 file /home/bdw2292/miniconda3/envs/amoebamdpoltype/share/psi4/basis/aug-cc-pvqz.gbs 


         ---------------------------------------------------------
                                   SCF
               by Justin Turney, Rob Parrish, Andy Simmonett
                          and Daniel G. A. Smith
                              RHF Reference
                        4 Threads,  14305 MiB Core
         ---------------------------------------------------------

  ==> Geometry <==

    Molecular point group: c1
    Full point group: C1

    Geometry (in Angstrom), charge = 0, multiplicity = 1:

       Center              X                  Y                   Z               Mass       
    ------------   -----------------  -----------------  -----------------  -----------------
         CL          -1.853521658279     4.239990948000    -0.512216263870    34.968852682000
         CL           0.484278241721     2.515269148000    -0.480656963870    34.968852682000
         CL          -2.177506458279     1.353033548000    -0.524915063870    34.968852682000
         C           -1.190450058279     2.701475148000     0.026815036130    12.000000000000
         H           -1.206974558279     2.698252848000     1.116657436130     1.007825032230

  Running in c1 symmetry.

  Rotational constants: A =      0.10833  B =      0.01402  C =      0.01257 [cm^-1]
  Rotational constants: A =   3247.70385  B =    420.42791  C =    376.72422 [MHz]
  Nuclear repulsion =  264.418964808030466

  Charge       = 0
  Multiplicity = 1
  Electrons    = 58
  Nalpha       = 29
  Nbeta        = 29

  ==> Algorithm <==

  SCF Algorithm Type is DF.
  DIIS enabled.
  MOM disabled.
  Fractional occupation disabled.
  Guess Type is SAD.
  Energy threshold   = 1.00e-08
  Density threshold  = 1.00e-08
  Integral threshold = 0.00e+00

  ==> Primary Basis <==

  Basis Set: AUG-CC-PVQZ
    Blend: AUG-CC-PVQZ
    Number of shells: 100
    Number of basis function: 378
    Number of Cartesian functions: 487
    Spherical Harmonics?: true
    Max angular momentum: 4

   => Loading Basis Set <=

    Name: (AUG-CC-PVQZ AUX)
    Role: JKFIT
    Keyword: DF_BASIS_SCF
    atoms 1-3 entry CL         line   904 file /home/bdw2292/miniconda3/envs/amoebamdpoltype/share/psi4/basis/aug-cc-pvqz-jkfit.gbs 
    atoms 4   entry C          line   178 file /home/bdw2292/miniconda3/envs/amoebamdpoltype/share/psi4/basis/aug-cc-pvqz-jkfit.gbs 
    atoms 5   entry H          line    70 file /home/bdw2292/miniconda3/envs/amoebamdpoltype/share/psi4/basis/aug-cc-pvqz-jkfit.gbs 

  ==> Pre-Iterations <==

   -------------------------------------------------------
    Irrep   Nso     Nmo     Nalpha   Nbeta   Ndocc  Nsocc
   -------------------------------------------------------
     A        378     378       0       0       0       0
   -------------------------------------------------------
    Total     378     378      29      29      29       0
   -------------------------------------------------------

  ==> Integral Setup <==

  DFHelper Memory: AOs need 0.861 GiB; user supplied 10.477 GiB. Using in-core AOs.

  ==> MemDFJK: Density-Fitted J/K Matrices <==

    J tasked:                   Yes
    K tasked:                   Yes
    wK tasked:                   No
    OpenMP threads:               4
    Memory [MiB]:             10728
    Algorithm:                 Core
    Schwarz Cutoff:           1E-12
    Mask sparsity (%):       0.3303
    Fitting Condition:        1E-10

   => Auxiliary Basis Set <=

  Basis Set: (AUG-CC-PVQZ AUX)
    Blend: AUG-CC-PVQZ-JKFIT
    Number of shells: 190
    Number of basis function: 770
    Number of Cartesian functions: 1040
    Spherical Harmonics?: true
    Max angular momentum: 5

  Minimum eigenvalue in the overlap matrix is 1.2805410220E-05.
  Using Symmetric Orthogonalization.

  SCF Guess: Superposition of Atomic Densities via on-the-fly atomic UHF.

  ==> Iterations <==

                           Total Energy        Delta E     RMS |[F,P]|

   @DF-RHF iter SAD: -1416.93079623638209   -1.41693e+03   0.00000e+00 
   @DF-RHF iter   1: -1416.96185809951612   -3.10619e-02   8.19224e-04 DIIS
   @DF-RHF iter   2: -1416.99650932934287   -3.46512e-02   5.28912e-04 DIIS
   @DF-RHF iter   3: -1417.01387575890908   -1.73664e-02   1.08730e-04 DIIS
   @DF-RHF iter   4: -1417.01554552870380   -1.66977e-03   3.41721e-05 DIIS
   @DF-RHF iter   5: -1417.01575633561288   -2.10807e-04   8.22707e-06 DIIS
   @DF-RHF iter   6: -1417.01577082047788   -1.44849e-05   1.80520e-06 DIIS
   @DF-RHF iter   7: -1417.01577140290942   -5.82432e-07   5.12284e-07 DIIS
   @DF-RHF iter   8: -1417.01577144504267   -4.21333e-08   1.43262e-07 DIIS
   @DF-RHF iter   9: -1417.01577144897237   -3.92970e-09   3.61923e-08 DIIS
   @DF-RHF iter  10: -1417.01577144932844   -3.56067e-10   1.11451e-08 DIIS
   @DF-RHF iter  11: -1417.01577144937073   -4.22915e-11   2.45263e-09 DIIS
  Energy and wave function converged.


  ==> Post-Iterations <==

    Orbital Energies [Eh]
    ---------------------

    Doubly Occupied:                                                      

       1A   -104.864589     2A   -104.864562     3A   -104.864559  
       4A    -11.431679     5A    -10.590387     6A    -10.590366  
       7A    -10.590355     8A     -8.057417     9A     -8.057394  
      10A     -8.057390    11A     -8.055452    12A     -8.055429  
      13A     -8.055426    14A     -8.055399    15A     -8.055376  
      16A     -8.055373    17A     -1.244978    18A     -1.116020  
      19A     -1.115993    20A     -0.872809    21A     -0.682492  
      22A     -0.628604    23A     -0.628579    24A     -0.504855  
      25A     -0.504831    26A     -0.468941    27A     -0.468915  
      28A     -0.463897    29A     -0.451329  

    Virtual:                                                              

      30A      0.029939    31A      0.052690    32A      0.056959  
      33A      0.056962    34A      0.092634    35A      0.095854  
      36A      0.095855    37A      0.097147    38A      0.097150  
      39A      0.114368    40A      0.124548    41A      0.137689  
      42A      0.137694    43A      0.137987    44A      0.161769  
      45A      0.176637    46A      0.176650    47A      0.207461  
      48A      0.217672    49A      0.217679    50A      0.247847  
      51A      0.252865    52A      0.252872    53A      0.281867  
      54A      0.281880    55A      0.286418    56A      0.303408  
      57A      0.303413    58A      0.323994    59A      0.324023  
      60A      0.325121    61A      0.336706    62A      0.348015  
      63A      0.348026    64A      0.353906    65A      0.359379  
      66A      0.368815    67A      0.368845    68A      0.374575  
      69A      0.408558    70A      0.408624    71A      0.421581  
      72A      0.461668    73A      0.461707    74A      0.526418  
      75A      0.526466    76A      0.538104    77A      0.559536  
      78A      0.559545    79A      0.568944    80A      0.568967  
      81A      0.573692    82A      0.594618    83A      0.594635  
      84A      0.606149    85A      0.609190    86A      0.615980  
      87A      0.617411    88A      0.617447    89A      0.624876  
      90A      0.681894    91A      0.681922    92A      0.695921  
      93A      0.714824    94A      0.714847    95A      0.743990  
      96A      0.755781    97A      0.762002    98A      0.771253  
      99A      0.771284   100A      0.802915   101A      0.802953  
     102A      0.833177   103A      0.833185   104A      0.857441  
     105A      0.866626   106A      0.866673   107A      0.887190  
     108A      0.887226   109A      0.900826   110A      0.918506  
     111A      0.959587   112A      0.980538   113A      0.980575  
     114A      1.013074   115A      1.013105   116A      1.039313  
     117A      1.061835   118A      1.061871   119A      1.091530  
     120A      1.091548   121A      1.108600   122A      1.126244  
     123A      1.138752   124A      1.138793   125A      1.157253  
     126A      1.173655   127A      1.173686   128A      1.195421  
     129A      1.231652   130A      1.231680   131A      1.232534  
     132A      1.235683   133A      1.235709   134A      1.256932  
     135A      1.259286   136A      1.274530   137A      1.274548  
     138A      1.275281   139A      1.310547   140A      1.310610  
     141A      1.350795   142A      1.447436   143A      1.447453  
     144A      1.477989   145A      1.555897   146A      1.556078  
     147A      1.648819   148A      1.690832   149A      1.690840  
     150A      1.736049   151A      1.736182   152A      1.739471  
     153A      1.748777   154A      1.773189   155A      1.773260  
     156A      1.774011   157A      1.799229   158A      1.799245  
     159A      1.819094   160A      1.819169   161A      1.828843  
     162A      1.871115   163A      1.875948   164A      1.875975  
     165A      1.924222   166A      1.924260   167A      1.928224  
     168A      1.928327   169A      1.954813   170A      1.963965  
     171A      1.994278   172A      1.994315   173A      2.011099  
     174A      2.011191   175A      2.016041   176A      2.035529  
     177A      2.035664   178A      2.054247   179A      2.054305  
     180A      2.108801   181A      2.108842   182A      2.111453  
     183A      2.116057   184A      2.119166   185A      2.119227  
     186A      2.175334   187A      2.175389   188A      2.190246  
     189A      2.196541   190A      2.196640   191A      2.211135  
     192A      2.211607   193A      2.225853   194A      2.225907  
     195A      2.237499   196A      2.261969   197A      2.262007  
     198A      2.285293   199A      2.285306   200A      2.298801  
     201A      2.300765   202A      2.300838   203A      2.325546  
     204A      2.392989   205A      2.401655   206A      2.403506  
     207A      2.403554   208A      2.448074   209A      2.453245  
     210A      2.453289   211A      2.475651   212A      2.475758  
     213A      2.486393   214A      2.543432   215A      2.543593  
     216A      2.567580   217A      2.576832   218A      2.576870  
     219A      2.613783   220A      2.632073   221A      2.637507  
     222A      2.637616   223A      2.736886   224A      2.817930  
     225A      2.818040   226A      2.859489   227A      2.897829  
     228A      2.899635   229A      2.899775   230A      2.902167  
     231A      2.993884   232A      2.993951   233A      3.045608  
     234A      3.117189   235A      3.117394   236A      3.166182  
     237A      3.166513   238A      3.298041   239A      3.298097  
     240A      3.318604   241A      3.325649   242A      3.386086  
     243A      3.386132   244A      3.473304   245A      3.473370  
     246A      3.485537   247A      3.534218   248A      3.543427  
     249A      3.543463   250A      3.636341   251A      3.742036  
     252A      3.760605   253A      3.760760   254A      3.848904  
     255A      3.849025   256A      3.968511   257A      3.968835  
     258A      3.977095   259A      4.234470   260A      4.283826  
     261A      4.283902   262A      4.418641   263A      4.418685  
     264A      4.419552   265A      4.463066   266A      4.499131  
     267A      4.539809   268A      4.539882   269A      4.591332  
     270A      4.591362   271A      4.660408   272A      4.660427  
     273A      4.662668   274A      4.708164   275A      4.708203  
     276A      4.708611   277A      4.711404   278A      4.711465  
     279A      4.717719   280A      4.742073   281A      4.742081  
     282A      4.750882   283A      4.766128   284A      4.766163  
     285A      4.774951   286A      4.786622   287A      4.786672  
     288A      4.795946   289A      4.801517   290A      4.821385  
     291A      4.821431   292A      4.854248   293A      4.854314  
     294A      4.872497   295A      4.887938   296A      4.888022  
     297A      4.908303   298A      4.911703   299A      4.911726  
     300A      4.927046   301A      4.945428   302A      4.945458  
     303A      4.952749   304A      4.980559   305A      4.985901  
     306A      4.985958   307A      5.032069   308A      5.053308  
     309A      5.082189   310A      5.082353   311A      5.151700  
     312A      5.151741   313A      5.197979   314A      5.248035  
     315A      5.248115   316A      5.287694   317A      5.303465  
     318A      5.385498   319A      5.385582   320A      5.408985  
     321A      5.409036   322A      5.513191   323A      5.513614  
     324A      5.576515   325A      5.702031   326A      6.445319  
     327A      6.478755   328A      6.479193   329A      6.515698  
     330A      6.515991   331A      6.685901   332A      6.714907  
     333A      6.715061   334A      6.718948   335A      6.778723  
     336A      6.816058   337A      6.816308   338A      6.891900  
     339A      6.892109   340A      6.903598   341A      6.957530  
     342A      6.979364   343A      7.081030   344A      7.190134  
     345A      7.190310   346A      7.211384   347A      7.211586  
     348A      7.394347   349A      7.394667   350A      7.422484  
     351A      7.512593   352A      7.610699   353A      7.610874  
     354A      7.731192   355A      7.731247   356A      7.811051  
     357A      7.891081   358A      8.000542   359A      8.000691  
     360A      8.339538   361A      8.614577   362A      8.614643  
     363A      8.705110   364A      8.705292   365A      8.832093  
     366A      9.323015   367A      9.323114   368A      9.540429  
     369A      9.711679   370A      9.711906   371A     10.427636  
     372A     10.427756   373A     10.678601   374A     12.933700  
     375A     25.518499   376A     26.663083   377A     26.663668  
     378A     27.330268  

    Final Occupation by Irrep:
              A 
    DOCC [    29 ]

  @DF-RHF Final Energy: -1417.01577144937073

   => Energetics <=

    Nuclear Repulsion Energy =            264.4189648080304664
    One-Electron Energy =               -2483.9626871685577498
    Two-Electron Energy =                 802.5279509111566085
    Total Energy =                      -1417.0157714493707317

Computation Completed


Properties will be evaluated at  -2.236105,   5.107164,  -0.827406 [a0]

Properties computed using the SCF density matrix

  Nuclear Dipole Moment: [e a0]
     X:    -0.0251      Y:    -0.0045      Z:     1.6443

  Electronic Dipole Moment: [e a0]
     X:     0.0179      Y:     0.0034      Z:    -1.1784

  Dipole Moment: [e a0]
     X:    -0.0072      Y:    -0.0012      Z:     0.4659     Total:     0.4659

  Dipole Moment: [D]
     X:    -0.0182      Y:    -0.0029      Z:     1.1841     Total:     1.1843


*** tstop() called on node37.bme.utexas.edu at Tue Feb 22 19:15:53 2022
Module time:
	user time   =      63.86 seconds =       1.06 minutes
	system time =       3.26 seconds =       0.05 minutes
	total time  =         19 seconds =       0.32 minutes
Total time:
	user time   =      94.39 seconds =       1.57 minutes
	system time =       5.04 seconds =       0.08 minutes
	total time  =         30 seconds =       0.50 minutes

*** tstart() called on node37.bme.utexas.edu
*** at Tue Feb 22 19:15:53 2022


  //>>>>>>>>>>>>>>>>>>>>>>>>>>>>>>>>>>>//
  //               DFMP2               //
  //<<<<<<<<<<<<<<<<<<<<<<<<<<<<<<<<<<<//

   => Loading Basis Set <=

    Name: (AUG-CC-PVQZ AUX)
    Role: RIFIT
    Keyword: DF_BASIS_MP2
    atoms 1-3 entry CL         line   914 file /home/bdw2292/miniconda3/envs/amoebamdpoltype/share/psi4/basis/aug-cc-pvqz-ri.gbs 
    atoms 4   entry C          line   184 file /home/bdw2292/miniconda3/envs/amoebamdpoltype/share/psi4/basis/aug-cc-pvqz-ri.gbs 
    atoms 5   entry H          line    30 file /home/bdw2292/miniconda3/envs/amoebamdpoltype/share/psi4/basis/aug-cc-pvqz-ri.gbs 

	 --------------------------------------------------------
	                          DF-MP2                         
	      2nd-Order Density-Fitted Moller-Plesset Theory     
	              RMP2 Wavefunction,   4 Threads             
	                                                         
	        Rob Parrish, Justin Turney, Andy Simmonett,      
	           Ed Hohenstein, and C. David Sherrill          
	 --------------------------------------------------------

   => Auxiliary Basis Set <=

  Basis Set: (AUG-CC-PVQZ AUX)
    Blend: AUG-CC-PVQZ-RI
    Number of shells: 188
    Number of basis function: 830
    Number of Cartesian functions: 1146
    Spherical Harmonics?: true
    Max angular momentum: 5

	 --------------------------------------------------------
	                 NBF =   378, NAUX =   830
	 --------------------------------------------------------
	   CLASS    FOCC     OCC    AOCC    AVIR     VIR    FVIR
	   PAIRS      16      29      13     349     349       0
	 --------------------------------------------------------

	-----------------------------------------------------------
	 ==================> DF-MP2 Energies <==================== 
	-----------------------------------------------------------
	 Reference Energy          =   -1417.0157714493707317 [Eh]
	 Singles Energy            =      -0.0000000000000000 [Eh]
	 Same-Spin Energy          =      -0.1973139756524758 [Eh]
	 Opposite-Spin Energy      =      -0.6181121635485289 [Eh]
	 Correlation Energy        =      -0.8154261392010047 [Eh]
	 Total Energy              =   -1417.8311975885717402 [Eh]
	-----------------------------------------------------------
	 ================> DF-SCS-MP2 Energies <================== 
	-----------------------------------------------------------
	 SCS Same-Spin Scale       =       0.3333333333333333 [-]
	 SCS Opposite-Spin Scale   =       1.2000000000000000 [-]
	 SCS Same-Spin Energy      =      -0.0657713252174919 [Eh]
	 SCS Opposite-Spin Energy  =      -0.7417345962582347 [Eh]
	 SCS Correlation Energy    =      -0.8075059214757266 [Eh]
	 SCS Total Energy          =   -1417.8232773708464265 [Eh]
	-----------------------------------------------------------


*** tstop() called on node37.bme.utexas.edu at Tue Feb 22 19:16:03 2022
Module time:
	user time   =      24.85 seconds =       0.41 minutes
	system time =       1.60 seconds =       0.03 minutes
	total time  =         10 seconds =       0.17 minutes
Total time:
	user time   =     119.25 seconds =       1.99 minutes
	system time =       6.64 seconds =       0.11 minutes
	total time  =         40 seconds =       0.67 minutes

  //>>>>>>>>>>>>>>>>>>>>>>>>>>>>>>>>>>>//
  //  CBS Results: mp2/aug-cc-pV[TQ]Z  //
  //<<<<<<<<<<<<<<<<<<<<<<<<<<<<<<<<<<<//


   ==> HF <==

   HI-zeta (4) Energy:               -1417.015771449371


   ==> Helgaker 2-point correlated extrapolation for method: MP2 <==

   LO-zeta (3) Energy:               -1417.758451518581
   HI-zeta (4) Energy:               -1417.831197588572
   Alpha (exponent) Value:             3.000000000000
   Extrapolated Energy:              -1417.884282558565

   @Extrapolated MP2/(T,Q):          -1417.884282558565



   ==> Helgaker 2-point correlated extrapolation for method: HF <==

   LO-zeta (3) Energy:               -1417.002256589305
   HI-zeta (4) Energy:               -1417.015771449371
   Alpha (exponent) Value:             3.000000000000
   Extrapolated Energy:              -1417.025633644554

   @Extrapolated HF/(T,Q):           -1417.025633644554


   ==> Components <==

  ---------------------------------------------------------------------------------------------------------
                          Method / Basis                      Rqd      Energy [Eh]   Variable
  ---------------------------------------------------------------------------------------------------------
                              hf / aug-cc-pvtz                  *   -1417.00225659   HF TOTAL ENERGY
                             mp2 / aug-cc-pvtz                  *   -1417.75845152   MP2 TOTAL ENERGY
                              hf / aug-cc-pvqz                  *   -1417.01577145   HF TOTAL ENERGY
                             mp2 / aug-cc-pvqz                  *   -1417.83119759   MP2 TOTAL ENERGY
  ---------------------------------------------------------------------------------------------------------

   ==> Stages <==

  ---------------------------------------------------------------------------------------------------------
      Stage               Method / Basis                       Wt      Energy [Eh]   Scheme
  ---------------------------------------------------------------------------------------------------------
        scf                   hf / aug-cc-pvqz                  1   -1417.01577145   xtpl_highest_1
       corl                  mp2 / aug-cc-pv[tq]z               1   -1417.88428256   corl_xtpl_helgaker_2
       corl                   hf / aug-cc-pv[tq]z              -1   -1417.02563364   corl_xtpl_helgaker_2
  ---------------------------------------------------------------------------------------------------------

   ==> CBS <==

  ---------------------------------------------------------------------------------------------------------
      Stage               Method / Basis                               Energy [Eh]   Scheme
  ---------------------------------------------------------------------------------------------------------
        scf                   hf / aug-cc-pvqz                      -1417.01577145   xtpl_highest_1
       corl                  mp2 / aug-cc-pv[tq]z                      -0.85864891   corl_xtpl_helgaker_2
      total                  CBS                                    -1417.87442036   
  ---------------------------------------------------------------------------------------------------------
   => Loading Basis Set <=

    Name: DEF2-SVP
    Role: ORBITAL
    Keyword: BASIS
    atoms 1-3 entry CL         line   356 file /home/bdw2292/miniconda3/envs/amoebamdpoltype/share/psi4/basis/def2-svp.gbs 
    atoms 4   entry C          line    90 file /home/bdw2292/miniconda3/envs/amoebamdpoltype/share/psi4/basis/def2-svp.gbs 
    atoms 5   entry H          line    15 file /home/bdw2292/miniconda3/envs/amoebamdpoltype/share/psi4/basis/def2-svp.gbs 


       N-Body: Complex Energy (fragments = (2,), basis = (2,): -1417.87442036338234)

       N-Body: Computing complex (2/4) with fragments (2,) in the basis of fragments (1, 2).


  //>>>>>>>>>>>>>>>>>>>>>>>>>>>>>>>>>>>//
  //   CBS Setup: mp2/aug-cc-pV[TQ]Z   //
  //<<<<<<<<<<<<<<<<<<<<<<<<<<<<<<<<<<<//

    Naive listing of computations required.
             hf / aug-cc-pvqz              for  HF TOTAL ENERGY
            mp2 / aug-cc-pvtz              for  MP2 TOTAL ENERGY
            mp2 / aug-cc-pvqz              for  MP2 TOTAL ENERGY
             hf / aug-cc-pvtz              for  HF TOTAL ENERGY
             hf / aug-cc-pvqz              for  HF TOTAL ENERGY

    Enlightened listing of computations required.
            mp2 / aug-cc-pvtz              for  MP2 TOTAL ENERGY
            mp2 / aug-cc-pvqz              for  MP2 TOTAL ENERGY

    Full listing of computations to be obtained (required and bonus).
             hf / aug-cc-pvtz              for  HF TOTAL ENERGY
            mp2 / aug-cc-pvtz              for  MP2 TOTAL ENERGY
             hf / aug-cc-pvqz              for  HF TOTAL ENERGY
            mp2 / aug-cc-pvqz              for  MP2 TOTAL ENERGY

  //>>>>>>>>>>>>>>>>>>>>>>>>>>>>>>>>>>>>//
  // CBS Computation: MP2 / AUG-CC-PVTZ //
  //<<<<<<<<<<<<<<<<<<<<<<<<<<<<<<<<<<<<//

    SCF Algorithm Type (re)set to DF.

*** tstart() called on node37.bme.utexas.edu
*** at Tue Feb 22 19:16:05 2022

   => Loading Basis Set <=

    Name: AUG-CC-PVTZ
    Role: ORBITAL
    Keyword: BASIS
    atoms 1-3, 6-8 entry CL         line   984 file /home/bdw2292/miniconda3/envs/amoebamdpoltype/share/psi4/basis/aug-cc-pvtz.gbs 
    atoms 4, 9     entry C          line   235 file /home/bdw2292/miniconda3/envs/amoebamdpoltype/share/psi4/basis/aug-cc-pvtz.gbs 
    atoms 5, 10    entry H          line    36 file /home/bdw2292/miniconda3/envs/amoebamdpoltype/share/psi4/basis/aug-cc-pvtz.gbs 


         ---------------------------------------------------------
                                   SCF
               by Justin Turney, Rob Parrish, Andy Simmonett
                          and Daniel G. A. Smith
                              RHF Reference
                        4 Threads,  14305 MiB Core
         ---------------------------------------------------------

  ==> Geometry <==

    Molecular point group: c1
    Full point group: C1

    Geometry (in Angstrom), charge = 0, multiplicity = 1:

       Center              X                  Y                   Z               Mass       
    ------------   -----------------  -----------------  -----------------  -----------------
      Gh(CL)          0.504730741721    -1.186620752000     0.196249436130    34.968852682000
      Gh(CL)          2.851933441721    -2.867052652000     0.521666536130    34.968852682000
      Gh(CL)          0.210190541721    -4.069708152000     0.392701136130    34.968852682000
      Gh(C)           1.144691441721    -2.667092652000     0.899431236130    12.000000000000
      Gh(H)           1.054229641721    -2.584128852000     1.982445836130     1.007825032230
         CL          -1.853521658279     4.239990948000    -0.512216263870    34.968852682000
         CL           0.484278241721     2.515269148000    -0.480656963870    34.968852682000
         CL          -2.177506458279     1.353033548000    -0.524915063870    34.968852682000
         C           -1.190450058279     2.701475148000     0.026815036130    12.000000000000
         H           -1.206974558279     2.698252848000     1.116657436130     1.007825032230

  Running in c1 symmetry.

  Rotational constants: A =      0.05455  B =      0.00701  C =      0.00628 [cm^-1]
  Rotational constants: A =   1635.29196  B =    210.21463  C =    188.20921 [MHz]
  Nuclear repulsion =  264.418964808030466

  Charge       = 0
  Multiplicity = 1
  Electrons    = 58
  Nalpha       = 29
  Nbeta        = 29

  ==> Algorithm <==

  SCF Algorithm Type is DF.
  DIIS enabled.
  MOM disabled.
  Fractional occupation disabled.
  Guess Type is SAD.
  Energy threshold   = 1.00e-08
  Density threshold  = 1.00e-08
  Integral threshold = 0.00e+00

  ==> Primary Basis <==

  Basis Set: AUG-CC-PVTZ
    Blend: AUG-CC-PVTZ
    Number of shells: 142
    Number of basis function: 438
    Number of Cartesian functions: 514
    Spherical Harmonics?: true
    Max angular momentum: 3

   => Loading Basis Set <=

    Name: (AUG-CC-PVTZ AUX)
    Role: JKFIT
    Keyword: DF_BASIS_SCF
    atoms 1-3, 6-8 entry CL         line   816 file /home/bdw2292/miniconda3/envs/amoebamdpoltype/share/psi4/basis/aug-cc-pvtz-jkfit.gbs 
    atoms 4, 9     entry C          line   162 file /home/bdw2292/miniconda3/envs/amoebamdpoltype/share/psi4/basis/aug-cc-pvtz-jkfit.gbs 
    atoms 5, 10    entry H          line    70 file /home/bdw2292/miniconda3/envs/amoebamdpoltype/share/psi4/basis/aug-cc-pvtz-jkfit.gbs 

  ==> Pre-Iterations <==

   -------------------------------------------------------
    Irrep   Nso     Nmo     Nalpha   Nbeta   Ndocc  Nsocc
   -------------------------------------------------------
     A        438     438       0       0       0       0
   -------------------------------------------------------
    Total     438     438      29      29      29       0
   -------------------------------------------------------

  ==> Integral Setup <==

  DFHelper Memory: AOs need 1.491 GiB; user supplied 10.477 GiB. Using in-core AOs.

  ==> MemDFJK: Density-Fitted J/K Matrices <==

    J tasked:                   Yes
    K tasked:                   Yes
    wK tasked:                   No
    OpenMP threads:               4
    Memory [MiB]:             10728
    Algorithm:                 Core
    Schwarz Cutoff:           1E-12
    Mask sparsity (%):      14.5577
    Fitting Condition:        1E-10

   => Auxiliary Basis Set <=

  Basis Set: (AUG-CC-PVTZ AUX)
    Blend: AUG-CC-PVTZ-JKFIT
    Number of shells: 340
    Number of basis function: 1176
    Number of Cartesian functions: 1452
    Spherical Harmonics?: true
    Max angular momentum: 4

  Minimum eigenvalue in the overlap matrix is 5.4793371471E-05.
  Using Symmetric Orthogonalization.

  SCF Guess: Superposition of Atomic Densities via on-the-fly atomic UHF.

  ==> Iterations <==

                           Total Energy        Delta E     RMS |[F,P]|

   @DF-RHF iter SAD: -1416.92125727492726   -1.41692e+03   0.00000e+00 
   @DF-RHF iter   1: -1416.94883122145461   -2.75739e-02   6.78682e-04 DIIS
   @DF-RHF iter   2: -1416.98307657075156   -3.42453e-02   4.47092e-04 DIIS
   @DF-RHF iter   3: -1417.00053146910682   -1.74549e-02   8.82048e-05 DIIS
   @DF-RHF iter   4: -1417.00213872523432   -1.60726e-03   2.63251e-05 DIIS
   @DF-RHF iter   5: -1417.00230666603397   -1.67941e-04   6.53152e-06 DIIS
   @DF-RHF iter   6: -1417.00231923330421   -1.25673e-05   1.44642e-06 DIIS
   @DF-RHF iter   7: -1417.00231974155736   -5.08253e-07   3.91254e-07 DIIS
   @DF-RHF iter   8: -1417.00231977639760   -3.48402e-08   1.07786e-07 DIIS
   @DF-RHF iter   9: -1417.00231977954763   -3.15003e-09   2.62543e-08 DIIS
   @DF-RHF iter  10: -1417.00231977981866   -2.71029e-10   8.12696e-09 DIIS
  Energy and wave function converged.


  ==> Post-Iterations <==

    Orbital Energies [Eh]
    ---------------------

    Doubly Occupied:                                                      

       1A   -104.866993     2A   -104.866940     3A   -104.866937  
       4A    -11.433975     5A    -10.591552     6A    -10.591507  
       7A    -10.591497     8A     -8.058372     9A     -8.058326  
      10A     -8.058323    11A     -8.056227    12A     -8.056179  
      13A     -8.056178    14A     -8.056175    15A     -8.056130  
      16A     -8.056127    17A     -1.245884    18A     -1.116632  
      19A     -1.116594    20A     -0.873210    21A     -0.682778  
      22A     -0.628734    23A     -0.628695    24A     -0.505072  
      25A     -0.505048    26A     -0.469162    27A     -0.469122  
      28A     -0.464125    29A     -0.451524  

    Virtual:                                                              

      30A      0.023273    31A      0.037320    32A      0.052794  
      33A      0.053340    34A      0.064704    35A      0.067813  
      36A      0.074426    37A      0.088613    38A      0.100972  
      39A      0.103476    40A      0.106783    41A      0.110345  
      42A      0.111988    43A      0.113022    44A      0.124654  
      45A      0.129007    46A      0.133665    47A      0.135819  
      48A      0.144905    49A      0.148441    50A      0.156303  
      51A      0.164359    52A      0.167720    53A      0.168805  
      54A      0.171391    55A      0.173904    56A      0.182550  
      57A      0.182827    58A      0.195736    59A      0.196902  
      60A      0.206306    61A      0.206540    62A      0.219561  
      63A      0.226206    64A      0.267168    65A      0.274996  
      66A      0.277980    67A      0.283390    68A      0.306426  
      69A      0.309870    70A      0.317424    71A      0.327294  
      72A      0.329334    73A      0.337951    74A      0.343879  
      75A      0.349012    76A      0.358631    77A      0.363506  
      78A      0.371939    79A      0.382994    80A      0.387043  
      81A      0.396096    82A      0.398906    83A      0.401031  
      84A      0.408010    85A      0.414106    86A      0.414526  
      87A      0.426184    88A      0.429390    89A      0.431751  
      90A      0.434137    91A      0.440665    92A      0.446170  
      93A      0.451072    94A      0.457822    95A      0.470278  
      96A      0.473715    97A      0.477601    98A      0.481602  
      99A      0.498418   100A      0.502668   101A      0.509426  
     102A      0.521912   103A      0.522256   104A      0.529211  
     105A      0.539528   106A      0.541370   107A      0.562460  
     108A      0.564394   109A      0.566200   110A      0.567809  
     111A      0.578763   112A      0.593169   113A      0.615757  
     114A      0.622126   115A      0.639631   116A      0.641527  
     117A      0.642483   118A      0.655535   119A      0.672313  
     120A      0.672789   121A      0.689293   122A      0.704095  
     123A      0.724847   124A      0.730558   125A      0.745316  
     126A      0.748863   127A      0.751370   128A      0.756868  
     129A      0.777712   130A      0.784043   131A      0.785959  
     132A      0.802621   133A      0.803879   134A      0.826697  
     135A      0.830805   136A      0.836919   137A      0.841905  
     138A      0.855327   139A      0.861172   140A      0.863274  
     141A      0.880011   142A      0.885139   143A      0.894488  
     144A      0.917309   145A      0.919955   146A      0.923097  
     147A      0.931765   148A      0.942604   149A      0.945877  
     150A      0.957854   151A      0.965611   152A      0.999359  
     153A      1.010081   154A      1.029140   155A      1.037183  
     156A      1.051935   157A      1.067269   158A      1.073064  
     159A      1.075309   160A      1.080652   161A      1.097199  
     162A      1.112434   163A      1.117982   164A      1.129825  
     165A      1.132573   166A      1.134222   167A      1.150359  
     168A      1.157637   169A      1.158653   170A      1.178150  
     171A      1.183621   172A      1.191970   173A      1.207190  
     174A      1.238875   175A      1.249617   176A      1.251852  
     177A      1.256028   178A      1.264732   179A      1.269896  
     180A      1.279731   181A      1.287411   182A      1.290348  
     183A      1.291096   184A      1.295686   185A      1.313988  
     186A      1.320489   187A      1.345602   188A      1.353712  
     189A      1.357045   190A      1.367617   191A      1.371447  
     192A      1.382065   193A      1.384509   194A      1.408082  
     195A      1.410474   196A      1.427087   197A      1.436711  
     198A      1.455531   199A      1.463306   200A      1.473773  
     201A      1.490115   202A      1.495876   203A      1.505446  
     204A      1.506741   205A      1.509288   206A      1.514133  
     207A      1.521993   208A      1.523829   209A      1.526448  
     210A      1.544538   211A      1.556398   212A      1.562582  
     213A      1.563374   214A      1.575546   215A      1.590324  
     216A      1.593120   217A      1.603858   218A      1.606591  
     219A      1.608402   220A      1.632832   221A      1.634618  
     222A      1.637074   223A      1.654486   224A      1.657417  
     225A      1.662221   226A      1.677505   227A      1.703232  
     228A      1.706230   229A      1.727905   230A      1.735582  
     231A      1.743492   232A      1.747748   233A      1.765399  
     234A      1.774553   235A      1.780741   236A      1.788958  
     237A      1.798424   238A      1.820515   239A      1.826752  
     240A      1.849969   241A      1.874845   242A      1.875269  
     243A      1.894558   244A      1.912525   245A      1.914254  
     246A      1.941880   247A      1.945635   248A      1.957010  
     249A      1.959719   250A      1.986061   251A      1.993384  
     252A      2.045625   253A      2.059300   254A      2.103214  
     255A      2.122942   256A      2.135689   257A      2.143344  
     258A      2.164535   259A      2.165813   260A      2.175935  
     261A      2.185850   262A      2.193447   263A      2.257686  
     264A      2.268709   265A      2.295250   266A      2.375032  
     267A      2.411329   268A      2.485451   269A      2.511312  
     270A      2.515664   271A      2.555269   272A      2.568908  
     273A      2.574140   274A      2.576090   275A      2.588218  
     276A      2.596120   277A      2.624680   278A      2.625976  
     279A      2.650040   280A      2.656453   281A      2.668255  
     282A      2.678916   283A      2.691993   284A      2.693992  
     285A      2.712869   286A      2.720185   287A      2.740729  
     288A      2.774299   289A      2.774854   290A      2.783583  
     291A      2.936415   292A      2.941437   293A      2.967480  
     294A      2.967809   295A      2.981531   296A      3.005444  
     297A      3.021752   298A      3.022381   299A      3.048723  
     300A      3.069549   301A      3.080324   302A      3.087103  
     303A      3.108661   304A      3.111348   305A      3.129330  
     306A      3.141591   307A      3.145560   308A      3.183769  
     309A      3.200276   310A      3.200527   311A      3.206620  
     312A      3.218109   313A      3.245474   314A      3.251160  
     315A      3.268801   316A      3.295401   317A      3.303933  
     318A      3.349723   319A      3.422879   320A      3.487867  
     321A      3.488895   322A      3.530054   323A      3.677731  
     324A      3.690515   325A      3.788760   326A      3.790073  
     327A      3.795785   328A      3.803521   329A      3.859775  
     330A      3.862997   331A      3.870876   332A      3.968394  
     333A      3.969703   334A      3.973166   335A      3.973419  
     336A      3.986952   337A      3.989690   338A      3.998354  
     339A      4.003177   340A      4.005556   341A      4.014488  
     342A      4.017660   343A      4.028360   344A      4.057120  
     345A      4.060540   346A      4.067920   347A      4.080392  
     348A      4.126343   349A      4.130714   350A      4.132494  
     351A      4.173550   352A      4.175129   353A      4.188913  
     354A      4.190706   355A      4.207810   356A      4.217404  
     357A      4.220550   358A      4.237754   359A      4.247324  
     360A      4.250930   361A      4.277011   362A      4.289271  
     363A      4.420590   364A      4.421856   365A      4.436854  
     366A      4.447807   367A      4.468512   368A      4.470360  
     369A      4.479975   370A      4.591764   371A      4.685989  
     372A      4.711701   373A      4.732636   374A      4.744162  
     375A      4.748357   376A      4.748750   377A      4.754799  
     378A      4.762396   379A      4.765328   380A      4.784242  
     381A      4.796569   382A      4.811192   383A      4.835477  
     384A      4.839290   385A      4.848462   386A      4.901014  
     387A      4.902938   388A      4.928209   389A      4.933427  
     390A      4.941991   391A      4.946385   392A      4.971808  
     393A      5.098702   394A      5.099321   395A      5.136791  
     396A      5.137573   397A      5.237139   398A      5.243399  
     399A      5.257898   400A      5.271650   401A      5.328474  
     402A      5.335524   403A      5.494276   404A      5.496191  
     405A      5.555519   406A      5.589844   407A      5.781593  
     408A      5.975028   409A      5.978992   410A      5.981662  
     411A      6.206669   412A      6.223231   413A      6.394684  
     414A      6.750189   415A      7.157542   416A      7.783746  
     417A      7.801252   418A      7.914165   419A      7.937164  
     420A      8.102575   421A      9.405683   422A     13.932242  
     423A     15.850164   424A     16.470933   425A     16.572886  
     426A     28.059544   427A     28.127496   428A     28.134421  
     429A     28.141441   430A     28.215246   431A     28.218214  
     432A     28.872879   433A     28.877053   434A     29.382016  
     435A     45.545930   436A    160.982440   437A    161.051995  
     438A    161.068916  

    Final Occupation by Irrep:
              A 
    DOCC [    29 ]

  @DF-RHF Final Energy: -1417.00231977981866

   => Energetics <=

    Nuclear Repulsion Energy =            264.4189648080304664
    One-Electron Energy =               -2483.8865391934614308
    Two-Electron Energy =                 802.4652546056120173
    Total Energy =                      -1417.0023197798188903

Computation Completed


Properties will be evaluated at  -0.000000,  -0.000000,   0.000000 [a0]

Properties computed using the SCF density matrix

  Nuclear Dipole Moment: [e a0]
     X:  -129.7192      Y:   296.2110      Z:   -46.3453

  Electronic Dipole Moment: [e a0]
     X:   129.7118      Y:  -296.2118      Z:    46.8141

  Dipole Moment: [e a0]
     X:    -0.0073      Y:    -0.0009      Z:     0.4688     Total:     0.4689

  Dipole Moment: [D]
     X:    -0.0186      Y:    -0.0022      Z:     1.1916     Total:     1.1917


*** tstop() called on node37.bme.utexas.edu at Tue Feb 22 19:16:43 2022
Module time:
	user time   =     114.20 seconds =       1.90 minutes
	system time =       6.63 seconds =       0.11 minutes
	total time  =         38 seconds =       0.63 minutes
Total time:
	user time   =     235.68 seconds =       3.93 minutes
	system time =      13.34 seconds =       0.22 minutes
	total time  =         80 seconds =       1.33 minutes

*** tstart() called on node37.bme.utexas.edu
*** at Tue Feb 22 19:16:43 2022


  //>>>>>>>>>>>>>>>>>>>>>>>>>>>>>>>>>>>//
  //               DFMP2               //
  //<<<<<<<<<<<<<<<<<<<<<<<<<<<<<<<<<<<//

   => Loading Basis Set <=

    Name: (AUG-CC-PVTZ AUX)
    Role: RIFIT
    Keyword: DF_BASIS_MP2
    atoms 1-3, 6-8 entry CL         line   742 file /home/bdw2292/miniconda3/envs/amoebamdpoltype/share/psi4/basis/aug-cc-pvtz-ri.gbs 
    atoms 4, 9     entry C          line   148 file /home/bdw2292/miniconda3/envs/amoebamdpoltype/share/psi4/basis/aug-cc-pvtz-ri.gbs 
    atoms 5, 10    entry H          line    30 file /home/bdw2292/miniconda3/envs/amoebamdpoltype/share/psi4/basis/aug-cc-pvtz-ri.gbs 

	 --------------------------------------------------------
	                          DF-MP2                         
	      2nd-Order Density-Fitted Moller-Plesset Theory     
	              RMP2 Wavefunction,   4 Threads             
	                                                         
	        Rob Parrish, Justin Turney, Andy Simmonett,      
	           Ed Hohenstein, and C. David Sherrill          
	 --------------------------------------------------------

   => Auxiliary Basis Set <=

  Basis Set: (AUG-CC-PVTZ AUX)
    Blend: AUG-CC-PVTZ-RI
    Number of shells: 306
    Number of basis function: 1186
    Number of Cartesian functions: 1528
    Spherical Harmonics?: true
    Max angular momentum: 4

	 --------------------------------------------------------
	                 NBF =   438, NAUX =  1186
	 --------------------------------------------------------
	   CLASS    FOCC     OCC    AOCC    AVIR     VIR    FVIR
	   PAIRS      16      29      13     409     409       0
	 --------------------------------------------------------

	-----------------------------------------------------------
	 ==================> DF-MP2 Energies <==================== 
	-----------------------------------------------------------
	 Reference Energy          =   -1417.0023197798186629 [Eh]
	 Singles Energy            =      -0.0000000000000000 [Eh]
	 Same-Spin Energy          =      -0.1911590516910114 [Eh]
	 Opposite-Spin Energy      =      -0.5652741980926227 [Eh]
	 Correlation Energy        =      -0.7564332497836341 [Eh]
	 Total Energy              =   -1417.7587530296023033 [Eh]
	-----------------------------------------------------------
	 ================> DF-SCS-MP2 Energies <================== 
	-----------------------------------------------------------
	 SCS Same-Spin Scale       =       0.3333333333333333 [-]
	 SCS Opposite-Spin Scale   =       1.2000000000000000 [-]
	 SCS Same-Spin Energy      =      -0.0637196838970038 [Eh]
	 SCS Opposite-Spin Energy  =      -0.6783290377111472 [Eh]
	 SCS Correlation Energy    =      -0.7420487216081509 [Eh]
	 SCS Total Energy          =   -1417.7443685014268340 [Eh]
	-----------------------------------------------------------


*** tstop() called on node37.bme.utexas.edu at Tue Feb 22 19:17:01 2022
Module time:
	user time   =      50.97 seconds =       0.85 minutes
	system time =       4.38 seconds =       0.07 minutes
	total time  =         18 seconds =       0.30 minutes
Total time:
	user time   =     286.65 seconds =       4.78 minutes
	system time =      17.72 seconds =       0.30 minutes
	total time  =         98 seconds =       1.63 minutes

  //>>>>>>>>>>>>>>>>>>>>>>>>>>>>>>>>>>>>//
  // CBS Computation: MP2 / AUG-CC-PVQZ //
  //<<<<<<<<<<<<<<<<<<<<<<<<<<<<<<<<<<<<//

    SCF Algorithm Type (re)set to DF.

*** tstart() called on node37.bme.utexas.edu
*** at Tue Feb 22 19:17:01 2022

   => Loading Basis Set <=

    Name: AUG-CC-PVQZ
    Role: ORBITAL
    Keyword: BASIS
    atoms 1-3, 6-8 entry CL         line  1218 file /home/bdw2292/miniconda3/envs/amoebamdpoltype/share/psi4/basis/aug-cc-pvqz.gbs 
    atoms 4, 9     entry C          line   299 file /home/bdw2292/miniconda3/envs/amoebamdpoltype/share/psi4/basis/aug-cc-pvqz.gbs 
    atoms 5, 10    entry H          line    36 file /home/bdw2292/miniconda3/envs/amoebamdpoltype/share/psi4/basis/aug-cc-pvqz.gbs 


         ---------------------------------------------------------
                                   SCF
               by Justin Turney, Rob Parrish, Andy Simmonett
                          and Daniel G. A. Smith
                              RHF Reference
                        4 Threads,  14305 MiB Core
         ---------------------------------------------------------

  ==> Geometry <==

    Molecular point group: c1
    Full point group: C1

    Geometry (in Angstrom), charge = 0, multiplicity = 1:

       Center              X                  Y                   Z               Mass       
    ------------   -----------------  -----------------  -----------------  -----------------
      Gh(CL)          0.504730741721    -1.186620752000     0.196249436130    34.968852682000
      Gh(CL)          2.851933441721    -2.867052652000     0.521666536130    34.968852682000
      Gh(CL)          0.210190541721    -4.069708152000     0.392701136130    34.968852682000
      Gh(C)           1.144691441721    -2.667092652000     0.899431236130    12.000000000000
      Gh(H)           1.054229641721    -2.584128852000     1.982445836130     1.007825032230
         CL          -1.853521658279     4.239990948000    -0.512216263870    34.968852682000
         CL           0.484278241721     2.515269148000    -0.480656963870    34.968852682000
         CL          -2.177506458279     1.353033548000    -0.524915063870    34.968852682000
         C           -1.190450058279     2.701475148000     0.026815036130    12.000000000000
         H           -1.206974558279     2.698252848000     1.116657436130     1.007825032230

  Running in c1 symmetry.

  Rotational constants: A =      0.05455  B =      0.00701  C =      0.00628 [cm^-1]
  Rotational constants: A =   1635.29196  B =    210.21463  C =    188.20921 [MHz]
  Nuclear repulsion =  264.418964808030466

  Charge       = 0
  Multiplicity = 1
  Electrons    = 58
  Nalpha       = 29
  Nbeta        = 29

  ==> Algorithm <==

  SCF Algorithm Type is DF.
  DIIS enabled.
  MOM disabled.
  Fractional occupation disabled.
  Guess Type is SAD.
  Energy threshold   = 1.00e-08
  Density threshold  = 1.00e-08
  Integral threshold = 0.00e+00

  ==> Primary Basis <==

  Basis Set: AUG-CC-PVQZ
    Blend: AUG-CC-PVQZ
    Number of shells: 200
    Number of basis function: 756
    Number of Cartesian functions: 974
    Spherical Harmonics?: true
    Max angular momentum: 4

   => Loading Basis Set <=

    Name: (AUG-CC-PVQZ AUX)
    Role: JKFIT
    Keyword: DF_BASIS_SCF
    atoms 1-3, 6-8 entry CL         line   904 file /home/bdw2292/miniconda3/envs/amoebamdpoltype/share/psi4/basis/aug-cc-pvqz-jkfit.gbs 
    atoms 4, 9     entry C          line   178 file /home/bdw2292/miniconda3/envs/amoebamdpoltype/share/psi4/basis/aug-cc-pvqz-jkfit.gbs 
    atoms 5, 10    entry H          line    70 file /home/bdw2292/miniconda3/envs/amoebamdpoltype/share/psi4/basis/aug-cc-pvqz-jkfit.gbs 

  ==> Pre-Iterations <==

   -------------------------------------------------------
    Irrep   Nso     Nmo     Nalpha   Nbeta   Ndocc  Nsocc
   -------------------------------------------------------
     A        756     756       0       0       0       0
   -------------------------------------------------------
    Total     756     756      29      29      29       0
   -------------------------------------------------------

  ==> Integral Setup <==

  DFHelper Memory: AOs need 5.489 GiB; user supplied 10.477 GiB. Using in-core AOs.

  ==> MemDFJK: Density-Fitted J/K Matrices <==

    J tasked:                   Yes
    K tasked:                   Yes
    wK tasked:                   No
    OpenMP threads:               4
    Memory [MiB]:             10728
    Algorithm:                 Disk
    Schwarz Cutoff:           1E-12
    Mask sparsity (%):      18.9685
    Fitting Condition:        1E-10

   => Auxiliary Basis Set <=

  Basis Set: (AUG-CC-PVQZ AUX)
    Blend: AUG-CC-PVQZ-JKFIT
    Number of shells: 380
    Number of basis function: 1540
    Number of Cartesian functions: 2080
    Spherical Harmonics?: true
    Max angular momentum: 5

  Minimum eigenvalue in the overlap matrix is 1.0587476797E-05.
  Using Symmetric Orthogonalization.

  SCF Guess: Superposition of Atomic Densities via on-the-fly atomic UHF.

  ==> Iterations <==

                           Total Energy        Delta E     RMS |[F,P]|

   @DF-RHF iter SAD: -1416.93079636281846   -1.41693e+03   0.00000e+00 
   @DF-RHF iter   1: -1416.96187271103622   -3.10763e-02   4.09623e-04 DIIS
   @DF-RHF iter   2: -1416.99652501444325   -3.46523e-02   2.64459e-04 DIIS
   @DF-RHF iter   3: -1417.01389108708327   -1.73661e-02   5.43684e-05 DIIS
   @DF-RHF iter   4: -1417.01556093789668   -1.66985e-03   1.70876e-05 DIIS
   @DF-RHF iter   5: -1417.01577177792251   -2.10840e-04   4.11383e-06 DIIS
   @DF-RHF iter   6: -1417.01578626441665   -1.44865e-05   9.02719e-07 DIIS
   @DF-RHF iter   7: -1417.01578684697688   -5.82560e-07   2.56190e-07 DIIS
   @DF-RHF iter   8: -1417.01578688911809   -4.21412e-08   7.16406e-08 DIIS
   @DF-RHF iter   9: -1417.01578689305370   -3.93561e-09   1.80995e-08 DIIS
   @DF-RHF iter  10: -1417.01578689341090   -3.57204e-10   5.57315e-09 DIIS
  Energy and wave function converged.


  ==> Post-Iterations <==

    Orbital Energies [Eh]
    ---------------------

    Doubly Occupied:                                                      

       1A   -104.864588     2A   -104.864562     3A   -104.864560  
       4A    -11.431674     5A    -10.590384     6A    -10.590363  
       7A    -10.590352     8A     -8.057414     9A     -8.057392  
      10A     -8.057388    11A     -8.055450    12A     -8.055426  
      13A     -8.055423    14A     -8.055397    15A     -8.055374  
      16A     -8.055370    17A     -1.244973    18A     -1.116016  
      19A     -1.115989    20A     -0.872805    21A     -0.682487  
      22A     -0.628602    23A     -0.628575    24A     -0.504852  
      25A     -0.504828    26A     -0.468940    27A     -0.468911  
      28A     -0.463893    29A     -0.451329  

    Virtual:                                                              

      30A      0.020864    31A      0.033702    32A      0.044792  
      33A      0.046376    34A      0.057175    35A      0.058100  
      36A      0.063237    37A      0.077365    38A      0.086663  
      39A      0.087487    40A      0.090679    41A      0.092765  
      42A      0.095287    43A      0.098077    44A      0.104255  
      45A      0.111392    46A      0.117509    47A      0.117600  
      48A      0.123458    49A      0.129109    50A      0.131590  
      51A      0.142414    52A      0.145214    53A      0.147607  
      54A      0.149112    55A      0.149259    56A      0.159888  
      57A      0.160009    58A      0.165433    59A      0.171621  
      60A      0.179336    61A      0.186464    62A      0.188250  
      63A      0.196779    64A      0.224208    65A      0.233209  
      66A      0.234280    67A      0.239308    68A      0.248826  
      69A      0.256990    70A      0.263062    71A      0.263492  
      72A      0.270956    73A      0.280048    74A      0.281000  
      75A      0.282276    76A      0.284130    77A      0.294457  
      78A      0.304245    79A      0.305633    80A      0.309074  
      81A      0.313316    82A      0.315631    83A      0.322762  
      84A      0.326149    85A      0.331827    86A      0.335694  
      87A      0.338665    88A      0.340460    89A      0.345273  
      90A      0.350459    91A      0.351167    92A      0.353323  
      93A      0.357974    94A      0.364571    95A      0.368222  
      96A      0.370927    97A      0.372512    98A      0.376578  
      99A      0.383931   100A      0.388548   101A      0.391154  
     102A      0.400784   103A      0.407588   104A      0.409420  
     105A      0.420385   106A      0.421820   107A      0.428742  
     108A      0.435131   109A      0.441032   110A      0.441402  
     111A      0.463616   112A      0.472351   113A      0.480065  
     114A      0.485303   115A      0.500059   116A      0.507316  
     117A      0.515410   118A      0.517402   119A      0.523409  
     120A      0.542809   121A      0.545275   122A      0.547893  
     123A      0.563177   124A      0.564948   125A      0.571097  
     126A      0.572727   127A      0.573469   128A      0.578427  
     129A      0.578666   130A      0.589843   131A      0.591249  
     132A      0.602164   133A      0.608559   134A      0.612857  
     135A      0.616750   136A      0.621086   137A      0.629941  
     138A      0.630429   139A      0.642333   140A      0.647039  
     141A      0.655661   142A      0.663073   143A      0.681217  
     144A      0.681384   145A      0.690264   146A      0.709889  
     147A      0.712805   148A      0.713057   149A      0.718919  
     150A      0.732756   151A      0.738377   152A      0.757119  
     153A      0.774472   154A      0.775050   155A      0.784356  
     156A      0.795228   157A      0.799300   158A      0.803064  
     159A      0.811661   160A      0.821602   161A      0.824007  
     162A      0.834050   163A      0.842193   164A      0.855775  
     165A      0.860889   166A      0.863989   167A      0.869092  
     168A      0.873338   169A      0.878419   170A      0.883657  
     171A      0.888818   172A      0.891809   173A      0.902347  
     174A      0.905942   175A      0.916139   176A      0.923990  
     177A      0.927714   178A      0.938104   179A      0.945911  
     180A      0.954270   181A      0.962247   182A      0.967915  
     183A      0.973537   184A      0.974366   185A      0.981208  
     186A      0.988202   187A      0.996216   188A      1.001242  
     189A      1.006649   190A      1.018460   191A      1.020538  
     192A      1.024686   193A      1.028014   194A      1.042427  
     195A      1.049090   196A      1.055455   197A      1.061459  
     198A      1.066196   199A      1.068142   200A      1.073234  
     201A      1.077048   202A      1.081202   203A      1.084465  
     204A      1.091581   205A      1.099586   206A      1.103576  
     207A      1.109366   208A      1.121134   209A      1.125962  
     210A      1.127389   211A      1.132276   212A      1.136227  
     213A      1.139362   214A      1.140155   215A      1.144404  
     216A      1.162579   217A      1.163702   218A      1.168870  
     219A      1.175754   220A      1.179890   221A      1.181151  
     222A      1.192423   223A      1.200534   224A      1.216443  
     225A      1.221318   226A      1.224923   227A      1.234088  
     228A      1.240651   229A      1.246554   230A      1.251116  
     231A      1.255165   232A      1.259499   233A      1.262715  
     234A      1.266521   235A      1.273881   236A      1.291098  
     237A      1.295344   238A      1.299869   239A      1.317350  
     240A      1.317570   241A      1.346722   242A      1.346968  
     243A      1.348877   244A      1.362288   245A      1.376942  
     246A      1.381198   247A      1.389737   248A      1.391628  
     249A      1.426552   250A      1.459392   251A      1.491894  
     252A      1.496175   253A      1.546941   254A      1.553752  
     255A      1.558707   256A      1.571472   257A      1.577845  
     258A      1.590038   259A      1.593602   260A      1.606391  
     261A      1.614445   262A      1.618324   263A      1.641563  
     264A      1.651677   265A      1.654432   266A      1.668594  
     267A      1.686928   268A      1.709982   269A      1.723034  
     270A      1.730247   271A      1.746074   272A      1.754505  
     273A      1.779692   274A      1.782230   275A      1.785646  
     276A      1.791073   277A      1.795164   278A      1.798706  
     279A      1.810094   280A      1.824009   281A      1.826162  
     282A      1.835850   283A      1.842013   284A      1.850533  
     285A      1.855474   286A      1.866484   287A      1.880108  
     288A      1.880579   289A      1.899060   290A      1.912640  
     291A      1.916286   292A      1.926160   293A      1.932566  
     294A      1.936489   295A      1.944026   296A      1.957374  
     297A      1.962980   298A      1.967340   299A      1.972349  
     300A      1.985700   301A      1.987391   302A      1.989294  
     303A      2.002736   304A      2.004387   305A      2.011889  
     306A      2.026164   307A      2.031257   308A      2.040192  
     309A      2.041033   310A      2.041570   311A      2.050049  
     312A      2.059177   313A      2.086546   314A      2.089900  
     315A      2.108523   316A      2.113689   317A      2.119451  
     318A      2.124530   319A      2.124862   320A      2.127001  
     321A      2.128188   322A      2.143252   323A      2.149716  
     324A      2.172080   325A      2.174588   326A      2.180333  
     327A      2.185621   328A      2.199618   329A      2.203639  
     330A      2.208665   331A      2.209009   332A      2.212215  
     333A      2.215315   334A      2.218398   335A      2.229204  
     336A      2.234177   337A      2.243898   338A      2.246673  
     339A      2.249418   340A      2.261861   341A      2.269022  
     342A      2.271005   343A      2.282699   344A      2.285674  
     345A      2.288469   346A      2.297380   347A      2.300069  
     348A      2.317566   349A      2.317829   350A      2.330301  
     351A      2.341175   352A      2.359074   353A      2.360676  
     354A      2.383140   355A      2.389652   356A      2.394512  
     357A      2.400072   358A      2.409018   359A      2.410231  
     360A      2.423198   361A      2.427246   362A      2.429814  
     363A      2.440897   364A      2.445680   365A      2.450966  
     366A      2.466849   367A      2.467989   368A      2.476078  
     369A      2.478544   370A      2.479838   371A      2.489980  
     372A      2.493160   373A      2.494815   374A      2.501963  
     375A      2.521911   376A      2.522138   377A      2.526009  
     378A      2.545255   379A      2.545750   380A      2.553544  
     381A      2.555735   382A      2.560608   383A      2.570187  
     384A      2.573510   385A      2.576599   386A      2.581727  
     387A      2.586252   388A      2.596315   389A      2.603321  
     390A      2.606982   391A      2.616322   392A      2.620381  
     393A      2.623966   394A      2.639009   395A      2.649120  
     396A      2.659432   397A      2.665468   398A      2.672101  
     399A      2.682971   400A      2.700971   401A      2.716797  
     402A      2.727759   403A      2.740457   404A      2.741388  
     405A      2.751790   406A      2.772417   407A      2.804138  
     408A      2.822215   409A      2.843541   410A      2.862559  
     411A      2.870798   412A      2.871898   413A      2.875550  
     414A      2.885983   415A      2.911073   416A      2.920204  
     417A      2.924151   418A      2.934979   419A      2.945937  
     420A      2.954364   421A      2.967122   422A      2.971591  
     423A      3.001304   424A      3.008329   425A      3.014468  
     426A      3.016279   427A      3.046265   428A      3.066519  
[...]
     293A      1.669376   294A      1.700346   295A      1.705866  
     296A      1.712610   297A      1.726120   298A      1.729249  
     299A      1.737876   300A      1.748929   301A      1.749907  
     302A      1.752925   303A      1.762022   304A      1.770986  
     305A      1.776293   306A      1.779520   307A      1.790343  
     308A      1.795395   309A      1.797688   310A      1.800179  
     311A      1.800538   312A      1.816797   313A      1.817693  
     314A      1.820598   315A      1.835214   316A      1.837383  
     317A      1.844602   318A      1.851117   319A      1.862450  
     320A      1.867359   321A      1.872673   322A      1.876555  
     323A      1.877425   324A      1.881947   325A      1.889550  
     326A      1.899201   327A      1.904695   328A      1.919803  
     329A      1.926316   330A      1.934882   331A      1.935931  
     332A      1.940211   333A      1.945783   334A      1.946846  
     335A      1.954598   336A      1.956560   337A      1.967141  
     338A      1.968165   339A      1.978478   340A      1.996776  
     341A      1.998616   342A      2.009674   343A      2.011776  
     344A      2.022596   345A      2.028703   346A      2.030818  
     347A      2.035853   348A      2.037433   349A      2.041201  
     350A      2.044496   351A      2.047651   352A      2.058426  
     353A      2.064383   354A      2.069014   355A      2.081373  
     356A      2.087656   357A      2.099209   358A      2.110106  
     359A      2.113584   360A      2.117064   361A      2.122696  
     362A      2.124973   363A      2.127678   364A      2.136243  
     365A      2.137388   366A      2.139253   367A      2.157782  
     368A      2.160495   369A      2.166870   370A      2.183395  
     371A      2.191264   372A      2.193004   373A      2.197421  
     374A      2.198956   375A      2.203476   376A      2.205326  
     377A      2.206910   378A      2.209808   379A      2.214412  
     380A      2.216737   381A      2.226826   382A      2.232448  
     383A      2.236123   384A      2.242590   385A      2.243682  
     386A      2.247107   387A      2.249692   388A      2.260512  
     389A      2.271365   390A      2.274127   391A      2.279152  
     392A      2.285633   393A      2.287321   394A      2.296092  
     395A      2.302084   396A      2.305333   397A      2.317573  
     398A      2.319465   399A      2.319994   400A      2.330042  
     401A      2.336898   402A      2.342627   403A      2.363488  
     404A      2.371463   405A      2.387183   406A      2.401802  
     407A      2.404816   408A      2.407288   409A      2.409565  
     410A      2.429603   411A      2.430622   412A      2.444664  
     413A      2.457028   414A      2.462623   415A      2.463712  
     416A      2.467325   417A      2.474042   418A      2.474860  
     419A      2.486024   420A      2.489843   421A      2.502275  
     422A      2.503076   423A      2.508696   424A      2.509447  
     425A      2.535674   426A      2.550666   427A      2.554626  
     428A      2.559071   429A      2.568801   430A      2.576300  
     431A      2.593420   432A      2.597064   433A      2.602253  
     434A      2.616895   435A      2.622825   436A      2.624164  
     437A      2.631515   438A      2.636055   439A      2.649896  
     440A      2.650653   441A      2.657694   442A      2.696006  
     443A      2.705234   444A      2.723461   445A      2.756242  
     446A      2.766954   447A      2.818524   448A      2.829542  
     449A      2.839077   450A      2.859985   451A      2.863730  
     452A      2.900689   453A      2.903119   454A      2.907530  
     455A      2.914796   456A      2.917794   457A      2.923852  
     458A      2.924954   459A      2.933734   460A      2.966095  
     461A      3.000765   462A      3.003846   463A      3.020243  
     464A      3.037370   465A      3.065766   466A      3.074373  
     467A      3.120103   468A      3.136905   469A      3.142891  
     470A      3.148843   471A      3.171169   472A      3.181582  
     473A      3.183461   474A      3.187827   475A      3.305569  
     476A      3.307544   477A      3.315779   478A      3.332890  
     479A      3.335855   480A      3.339413   481A      3.348594  
     482A      3.383664   483A      3.394105   484A      3.411665  
     485A      3.412408   486A      3.423122   487A      3.483796  
     488A      3.488837   489A      3.493945   490A      3.496700  
     491A      3.503863   492A      3.517183   493A      3.543246  
     494A      3.545031   495A      3.556091   496A      3.562486  
     497A      3.575227   498A      3.597804   499A      3.655342  
     500A      3.662149   501A      3.745077   502A      3.760843  
     503A      3.768341   504A      3.768549   505A      3.776660  
     506A      3.781233   507A      3.853181   508A      3.868260  
     509A      3.869534   510A      3.898732   511A      3.972978  
     512A      3.973022   513A      3.978977   514A      3.985131  
     515A      3.999905   516A      4.034251   517A      4.241529  
     518A      4.260768   519A      4.293790   520A      4.296271  
     521A      4.315816   522A      4.317677   523A      4.422837  
     524A      4.431041   525A      4.434537   526A      4.443444  
     527A      4.450834   528A      4.464979   529A      4.475187  
     530A      4.484015   531A      4.517311   532A      4.524317  
     533A      4.545080   534A      4.563939   535A      4.567668  
     536A      4.593155   537A      4.594890   538A      4.598127  
     539A      4.604847   540A      4.616455   541A      4.663739  
     542A      4.664246   543A      4.667323   544A      4.667618  
     545A      4.677093   546A      4.698375   547A      4.703176  
     548A      4.710297   549A      4.712330   550A      4.716906  
     551A      4.718779   552A      4.719117   553A      4.724501  
     554A      4.725751   555A      4.734775   556A      4.737197  
     557A      4.747071   558A      4.749786   559A      4.751704  
     560A      4.755246   561A      4.757745   562A      4.760835  
     563A      4.761925   564A      4.772526   565A      4.776495  
     566A      4.777742   567A      4.784228   568A      4.784991  
     569A      4.787138   570A      4.795443   571A      4.796448  
     572A      4.800918   573A      4.801506   574A      4.805041  
     575A      4.805889   576A      4.827385   577A      4.828950  
     578A      4.836535   579A      4.839637   580A      4.854147  
     581A      4.858425   582A      4.862613   583A      4.863898  
     584A      4.870335   585A      4.873384   586A      4.882475  
     587A      4.893936   588A      4.895935   589A      4.902101  
     590A      4.902645   591A      4.905334   592A      4.916502  
     593A      4.919654   594A      4.925009   595A      4.926933  
     596A      4.932053   597A      4.940427   598A      4.941347  
     599A      4.949895   600A      4.955319   601A      4.960855  
     602A      4.963369   603A      4.968206   604A      4.981017  
     605A      4.985806   606A      4.990573   607A      4.994526  
     608A      4.997417   609A      5.025559   610A      5.029991  
     611A      5.033522   612A      5.043593   613A      5.065304  
     614A      5.066528   615A      5.071907   616A      5.087268  
     617A      5.088217   618A      5.103108   619A      5.113549  
     620A      5.115133   621A      5.155216   622A      5.163018  
     623A      5.181373   624A      5.184527   625A      5.222271  
     626A      5.239941   627A      5.256421   628A      5.261168  
     629A      5.287915   630A      5.292768   631A      5.297759  
     632A      5.309816   633A      5.318549   634A      5.339645  
     635A      5.390669   636A      5.393121   637A      5.409316  
     638A      5.418920   639A      5.435716   640A      5.440128  
     641A      5.460786   642A      5.473809   643A      5.518259  
     644A      5.525286   645A      5.535170   646A      5.537439  
     647A      5.579913   648A      5.602980   649A      5.720593  
     650A      5.763638   651A      6.457189   652A      6.467028  
     653A      6.480404   654A      6.485160   655A      6.485730  
     656A      6.490697   657A      6.517826   658A      6.521531  
     659A      6.523926   660A      6.530472   661A      6.688664  
     662A      6.692542   663A      6.713504   664A      6.716463  
     665A      6.717894   666A      6.721610   667A      6.729486  
     668A      6.730401   669A      6.797490   670A      6.800157  
     671A      6.824281   672A      6.834793   673A      6.837411  
     674A      6.851306   675A      6.897922   676A      6.903178  
     677A      6.905191   678A      6.906455   679A      6.916241  
     680A      6.940627   681A      6.973008   682A      6.980747  
     683A      6.991893   684A      6.992216   685A      7.085439  
     686A      7.096919   687A      7.193926   688A      7.202837  
     689A      7.208135   690A      7.216029   691A      7.220679  
     692A      7.236438   693A      7.237438   694A      7.249937  
     695A      7.395643   696A      7.402529   697A      7.402782  
     698A      7.408566   699A      7.433109   700A      7.449645  
     701A      7.519759   702A      7.528542   703A      7.616693  
     704A      7.621239   705A      7.628001   706A      7.642827  
     707A      7.737203   708A      7.740162   709A      7.747854  
     710A      7.772773   711A      7.819239   712A      7.825793  
     713A      7.902681   714A      7.905928   715A      8.003920  
     716A      8.013050   717A      8.013803   718A      8.028739  
     719A      8.356426   720A      8.363140   721A      8.616152  
     722A      8.620799   723A      8.624706   724A      8.639341  
     725A      8.707759   726A      8.711760   727A      8.712822  
     728A      8.723319   729A      8.846469   730A      8.869620  
     731A      9.326527   732A      9.328421   733A      9.333060  
     734A      9.340051   735A      9.551802   736A      9.556441  
     737A      9.714845   738A      9.719173   739A      9.722251  
     740A      9.734191   741A     10.427976   742A     10.430345  
     743A     10.431644   744A     10.434047   745A     10.687500  
     746A     10.693670   747A     12.941085   748A     12.955290  
     749A     25.539843   750A     25.572906   751A     26.679933  
     752A     26.737769   753A     26.806079   754A     26.825726  
     755A     27.361955   756A     27.371521  

    Final Occupation by Irrep:
              A 
    DOCC [    58 ]

  @DF-RHF Final Energy: -2834.03029800290824

   => Energetics <=

    Nuclear Repulsion Energy =            837.2123080887804463
    One-Electron Energy =               -5584.7435086378327469
    Two-Electron Energy =                1913.5009025461438341
    Total Energy =                      -2834.0302980029082391

Computation Completed


Properties will be evaluated at  -0.000000,  -0.000000,   0.000000 [a0]

Properties computed using the SCF density matrix

  Nuclear Dipole Moment: [e a0]
     X:    -0.1616      Y:     0.1208      Z:     3.2781

  Electronic Dipole Moment: [e a0]
     X:     0.1019      Y:    -0.0531      Z:    -2.3756

  Dipole Moment: [e a0]
     X:    -0.0597      Y:     0.0677      Z:     0.9024     Total:     0.9069

  Dipole Moment: [D]
     X:    -0.1517      Y:     0.1722      Z:     2.2937     Total:     2.3052


*** tstop() called on node37.bme.utexas.edu at Tue Feb 22 19:30:58 2022
Module time:
	user time   =     535.15 seconds =       8.92 minutes
	system time =      82.27 seconds =       1.37 minutes
	total time  =        214 seconds =       3.57 minutes
Total time:
	user time   =    2422.07 seconds =      40.37 minutes
	system time =     310.28 seconds =       5.17 minutes
	total time  =        935 seconds =      15.58 minutes

*** tstart() called on node37.bme.utexas.edu
*** at Tue Feb 22 19:30:58 2022


  //>>>>>>>>>>>>>>>>>>>>>>>>>>>>>>>>>>>//
  //               DFMP2               //
  //<<<<<<<<<<<<<<<<<<<<<<<<<<<<<<<<<<<//

   => Loading Basis Set <=

    Name: (AUG-CC-PVQZ AUX)
    Role: RIFIT
    Keyword: DF_BASIS_MP2
    atoms 1-3, 6-8 entry CL         line   914 file /home/bdw2292/miniconda3/envs/amoebamdpoltype/share/psi4/basis/aug-cc-pvqz-ri.gbs 
    atoms 4, 9     entry C          line   184 file /home/bdw2292/miniconda3/envs/amoebamdpoltype/share/psi4/basis/aug-cc-pvqz-ri.gbs 
    atoms 5, 10    entry H          line    30 file /home/bdw2292/miniconda3/envs/amoebamdpoltype/share/psi4/basis/aug-cc-pvqz-ri.gbs 

	 --------------------------------------------------------
	                          DF-MP2                         
	      2nd-Order Density-Fitted Moller-Plesset Theory     
	              RMP2 Wavefunction,   4 Threads             
	                                                         
	        Rob Parrish, Justin Turney, Andy Simmonett,      
	           Ed Hohenstein, and C. David Sherrill          
	 --------------------------------------------------------

   => Auxiliary Basis Set <=

  Basis Set: (AUG-CC-PVQZ AUX)
    Blend: AUG-CC-PVQZ-RI
    Number of shells: 376
    Number of basis function: 1660
    Number of Cartesian functions: 2292
    Spherical Harmonics?: true
    Max angular momentum: 5

	 --------------------------------------------------------
	                 NBF =   756, NAUX =  1660
	 --------------------------------------------------------
	   CLASS    FOCC     OCC    AOCC    AVIR     VIR    FVIR
	   PAIRS      32      58      26     698     698       0
	 --------------------------------------------------------

	-----------------------------------------------------------
	 ==================> DF-MP2 Energies <==================== 
	-----------------------------------------------------------
	 Reference Energy          =   -2834.0302980029082391 [Eh]
	 Singles Energy            =      -0.0000000000000000 [Eh]
	 Same-Spin Energy          =      -0.3964545594696077 [Eh]
	 Opposite-Spin Energy      =      -1.2383254054140573 [Eh]
	 Correlation Energy        =      -1.6347799648836649 [Eh]
	 Total Energy              =   -2835.6650779677920582 [Eh]
	-----------------------------------------------------------
	 ================> DF-SCS-MP2 Energies <================== 
	-----------------------------------------------------------
	 SCS Same-Spin Scale       =       0.3333333333333333 [-]
	 SCS Opposite-Spin Scale   =       1.2000000000000000 [-]
	 SCS Same-Spin Energy      =      -0.1321515198232026 [Eh]
	 SCS Opposite-Spin Energy  =      -1.4859904864968687 [Eh]
	 SCS Correlation Energy    =      -1.6181420063200713 [Eh]
	 SCS Total Energy          =   -2835.6484400092281248 [Eh]
	-----------------------------------------------------------


*** tstop() called on node37.bme.utexas.edu at Tue Feb 22 19:31:53 2022
Module time:
	user time   =     162.25 seconds =       2.70 minutes
	system time =       7.68 seconds =       0.13 minutes
	total time  =         55 seconds =       0.92 minutes
Total time:
	user time   =    2584.32 seconds =      43.07 minutes
	system time =     317.96 seconds =       5.30 minutes
	total time  =        990 seconds =      16.50 minutes

  //>>>>>>>>>>>>>>>>>>>>>>>>>>>>>>>>>>>//
  //  CBS Results: mp2/aug-cc-pV[TQ]Z  //
  //<<<<<<<<<<<<<<<<<<<<<<<<<<<<<<<<<<<//


   ==> HF <==

   HI-zeta (4) Energy:               -2834.030298002908


   ==> Helgaker 2-point correlated extrapolation for method: MP2 <==

   LO-zeta (3) Energy:               -2835.519752748382
   HI-zeta (4) Energy:               -2835.665077967792
   Alpha (exponent) Value:             3.000000000000
   Extrapolated Energy:              -2835.771126100875

   @Extrapolated MP2/(T,Q):          -2835.771126100875



   ==> Helgaker 2-point correlated extrapolation for method: HF <==

   LO-zeta (3) Energy:               -2834.003345066794
   HI-zeta (4) Energy:               -2834.030298002908
   Alpha (exponent) Value:             3.000000000000
   Extrapolated Energy:              -2834.049966361694

   @Extrapolated HF/(T,Q):           -2834.049966361694


   ==> Components <==

  ---------------------------------------------------------------------------------------------------------
                          Method / Basis                      Rqd      Energy [Eh]   Variable
  ---------------------------------------------------------------------------------------------------------
                              hf / aug-cc-pvtz                  *   -2834.00334507   HF TOTAL ENERGY
                             mp2 / aug-cc-pvtz                  *   -2835.51975275   MP2 TOTAL ENERGY
                              hf / aug-cc-pvqz                  *   -2834.03029800   HF TOTAL ENERGY
                             mp2 / aug-cc-pvqz                  *   -2835.66507797   MP2 TOTAL ENERGY
  ---------------------------------------------------------------------------------------------------------

   ==> Stages <==

  ---------------------------------------------------------------------------------------------------------
      Stage               Method / Basis                       Wt      Energy [Eh]   Scheme
  ---------------------------------------------------------------------------------------------------------
        scf                   hf / aug-cc-pvqz                  1   -2834.03029800   xtpl_highest_1
       corl                  mp2 / aug-cc-pv[tq]z               1   -2835.77112610   corl_xtpl_helgaker_2
       corl                   hf / aug-cc-pv[tq]z              -1   -2834.04996636   corl_xtpl_helgaker_2
  ---------------------------------------------------------------------------------------------------------

   ==> CBS <==

  ---------------------------------------------------------------------------------------------------------
      Stage               Method / Basis                               Energy [Eh]   Scheme
  ---------------------------------------------------------------------------------------------------------
        scf                   hf / aug-cc-pvqz                      -2834.03029800   xtpl_highest_1
       corl                  mp2 / aug-cc-pv[tq]z                      -1.72115974   corl_xtpl_helgaker_2
      total                  CBS                                    -2835.75145774   
  ---------------------------------------------------------------------------------------------------------
   => Loading Basis Set <=

    Name: DEF2-SVP
    Role: ORBITAL
    Keyword: BASIS
    atoms 1-3, 6-8 entry CL         line   356 file /home/bdw2292/miniconda3/envs/amoebamdpoltype/share/psi4/basis/def2-svp.gbs 
    atoms 4, 9     entry C          line    90 file /home/bdw2292/miniconda3/envs/amoebamdpoltype/share/psi4/basis/def2-svp.gbs 
    atoms 5, 10    entry H          line    15 file /home/bdw2292/miniconda3/envs/amoebamdpoltype/share/psi4/basis/def2-svp.gbs 


       N-Body: Complex Energy (fragments = (1, 2), basis = (1, 2): -2835.75145774208931)

   ==> N-Body: Counterpoise Corrected (CP) energies <==

   n-Body     Total Energy [Eh]       I.E. [kcal/mol]      Delta [kcal/mol]
        1    -2835.748840633238        0.000000000000        0.000000000000
        2    -2835.751392785438       -1.601499683877       -1.601499683877

   => Loading Basis Set <=

    Name: DEF2-SVP
    Role: ORBITAL
    Keyword: BASIS
    atoms 1-3, 6-8 entry CL         line   356 file /home/bdw2292/miniconda3/envs/amoebamdpoltype/share/psi4/basis/def2-svp.gbs 
    atoms 4, 9     entry C          line    90 file /home/bdw2292/miniconda3/envs/amoebamdpoltype/share/psi4/basis/def2-svp.gbs 
    atoms 5, 10    entry H          line    15 file /home/bdw2292/miniconda3/envs/amoebamdpoltype/share/psi4/basis/def2-svp.gbs 

CP Energy =  -0.002552
    Psi4 stopped on: Tuesday, 22 February 2022 07:31PM
    Psi4 wall time for execution: 0:16:31.64

*** Psi4 exiting successfully. Buy a developer a beer!
