
    -----------------------------------------------------------------------
          Psi4: An Open-Source Ab Initio Electronic Structure Package
                               Psi4 1.3.2 release

                         Git: Rev {HEAD} ecbda83 


    R. M. Parrish, L. A. Burns, D. G. A. Smith, A. C. Simmonett,
    A. E. DePrince III, E. G. Hohenstein, U. Bozkaya, A. Yu. Sokolov,
    R. Di Remigio, R. M. Richard, J. F. Gonthier, A. M. James,
    H. R. McAlexander, A. Kumar, M. Saitow, X. Wang, B. P. Pritchard,
    P. Verma, H. F. Schaefer III, K. Patkowski, R. A. King, E. F. Valeev,
    F. A. Evangelista, J. M. Turney, T. D. Crawford, and C. D. Sherrill,
    J. Chem. Theory Comput. 13(7) pp 3185--3197 (2017).
    (doi: 10.1021/acs.jctc.7b00174)


                         Additional Contributions by
    P. Kraus, H. Kruse, M. H. Lechner, M. C. Schieber, R. A. Shaw,
    A. Alenaizan, R. Galvelis, Z. L. Glick, S. Lehtola, and J. P. Misiewicz

    -----------------------------------------------------------------------


    Psi4 started on: Tuesday, 22 February 2022 06:45PM

    Process ID: 34404
    Host:       node37.bme.utexas.edu
    PSIDATADIR: /home/bdw2292/miniconda3/envs/amoebamdpoltype/share/psi4
    Memory:     500.0 MiB
    Threads:    1
    
  ==> Input File <==

--------------------------------------------------------------------------
molecule { 
0 1
 Cl                 -0.3305712     1.3344966     0.3964185
 Cl                  1.9152338    -0.4658238     0.0056181
 Cl                 -0.8039666    -1.4804745    -0.1359058
  C                  0.2708983    -0.3046174     0.6122043
  H                  0.2919728    -0.5092524     1.6825174
--
0 1
  O                 -3.3333303     4.4635610    -1.1619064
  H                 -4.0098273     3.7875209    -1.2093004
  H                 -2.9480676     4.5665019    -2.0323361
}
memory 15GB
set_num_threads(4)
psi4_io.set_default_path("/scratch/bdw2292/Psi4-CHCl3")
set maxiter 500
set freeze_core True
set PROPERTIES_ORIGIN ["COM"]
e_dim= energy('mp2/aug-cc-pV[TQ]Z',bsse_type='cp')

psi4.print_out('CP Energy = %10.6f' % (e_dim))
clean()
--------------------------------------------------------------------------

  Memory set to  13.970 GiB by Python driver.
  Threads set to 4 by Python driver.


   ===> N-Body Interaction Abacus <===
        BSSE Treatment:                     cp
        Number of 1-body computations:     4
        Number of 2-body computations:     1

   ==> N-Body: Now computing 1-body complexes <==


       N-Body: Computing complex (1/4) with fragments (2,) in the basis of fragments (2,).


  //>>>>>>>>>>>>>>>>>>>>>>>>>>>>>>>>>>>//
  //   CBS Setup: mp2/aug-cc-pV[TQ]Z   //
  //<<<<<<<<<<<<<<<<<<<<<<<<<<<<<<<<<<<//

    Naive listing of computations required.
             hf / aug-cc-pvqz              for  HF TOTAL ENERGY
            mp2 / aug-cc-pvtz              for  MP2 TOTAL ENERGY
            mp2 / aug-cc-pvqz              for  MP2 TOTAL ENERGY
             hf / aug-cc-pvtz              for  HF TOTAL ENERGY
             hf / aug-cc-pvqz              for  HF TOTAL ENERGY

    Enlightened listing of computations required.
            mp2 / aug-cc-pvtz              for  MP2 TOTAL ENERGY
            mp2 / aug-cc-pvqz              for  MP2 TOTAL ENERGY

    Full listing of computations to be obtained (required and bonus).
             hf / aug-cc-pvtz              for  HF TOTAL ENERGY
            mp2 / aug-cc-pvtz              for  MP2 TOTAL ENERGY
             hf / aug-cc-pvqz              for  HF TOTAL ENERGY
            mp2 / aug-cc-pvqz              for  MP2 TOTAL ENERGY

  //>>>>>>>>>>>>>>>>>>>>>>>>>>>>>>>>>>>>//
  // CBS Computation: MP2 / AUG-CC-PVTZ //
  //<<<<<<<<<<<<<<<<<<<<<<<<<<<<<<<<<<<<//

    SCF Algorithm Type (re)set to DF.

*** tstart() called on node37.bme.utexas.edu
*** at Tue Feb 22 18:45:58 2022

   => Loading Basis Set <=

    Name: AUG-CC-PVTZ
    Role: ORBITAL
    Keyword: BASIS
    atoms 1   entry O          line   327 file /home/bdw2292/miniconda3/envs/amoebamdpoltype/share/psi4/basis/aug-cc-pvtz.gbs 
    atoms 2-3 entry H          line    36 file /home/bdw2292/miniconda3/envs/amoebamdpoltype/share/psi4/basis/aug-cc-pvtz.gbs 


         ---------------------------------------------------------
                                   SCF
               by Justin Turney, Rob Parrish, Andy Simmonett
                          and Daniel G. A. Smith
                              RHF Reference
                        4 Threads,  14305 MiB Core
         ---------------------------------------------------------

  ==> Geometry <==

    Molecular point group: c1
    Full point group: C1

    Geometry (in Angstrom), charge = 0, multiplicity = 1:

       Center              X                  Y                   Z               Mass       
    ------------   -----------------  -----------------  -----------------  -----------------
         O           -3.116419466672     4.064436176701    -1.136133555210    15.994914619570
         H           -3.792916466672     3.388396076701    -1.183527555210     1.007825032230
         H           -2.731156766672     4.167377076701    -2.006563255210     1.007825032230

  Running in c1 symmetry.

  Rotational constants: A =      9.55626  B =      0.03402  C =      0.03397 [cm^-1]
  Rotational constants: A = 286489.42441  B =   1019.78022  C =   1018.45809 [MHz]
  Nuclear repulsion =    9.183450872391733

  Charge       = 0
  Multiplicity = 1
  Electrons    = 10
  Nalpha       = 5
  Nbeta        = 5

  ==> Algorithm <==

  SCF Algorithm Type is DF.
  DIIS enabled.
  MOM disabled.
  Fractional occupation disabled.
  Guess Type is SAD.
  Energy threshold   = 1.00e-08
  Density threshold  = 1.00e-08
  Integral threshold = 0.00e+00

  ==> Primary Basis <==

  Basis Set: AUG-CC-PVTZ
    Blend: AUG-CC-PVTZ
    Number of shells: 32
    Number of basis function: 92
    Number of Cartesian functions: 105
    Spherical Harmonics?: true
    Max angular momentum: 3

   => Loading Basis Set <=

    Name: (AUG-CC-PVTZ AUX)
    Role: JKFIT
    Keyword: DF_BASIS_SCF
    atoms 1   entry O          line   286 file /home/bdw2292/miniconda3/envs/amoebamdpoltype/share/psi4/basis/aug-cc-pvtz-jkfit.gbs 
    atoms 2-3 entry H          line    70 file /home/bdw2292/miniconda3/envs/amoebamdpoltype/share/psi4/basis/aug-cc-pvtz-jkfit.gbs 

  ==> Pre-Iterations <==

   -------------------------------------------------------
    Irrep   Nso     Nmo     Nalpha   Nbeta   Ndocc  Nsocc
   -------------------------------------------------------
     A         92      92       0       0       0       0
   -------------------------------------------------------
    Total      92      92       5       5       5       0
   -------------------------------------------------------

  ==> Integral Setup <==

  DFHelper Memory: AOs need 0.015 GiB; user supplied 10.477 GiB. Using in-core AOs.

  ==> MemDFJK: Density-Fitted J/K Matrices <==

    J tasked:                   Yes
    K tasked:                   Yes
    wK tasked:                   No
    OpenMP threads:               4
    Memory [MiB]:             10728
    Algorithm:                 Core
    Schwarz Cutoff:           1E-12
    Mask sparsity (%):       0.0000
    Fitting Condition:        1E-10

   => Auxiliary Basis Set <=

  Basis Set: (AUG-CC-PVTZ AUX)
    Blend: AUG-CC-PVTZ-JKFIT
    Number of shells: 58
    Number of basis function: 196
    Number of Cartesian functions: 241
    Spherical Harmonics?: true
    Max angular momentum: 4

  Minimum eigenvalue in the overlap matrix is 3.7735682470E-04.
  Using Symmetric Orthogonalization.

  SCF Guess: Superposition of Atomic Densities via on-the-fly atomic UHF.

  ==> Iterations <==

                           Total Energy        Delta E     RMS |[F,P]|

   @DF-RHF iter SAD:   -75.47397110948344   -7.54740e+01   0.00000e+00 
   @DF-RHF iter   1:   -75.97658548409714   -5.02614e-01   5.09404e-03 DIIS
   @DF-RHF iter   2:   -76.02900222822943   -5.24167e-02   3.45205e-03 DIIS
   @DF-RHF iter   3:   -76.06002793312314   -3.10257e-02   2.34432e-04 DIIS
   @DF-RHF iter   4:   -76.06041758393440   -3.89651e-04   5.59732e-05 DIIS
   @DF-RHF iter   5:   -76.06044153230513   -2.39484e-05   1.26003e-05 DIIS
   @DF-RHF iter   6:   -76.06044348800221   -1.95570e-06   2.80424e-06 DIIS
   @DF-RHF iter   7:   -76.06044359577943   -1.07777e-07   5.29931e-07 DIIS
   @DF-RHF iter   8:   -76.06044359919443   -3.41500e-09   8.79009e-08 DIIS
   @DF-RHF iter   9:   -76.06044359926854   -7.41096e-11   2.18450e-08 DIIS
   @DF-RHF iter  10:   -76.06044359927253   -3.99325e-12   2.97904e-09 DIIS
  Energy and wave function converged.


  ==> Post-Iterations <==

    Orbital Energies [Eh]
    ---------------------

    Doubly Occupied:                                                      

       1A    -20.565509     2A     -1.350743     3A     -0.725013  
       4A     -0.577380     5A     -0.509191  

    Virtual:                                                              

       6A      0.029669     7A      0.047446     8A      0.136477  
       9A      0.157868    10A      0.174277    11A      0.182043  
      12A      0.228835    13A      0.244463    14A      0.263858  
      15A      0.304690    16A      0.313200    17A      0.365233  
      18A      0.437957    19A      0.466798    20A      0.602216  
      21A      0.654299    22A      0.711121    23A      0.719314  
      24A      0.731256    25A      0.828039    26A      0.843778  
      27A      0.890012    28A      0.912906    29A      0.920661  
      30A      0.923870    31A      0.927954    32A      0.971242  
      33A      1.022998    34A      1.045320    35A      1.085144  
      36A      1.114093    37A      1.172778    38A      1.177406  
      39A      1.259590    40A      1.514453    41A      1.563408  
      42A      1.595873    43A      1.785333    44A      1.797207  
      45A      2.003407    46A      2.115941    47A      2.259690  
      48A      2.318633    49A      2.321012    50A      2.413389  
      51A      2.414551    52A      2.438576    53A      2.471489  
      54A      2.686760    55A      2.703161    56A      2.768089  
      57A      2.856996    58A      2.883887    59A      3.645371  
      60A      3.769761    61A      4.007399    62A      4.090236  
      63A      4.211589    64A      4.231432    65A      4.335706  
      66A      4.381908    67A      4.400810    68A      4.416311  
      69A      4.493522    70A      4.707837    71A      4.812959  
      72A      5.124840    73A      5.172735    74A      5.306057  
      75A      5.330559    76A      5.513629    77A      5.721479  
      78A      6.140105    79A      6.534355    80A      6.713406  
      81A      6.859095    82A      7.146363    83A      7.262743  
      84A      7.299002    85A      7.308108    86A      7.371006  
      87A      7.387854    88A      7.558688    89A      7.897859  
      90A      7.964020    91A      8.789637    92A     15.861222  

    Final Occupation by Irrep:
              A 
    DOCC [     5 ]

  @DF-RHF Final Energy:   -76.06044359927253

   => Energetics <=

    Nuclear Repulsion Energy =              9.1834508723917327
    One-Electron Energy =                -123.0321170794178443
    Two-Electron Energy =                  37.7882226077535890
    Total Energy =                        -76.0604435992725314

Computation Completed


Properties will be evaluated at  -5.919976,   7.620069,  -2.244036 [a0]

Properties computed using the SCF density matrix

  Nuclear Dipole Moment: [e a0]
     X:    -0.2424      Y:    -0.4770      Z:    -0.7639

  Electronic Dipole Moment: [e a0]
     X:     0.0463      Y:     0.0911      Z:     0.1458

  Dipole Moment: [e a0]
     X:    -0.1961      Y:    -0.3859      Z:    -0.6181     Total:     0.7546

  Dipole Moment: [D]
     X:    -0.4985      Y:    -0.9809      Z:    -1.5710     Total:     1.9180


*** tstop() called on node37.bme.utexas.edu at Tue Feb 22 18:46:03 2022
Module time:
	user time   =       5.61 seconds =       0.09 minutes
	system time =       0.45 seconds =       0.01 minutes
	total time  =          5 seconds =       0.08 minutes
Total time:
	user time   =       5.61 seconds =       0.09 minutes
	system time =       0.45 seconds =       0.01 minutes
	total time  =          5 seconds =       0.08 minutes

*** tstart() called on node37.bme.utexas.edu
*** at Tue Feb 22 18:46:03 2022


  //>>>>>>>>>>>>>>>>>>>>>>>>>>>>>>>>>>>//
  //               DFMP2               //
  //<<<<<<<<<<<<<<<<<<<<<<<<<<<<<<<<<<<//

   => Loading Basis Set <=

    Name: (AUG-CC-PVTZ AUX)
    Role: RIFIT
    Keyword: DF_BASIS_MP2
    atoms 1   entry O          line   264 file /home/bdw2292/miniconda3/envs/amoebamdpoltype/share/psi4/basis/aug-cc-pvtz-ri.gbs 
    atoms 2-3 entry H          line    30 file /home/bdw2292/miniconda3/envs/amoebamdpoltype/share/psi4/basis/aug-cc-pvtz-ri.gbs 

	 --------------------------------------------------------
	                          DF-MP2                         
	      2nd-Order Density-Fitted Moller-Plesset Theory     
	              RMP2 Wavefunction,   4 Threads             
	                                                         
	        Rob Parrish, Justin Turney, Andy Simmonett,      
	           Ed Hohenstein, and C. David Sherrill          
	 --------------------------------------------------------

   => Auxiliary Basis Set <=

  Basis Set: (AUG-CC-PVTZ AUX)
    Blend: AUG-CC-PVTZ-RI
    Number of shells: 56
    Number of basis function: 198
    Number of Cartesian functions: 246
    Spherical Harmonics?: true
    Max angular momentum: 4

	 --------------------------------------------------------
	                 NBF =    92, NAUX =   198
	 --------------------------------------------------------
	   CLASS    FOCC     OCC    AOCC    AVIR     VIR    FVIR
	   PAIRS       1       5       4      87      87       0
	 --------------------------------------------------------

	-----------------------------------------------------------
	 ==================> DF-MP2 Energies <==================== 
	-----------------------------------------------------------
	 Reference Energy          =     -76.0604435992725314 [Eh]
	 Singles Energy            =      -0.0000000000000000 [Eh]
	 Same-Spin Energy          =      -0.0650941316591211 [Eh]
	 Opposite-Spin Energy      =      -0.2029755230947777 [Eh]
	 Correlation Energy        =      -0.2680696547538989 [Eh]
	 Total Energy              =     -76.3285132540264328 [Eh]
	-----------------------------------------------------------
	 ================> DF-SCS-MP2 Energies <================== 
	-----------------------------------------------------------
	 SCS Same-Spin Scale       =       0.3333333333333333 [-]
	 SCS Opposite-Spin Scale   =       1.2000000000000000 [-]
	 SCS Same-Spin Energy      =      -0.0216980438863737 [Eh]
	 SCS Opposite-Spin Energy  =      -0.2435706277137333 [Eh]
	 SCS Correlation Energy    =      -0.2652686716001070 [Eh]
	 SCS Total Energy          =     -76.3257122708726428 [Eh]
	-----------------------------------------------------------


*** tstop() called on node37.bme.utexas.edu at Tue Feb 22 18:46:03 2022
Module time:
	user time   =       1.70 seconds =       0.03 minutes
	system time =       0.14 seconds =       0.00 minutes
	total time  =          0 seconds =       0.00 minutes
Total time:
	user time   =       7.32 seconds =       0.12 minutes
	system time =       0.59 seconds =       0.01 minutes
	total time  =          5 seconds =       0.08 minutes

  //>>>>>>>>>>>>>>>>>>>>>>>>>>>>>>>>>>>>//
  // CBS Computation: MP2 / AUG-CC-PVQZ //
  //<<<<<<<<<<<<<<<<<<<<<<<<<<<<<<<<<<<<//

    SCF Algorithm Type (re)set to DF.

*** tstart() called on node37.bme.utexas.edu
*** at Tue Feb 22 18:46:03 2022

   => Loading Basis Set <=

    Name: AUG-CC-PVQZ
    Role: ORBITAL
    Keyword: BASIS
    atoms 1   entry O          line   419 file /home/bdw2292/miniconda3/envs/amoebamdpoltype/share/psi4/basis/aug-cc-pvqz.gbs 
    atoms 2-3 entry H          line    36 file /home/bdw2292/miniconda3/envs/amoebamdpoltype/share/psi4/basis/aug-cc-pvqz.gbs 


         ---------------------------------------------------------
                                   SCF
               by Justin Turney, Rob Parrish, Andy Simmonett
                          and Daniel G. A. Smith
                              RHF Reference
                        4 Threads,  14305 MiB Core
         ---------------------------------------------------------

  ==> Geometry <==

    Molecular point group: c1
    Full point group: C1

    Geometry (in Angstrom), charge = 0, multiplicity = 1:

       Center              X                  Y                   Z               Mass       
    ------------   -----------------  -----------------  -----------------  -----------------
         O           -3.116419466672     4.064436176701    -1.136133555210    15.994914619570
         H           -3.792916466672     3.388396076701    -1.183527555210     1.007825032230
         H           -2.731156766672     4.167377076701    -2.006563255210     1.007825032230

  Running in c1 symmetry.

  Rotational constants: A =      9.55626  B =      0.03402  C =      0.03397 [cm^-1]
  Rotational constants: A = 286489.42441  B =   1019.78022  C =   1018.45809 [MHz]
  Nuclear repulsion =    9.183450872391733

  Charge       = 0
  Multiplicity = 1
  Electrons    = 10
  Nalpha       = 5
  Nbeta        = 5

  ==> Algorithm <==

  SCF Algorithm Type is DF.
  DIIS enabled.
  MOM disabled.
  Fractional occupation disabled.
  Guess Type is SAD.
  Energy threshold   = 1.00e-08
  Density threshold  = 1.00e-08
  Integral threshold = 0.00e+00

  ==> Primary Basis <==

  Basis Set: AUG-CC-PVQZ
    Blend: AUG-CC-PVQZ
    Number of shells: 48
    Number of basis function: 172
    Number of Cartesian functions: 215
    Spherical Harmonics?: true
    Max angular momentum: 4

   => Loading Basis Set <=

    Name: (AUG-CC-PVQZ AUX)
    Role: JKFIT
    Keyword: DF_BASIS_SCF
    atoms 1   entry O          line   318 file /home/bdw2292/miniconda3/envs/amoebamdpoltype/share/psi4/basis/aug-cc-pvqz-jkfit.gbs 
    atoms 2-3 entry H          line    70 file /home/bdw2292/miniconda3/envs/amoebamdpoltype/share/psi4/basis/aug-cc-pvqz-jkfit.gbs 

  ==> Pre-Iterations <==

   -------------------------------------------------------
    Irrep   Nso     Nmo     Nalpha   Nbeta   Ndocc  Nsocc
   -------------------------------------------------------
     A        172     172       0       0       0       0
   -------------------------------------------------------
    Total     172     172       5       5       5       0
   -------------------------------------------------------

  ==> Integral Setup <==

  DFHelper Memory: AOs need 0.074 GiB; user supplied 10.477 GiB. Using in-core AOs.

  ==> MemDFJK: Density-Fitted J/K Matrices <==

    J tasked:                   Yes
    K tasked:                   Yes
    wK tasked:                   No
    OpenMP threads:               4
    Memory [MiB]:             10728
    Algorithm:                 Core
    Schwarz Cutoff:           1E-12
    Mask sparsity (%):       0.0000
    Fitting Condition:        1E-10

   => Auxiliary Basis Set <=

  Basis Set: (AUG-CC-PVQZ AUX)
    Blend: AUG-CC-PVQZ-JKFIT
    Number of shells: 70
    Number of basis function: 294
    Number of Cartesian functions: 400
    Spherical Harmonics?: true
    Max angular momentum: 5

  Minimum eigenvalue in the overlap matrix is 8.5390282606E-05.
  Using Symmetric Orthogonalization.

  SCF Guess: Superposition of Atomic Densities via on-the-fly atomic UHF.

  ==> Iterations <==

                           Total Energy        Delta E     RMS |[F,P]|

   @DF-RHF iter SAD:   -75.47912731105359   -7.54791e+01   0.00000e+00 
   @DF-RHF iter   1:   -75.98166754636561   -5.02540e-01   2.73049e-03 DIIS
   @DF-RHF iter   2:   -76.03418862729688   -5.25211e-02   1.85468e-03 DIIS
   @DF-RHF iter   3:   -76.06541234925986   -3.12237e-02   1.26307e-04 DIIS
   @DF-RHF iter   4:   -76.06580405831427   -3.91709e-04   3.08572e-05 DIIS
   @DF-RHF iter   5:   -76.06582890551711   -2.48472e-05   6.92073e-06 DIIS
   @DF-RHF iter   6:   -76.06583094349544   -2.03798e-06   1.58151e-06 DIIS
   @DF-RHF iter   7:   -76.06583106251688   -1.19021e-07   3.08441e-07 DIIS
   @DF-RHF iter   8:   -76.06583106654062   -4.02375e-09   4.93579e-08 DIIS
   @DF-RHF iter   9:   -76.06583106662418   -8.35598e-11   1.19501e-08 DIIS
   @DF-RHF iter  10:   -76.06583106662815   -3.96483e-12   1.66098e-09 DIIS
  Energy and wave function converged.


  ==> Post-Iterations <==

    Orbital Energies [Eh]
    ---------------------

    Doubly Occupied:                                                      

       1A    -20.563054     2A     -1.350017     3A     -0.724978  
       4A     -0.577432     5A     -0.509320  

    Virtual:                                                              

       6A      0.027147     7A      0.042877     8A      0.114697  
       9A      0.132617    10A      0.150354    11A      0.157869  
      12A      0.185974    13A      0.197116    14A      0.208279  
      15A      0.241297    16A      0.258922    17A      0.290434  
      18A      0.358088    19A      0.390600    20A      0.471801  
      21A      0.506729    22A      0.543000    23A      0.545716  
      24A      0.554147    25A      0.613312    26A      0.634218  
      27A      0.649587    28A      0.662645    29A      0.665814  
      30A      0.690241    31A      0.705201    32A      0.714925  
      33A      0.769562    34A      0.787618    35A      0.803480  
      36A      0.809883    37A      0.846699    38A      0.855356  
      39A      0.967464    40A      1.134235    41A      1.140804  
      42A      1.216691    43A      1.329066    44A      1.418245  
      45A      1.480504    46A      1.506135    47A      1.521663  
      48A      1.525099    49A      1.555854    50A      1.595485  
      51A      1.618125    52A      1.636626    53A      1.659598  
      54A      1.672456    55A      1.685984    56A      1.702516  
      57A      1.719883    58A      1.763367    59A      1.781468  
      60A      1.793804    61A      1.828568    62A      1.862910  
      63A      1.881892    64A      1.900624    65A      1.953977  
      66A      2.013860    67A      2.021642    68A      2.029542  
      69A      2.099043    70A      2.218811    71A      2.225725  
      72A      2.307066    73A      2.492186    74A      2.642103  
      75A      2.643390    76A      2.890869    77A      2.962249  
      78A      3.010142    79A      3.023854    80A      3.061470  
      81A      3.088401    82A      3.253112    83A      3.283346  
      84A      3.310608    85A      3.529786    86A      3.591085  
      87A      3.658134    88A      3.681818    89A      3.741128  
      90A      3.741320    91A      3.920867    92A      4.066443  
      93A      4.159371    94A      4.170482    95A      4.174807  
      96A      4.181127    97A      4.250840    98A      4.344142  
      99A      4.419000   100A      4.566169   101A      4.663800  
     102A      4.760919   103A      4.802977   104A      4.807014  
     105A      4.839638   106A      4.875524   107A      4.998590  
     108A      5.275996   109A      5.315742   110A      5.512802  
     111A      5.547790   112A      5.878284   113A      5.882495  
     114A      6.080394   115A      6.230589   116A      6.835999  
     117A      6.859234   118A      6.861762   119A      6.955816  
     120A      7.713912   121A      7.780018   122A      7.828577  
     123A      7.845771   124A      7.878217   125A      7.918821  
     126A      7.946788   127A      8.006706   128A      8.197673  
     129A      8.339643   130A      8.536921   131A      8.591210  
     132A      8.705425   133A      8.758587   134A      8.799311  
     135A      8.876027   136A      8.981857   137A      9.063574  
     138A      9.142684   139A      9.529456   140A      9.842569  
     141A      9.962607   142A      9.965905   143A     10.013076  
     144A     10.440234   145A     10.478362   146A     10.654518  
     147A     10.993236   148A     11.038346   149A     11.078698  
     150A     11.260052   151A     11.368883   152A     11.438843  
     153A     11.697201   154A     11.796631   155A     11.834758  
     156A     12.012728   157A     12.175704   158A     12.225276  
     159A     12.532061   160A     12.736624   161A     12.876164  
     162A     12.895386   163A     13.211011   164A     13.998979  
     165A     14.039333   166A     14.488626   167A     14.846777  
     168A     14.876692   169A     15.302024   170A     16.927855  
     171A     17.267109   172A     45.492548  

    Final Occupation by Irrep:
              A 
    DOCC [     5 ]

  @DF-RHF Final Energy:   -76.06583106662815

   => Energetics <=

    Nuclear Repulsion Energy =              9.1834508723917327
    One-Electron Energy =                -123.0489606969158842
    Two-Electron Energy =                  37.7996787578960038
    Total Energy =                        -76.0658310666281494

Computation Completed


Properties will be evaluated at  -5.919976,   7.620069,  -2.244036 [a0]

Properties computed using the SCF density matrix

  Nuclear Dipole Moment: [e a0]
     X:    -0.2424      Y:    -0.4770      Z:    -0.7639

  Electronic Dipole Moment: [e a0]
     X:     0.0465      Y:     0.0915      Z:     0.1465

  Dipole Moment: [e a0]
     X:    -0.1959      Y:    -0.3855      Z:    -0.6174     Total:     0.7537

  Dipole Moment: [D]
     X:    -0.4979      Y:    -0.9798      Z:    -1.5692     Total:     1.9158


*** tstop() called on node37.bme.utexas.edu at Tue Feb 22 18:46:10 2022
Module time:
	user time   =       9.58 seconds =       0.16 minutes
	system time =       0.84 seconds =       0.01 minutes
	total time  =          7 seconds =       0.12 minutes
Total time:
	user time   =      16.96 seconds =       0.28 minutes
	system time =       1.43 seconds =       0.02 minutes
	total time  =         12 seconds =       0.20 minutes

*** tstart() called on node37.bme.utexas.edu
*** at Tue Feb 22 18:46:10 2022


  //>>>>>>>>>>>>>>>>>>>>>>>>>>>>>>>>>>>//
  //               DFMP2               //
  //<<<<<<<<<<<<<<<<<<<<<<<<<<<<<<<<<<<//

   => Loading Basis Set <=

    Name: (AUG-CC-PVQZ AUX)
    Role: RIFIT
    Keyword: DF_BASIS_MP2
    atoms 1   entry O          line   332 file /home/bdw2292/miniconda3/envs/amoebamdpoltype/share/psi4/basis/aug-cc-pvqz-ri.gbs 
    atoms 2-3 entry H          line    30 file /home/bdw2292/miniconda3/envs/amoebamdpoltype/share/psi4/basis/aug-cc-pvqz-ri.gbs 

	 --------------------------------------------------------
	                          DF-MP2                         
	      2nd-Order Density-Fitted Moller-Plesset Theory     
	              RMP2 Wavefunction,   4 Threads             
	                                                         
	        Rob Parrish, Justin Turney, Andy Simmonett,      
	           Ed Hohenstein, and C. David Sherrill          
	 --------------------------------------------------------

   => Auxiliary Basis Set <=

  Basis Set: (AUG-CC-PVQZ AUX)
    Blend: AUG-CC-PVQZ-RI
    Number of shells: 76
    Number of basis function: 328
    Number of Cartesian functions: 447
    Spherical Harmonics?: true
    Max angular momentum: 5

	 --------------------------------------------------------
	                 NBF =   172, NAUX =   328
	 --------------------------------------------------------
	   CLASS    FOCC     OCC    AOCC    AVIR     VIR    FVIR
	   PAIRS       1       5       4     167     167       0
	 --------------------------------------------------------

	-----------------------------------------------------------
	 ==================> DF-MP2 Energies <==================== 
	-----------------------------------------------------------
	 Reference Energy          =     -76.0658310666281494 [Eh]
	 Singles Energy            =      -0.0000000000000000 [Eh]
	 Same-Spin Energy          =      -0.0671636050749081 [Eh]
	 Opposite-Spin Energy      =      -0.2185150876875334 [Eh]
	 Correlation Energy        =      -0.2856786927624415 [Eh]
	 Total Energy              =     -76.3515097593905949 [Eh]
	-----------------------------------------------------------
	 ================> DF-SCS-MP2 Energies <================== 
	-----------------------------------------------------------
	 SCS Same-Spin Scale       =       0.3333333333333333 [-]
	 SCS Opposite-Spin Scale   =       1.2000000000000000 [-]
	 SCS Same-Spin Energy      =      -0.0223878683583027 [Eh]
	 SCS Opposite-Spin Energy  =      -0.2622181052250401 [Eh]
	 SCS Correlation Energy    =      -0.2846059735833428 [Eh]
	 SCS Total Energy          =     -76.3504370402114887 [Eh]
	-----------------------------------------------------------


*** tstop() called on node37.bme.utexas.edu at Tue Feb 22 18:46:11 2022
Module time:
	user time   =       3.17 seconds =       0.05 minutes
	system time =       0.25 seconds =       0.00 minutes
	total time  =          1 seconds =       0.02 minutes
Total time:
	user time   =      20.14 seconds =       0.34 minutes
	system time =       1.68 seconds =       0.03 minutes
	total time  =         13 seconds =       0.22 minutes

  //>>>>>>>>>>>>>>>>>>>>>>>>>>>>>>>>>>>//
  //  CBS Results: mp2/aug-cc-pV[TQ]Z  //
  //<<<<<<<<<<<<<<<<<<<<<<<<<<<<<<<<<<<//


   ==> HF <==

   HI-zeta (4) Energy:               -76.065831066628


   ==> Helgaker 2-point correlated extrapolation for method: MP2 <==

   LO-zeta (3) Energy:               -76.328513254026
   HI-zeta (4) Energy:               -76.351509759391
   Alpha (exponent) Value:             3.000000000000
   Extrapolated Energy:              -76.368290993035

   @Extrapolated MP2/(T,Q):          -76.368290993035



   ==> Helgaker 2-point correlated extrapolation for method: HF <==

   LO-zeta (3) Energy:               -76.060443599273
   HI-zeta (4) Energy:               -76.065831066628
   Alpha (exponent) Value:             3.000000000000
   Extrapolated Energy:              -76.069762461725

   @Extrapolated HF/(T,Q):           -76.069762461725


   ==> Components <==

  ---------------------------------------------------------------------------------------------------------
                          Method / Basis                      Rqd      Energy [Eh]   Variable
  ---------------------------------------------------------------------------------------------------------
                              hf / aug-cc-pvtz                  *     -76.06044360   HF TOTAL ENERGY
                             mp2 / aug-cc-pvtz                  *     -76.32851325   MP2 TOTAL ENERGY
                              hf / aug-cc-pvqz                  *     -76.06583107   HF TOTAL ENERGY
                             mp2 / aug-cc-pvqz                  *     -76.35150976   MP2 TOTAL ENERGY
  ---------------------------------------------------------------------------------------------------------

   ==> Stages <==

  ---------------------------------------------------------------------------------------------------------
      Stage               Method / Basis                       Wt      Energy [Eh]   Scheme
  ---------------------------------------------------------------------------------------------------------
        scf                   hf / aug-cc-pvqz                  1     -76.06583107   xtpl_highest_1
       corl                  mp2 / aug-cc-pv[tq]z               1     -76.36829099   corl_xtpl_helgaker_2
       corl                   hf / aug-cc-pv[tq]z              -1     -76.06976246   corl_xtpl_helgaker_2
  ---------------------------------------------------------------------------------------------------------

   ==> CBS <==

  ---------------------------------------------------------------------------------------------------------
      Stage               Method / Basis                               Energy [Eh]   Scheme
  ---------------------------------------------------------------------------------------------------------
        scf                   hf / aug-cc-pvqz                        -76.06583107   xtpl_highest_1
       corl                  mp2 / aug-cc-pv[tq]z                      -0.29852853   corl_xtpl_helgaker_2
      total                  CBS                                      -76.36435960   
  ---------------------------------------------------------------------------------------------------------
   => Loading Basis Set <=

    Name: DEF2-SVP
    Role: ORBITAL
    Keyword: BASIS
    atoms 1   entry O          line   130 file /home/bdw2292/miniconda3/envs/amoebamdpoltype/share/psi4/basis/def2-svp.gbs 
    atoms 2-3 entry H          line    15 file /home/bdw2292/miniconda3/envs/amoebamdpoltype/share/psi4/basis/def2-svp.gbs 


       N-Body: Complex Energy (fragments = (2,), basis = (2,):   -76.36435959793737)

       N-Body: Computing complex (2/4) with fragments (2,) in the basis of fragments (1, 2).


  //>>>>>>>>>>>>>>>>>>>>>>>>>>>>>>>>>>>//
  //   CBS Setup: mp2/aug-cc-pV[TQ]Z   //
  //<<<<<<<<<<<<<<<<<<<<<<<<<<<<<<<<<<<//

    Naive listing of computations required.
             hf / aug-cc-pvqz              for  HF TOTAL ENERGY
            mp2 / aug-cc-pvtz              for  MP2 TOTAL ENERGY
            mp2 / aug-cc-pvqz              for  MP2 TOTAL ENERGY
             hf / aug-cc-pvtz              for  HF TOTAL ENERGY
             hf / aug-cc-pvqz              for  HF TOTAL ENERGY

    Enlightened listing of computations required.
            mp2 / aug-cc-pvtz              for  MP2 TOTAL ENERGY
            mp2 / aug-cc-pvqz              for  MP2 TOTAL ENERGY

    Full listing of computations to be obtained (required and bonus).
             hf / aug-cc-pvtz              for  HF TOTAL ENERGY
            mp2 / aug-cc-pvtz              for  MP2 TOTAL ENERGY
             hf / aug-cc-pvqz              for  HF TOTAL ENERGY
            mp2 / aug-cc-pvqz              for  MP2 TOTAL ENERGY

  //>>>>>>>>>>>>>>>>>>>>>>>>>>>>>>>>>>>>//
  // CBS Computation: MP2 / AUG-CC-PVTZ //
  //<<<<<<<<<<<<<<<<<<<<<<<<<<<<<<<<<<<<//

    SCF Algorithm Type (re)set to DF.

*** tstart() called on node37.bme.utexas.edu
*** at Tue Feb 22 18:46:13 2022

   => Loading Basis Set <=

    Name: AUG-CC-PVTZ
    Role: ORBITAL
    Keyword: BASIS
    atoms 1-3    entry CL         line   984 file /home/bdw2292/miniconda3/envs/amoebamdpoltype/share/psi4/basis/aug-cc-pvtz.gbs 
    atoms 4      entry C          line   235 file /home/bdw2292/miniconda3/envs/amoebamdpoltype/share/psi4/basis/aug-cc-pvtz.gbs 
    atoms 5, 7-8 entry H          line    36 file /home/bdw2292/miniconda3/envs/amoebamdpoltype/share/psi4/basis/aug-cc-pvtz.gbs 
    atoms 6      entry O          line   327 file /home/bdw2292/miniconda3/envs/amoebamdpoltype/share/psi4/basis/aug-cc-pvtz.gbs 


         ---------------------------------------------------------
                                   SCF
               by Justin Turney, Rob Parrish, Andy Simmonett
                          and Daniel G. A. Smith
                              RHF Reference
                        4 Threads,  14305 MiB Core
         ---------------------------------------------------------

  ==> Geometry <==

    Molecular point group: c1
    Full point group: C1

    Geometry (in Angstrom), charge = 0, multiplicity = 1:

       Center              X                  Y                   Z               Mass       
    ------------   -----------------  -----------------  -----------------  -----------------
      Gh(CL)         -0.113660366672     0.935371776701     0.422191344790    34.968852682000
      Gh(CL)          2.132144633328    -0.864948623299     0.031390944790    34.968852682000
      Gh(CL)         -0.587055766672    -1.879599323299    -0.110132955210    34.968852682000
      Gh(C)           0.487809133328    -0.703742223299     0.637977144790    12.000000000000
      Gh(H)           0.508883633328    -0.908377223299     1.708290244790     1.007825032230
         O           -3.116419466672     4.064436176701    -1.136133555210    15.994914619570
         H           -3.792916466672     3.388396076701    -1.183527555210     1.007825032230
         H           -2.731156766672     4.167377076701    -2.006563255210     1.007825032230

  Running in c1 symmetry.

  Rotational constants: A =      0.09823  B =      0.02327  C =      0.01984 [cm^-1]
  Rotational constants: A =   2944.99342  B =    697.62565  C =    594.64448 [MHz]
  Nuclear repulsion =    9.183450872391733

  Charge       = 0
  Multiplicity = 1
  Electrons    = 10
  Nalpha       = 5
  Nbeta        = 5

  ==> Algorithm <==

  SCF Algorithm Type is DF.
  DIIS enabled.
  MOM disabled.
  Fractional occupation disabled.
  Guess Type is SAD.
  Energy threshold   = 1.00e-08
  Density threshold  = 1.00e-08
  Integral threshold = 0.00e+00

  ==> Primary Basis <==

  Basis Set: AUG-CC-PVTZ
    Blend: AUG-CC-PVTZ
    Number of shells: 103
    Number of basis function: 311
    Number of Cartesian functions: 362
    Spherical Harmonics?: true
    Max angular momentum: 3

   => Loading Basis Set <=

    Name: (AUG-CC-PVTZ AUX)
    Role: JKFIT
    Keyword: DF_BASIS_SCF
    atoms 1-3    entry CL         line   816 file /home/bdw2292/miniconda3/envs/amoebamdpoltype/share/psi4/basis/aug-cc-pvtz-jkfit.gbs 
    atoms 4      entry C          line   162 file /home/bdw2292/miniconda3/envs/amoebamdpoltype/share/psi4/basis/aug-cc-pvtz-jkfit.gbs 
    atoms 5, 7-8 entry H          line    70 file /home/bdw2292/miniconda3/envs/amoebamdpoltype/share/psi4/basis/aug-cc-pvtz-jkfit.gbs 
    atoms 6      entry O          line   286 file /home/bdw2292/miniconda3/envs/amoebamdpoltype/share/psi4/basis/aug-cc-pvtz-jkfit.gbs 

  ==> Pre-Iterations <==

   -------------------------------------------------------
    Irrep   Nso     Nmo     Nalpha   Nbeta   Ndocc  Nsocc
   -------------------------------------------------------
     A        311     311       0       0       0       0
   -------------------------------------------------------
    Total     311     311       5       5       5       0
   -------------------------------------------------------

  ==> Integral Setup <==

  DFHelper Memory: AOs need 0.507 GiB; user supplied 10.477 GiB. Using in-core AOs.

  ==> MemDFJK: Density-Fitted J/K Matrices <==

    J tasked:                   Yes
    K tasked:                   Yes
    wK tasked:                   No
    OpenMP threads:               4
    Memory [MiB]:             10728
    Algorithm:                 Core
    Schwarz Cutoff:           1E-12
    Mask sparsity (%):      14.9564
    Fitting Condition:        1E-10

   => Auxiliary Basis Set <=

  Basis Set: (AUG-CC-PVTZ AUX)
    Blend: AUG-CC-PVTZ-JKFIT
    Number of shells: 228
    Number of basis function: 784
    Number of Cartesian functions: 967
    Spherical Harmonics?: true
    Max angular momentum: 4

  Minimum eigenvalue in the overlap matrix is 6.1650065378E-05.
  Using Symmetric Orthogonalization.

  SCF Guess: Superposition of Atomic Densities via on-the-fly atomic UHF.

  ==> Iterations <==

                           Total Energy        Delta E     RMS |[F,P]|

   @DF-RHF iter SAD:   -75.47397109946978   -7.54740e+01   0.00000e+00 
   @DF-RHF iter   1:   -75.97658598871644   -5.02615e-01   1.50693e-03 DIIS
   @DF-RHF iter   2:   -76.02900559871554   -5.24196e-02   1.02123e-03 DIIS
   @DF-RHF iter   3:   -76.06003328360649   -3.10277e-02   6.93501e-05 DIIS
   @DF-RHF iter   4:   -76.06042294126900   -3.89658e-04   1.65583e-05 DIIS
   @DF-RHF iter   5:   -76.06044688935367   -2.39481e-05   3.72684e-06 DIIS
   @DF-RHF iter   6:   -76.06044884457731   -1.95522e-06   8.29279e-07 DIIS
   @DF-RHF iter   7:   -76.06044895229222   -1.07715e-07   1.56781e-07 DIIS
   @DF-RHF iter   8:   -76.06044895570889   -3.41667e-09   2.60195e-08 DIIS
   @DF-RHF iter   9:   -76.06044895578290   -7.40101e-11   6.46245e-09 DIIS
  Energy and wave function converged.


  ==> Post-Iterations <==

    Orbital Energies [Eh]
    ---------------------

    Doubly Occupied:                                                      

       1A    -20.565519     2A     -1.350748     3A     -0.725019  
       4A     -0.577385     5A     -0.509195  

    Virtual:                                                              

       6A      0.021826     7A      0.034085     8A      0.045158  
       9A      0.055501    10A      0.060075    11A      0.068307  
      12A      0.104410    13A      0.108477    14A      0.110110  
      15A      0.113809    16A      0.117473    17A      0.124416  
      18A      0.140226    19A      0.155605    20A      0.155987  
      21A      0.162859    22A      0.173448    23A      0.175314  
      24A      0.175943    25A      0.186923    26A      0.194961  
      27A      0.205651    28A      0.225774    29A      0.232244  
      30A      0.251001    31A      0.276036    32A      0.284085  
      33A      0.308366    34A      0.323499    35A      0.324102  
      36A      0.343676    37A      0.349247    38A      0.353168  
      39A      0.360889    40A      0.367999    41A      0.374658  
      42A      0.395780    43A      0.402668    44A      0.414285  
      45A      0.415778    46A      0.420255    47A      0.428323  
      48A      0.438210    49A      0.444670    50A      0.459977  
      51A      0.465800    52A      0.470204    53A      0.499689  
      54A      0.501653    55A      0.507740    56A      0.530122  
      57A      0.534248    58A      0.553623    59A      0.564244  
      60A      0.583080    61A      0.588305    62A      0.605598  
      63A      0.626258    64A      0.630867    65A      0.635224  
      66A      0.653441    67A      0.662022    68A      0.664842  
      69A      0.673208    70A      0.714002    71A      0.738131  
      72A      0.747112    73A      0.748564    74A      0.754958  
      75A      0.757346    76A      0.770289    77A      0.785302  
      78A      0.795875    79A      0.832101    80A      0.838470  
      81A      0.842468    82A      0.858177    83A      0.870703  
      84A      0.915408    85A      0.918869    86A      0.927810  
      87A      0.935442    88A      0.968329    89A      1.000675  
      90A      1.035289    91A      1.046026    92A      1.053003  
      93A      1.075494    94A      1.088445    95A      1.101697  
      96A      1.114326    97A      1.155323    98A      1.157797  
      99A      1.167411   100A      1.181630   101A      1.188976  
     102A      1.191345   103A      1.234790   104A      1.239955  
     105A      1.253257   106A      1.254174   107A      1.261428  
     108A      1.267738   109A      1.285517   110A      1.303222  
     111A      1.324817   112A      1.331825   113A      1.348561  
     114A      1.350671   115A      1.353974   116A      1.374533  
     117A      1.376222   118A      1.423250   119A      1.435602  
     120A      1.437978   121A      1.441009   122A      1.486242  
     123A      1.492794   124A      1.497506   125A      1.502192  
     126A      1.506820   127A      1.510250   128A      1.514208  
     129A      1.519327   130A      1.532573   131A      1.550492  
     132A      1.553240   133A      1.555923   134A      1.568032  
     135A      1.590429   136A      1.592729   137A      1.599382  
     138A      1.613015   139A      1.649863   140A      1.650803  
     141A      1.656200   142A      1.690512   143A      1.700627  
     144A      1.709540   145A      1.721328   146A      1.786500  
     147A      1.792648   148A      1.796982   149A      1.820883  
     150A      1.843161   151A      1.847776   152A      1.909679  
     153A      2.005071   154A      2.043449   155A      2.046907  
     156A      2.095233   157A      2.120203   158A      2.123711  
     159A      2.127455   160A      2.132822   161A      2.157783  
     162A      2.173110   163A      2.175469   164A      2.252652  
     165A      2.253708   166A      2.271496   167A      2.291062  
     168A      2.320706   169A      2.325223   170A      2.367678  
     171A      2.415167   172A      2.438040   173A      2.445726  
     174A      2.465185   175A      2.483131   176A      2.500014  
     177A      2.501429   178A      2.563973   179A      2.567786  
     180A      2.591964   181A      2.689346   182A      2.722960  
     183A      2.738863   184A      2.742249   185A      2.777071  
     186A      2.857273   187A      2.896338   188A      3.040270  
     189A      3.646167   190A      3.784020   191A      3.796963  
     192A      3.841131   193A      3.859392   194A      3.860695  
     195A      3.961081   196A      3.964683   197A      3.965559  
     198A      3.972723   199A      3.977096   200A      3.987282  
     201A      3.999604   202A      3.999862   203A      4.007800  
     204A      4.013081   205A      4.048095   206A      4.049405  
     207A      4.071104   208A      4.104592   209A      4.118645  
     210A      4.125334   211A      4.126145   212A      4.168423  
     213A      4.169169   214A      4.188673   215A      4.193635  
     216A      4.212300   217A      4.213744   218A      4.214742  
     219A      4.217835   220A      4.232709   221A      4.239037  
     222A      4.245476   223A      4.337895   224A      4.382758  
     225A      4.401852   226A      4.414266   227A      4.416361  
     228A      4.422229   229A      4.454194   230A      4.462057  
     231A      4.466215   232A      4.493975   233A      4.575618  
     234A      4.666316   235A      4.669912   236A      4.718558  
     237A      4.737705   238A      4.739322   239A      4.751062  
     240A      4.752532   241A      4.762265   242A      4.769508  
     243A      4.779549   244A      4.784432   245A      4.811229  
     246A      4.813869   247A      4.829085   248A      4.863065  
     249A      4.872477   250A      4.900430   251A      4.904732  
     252A      4.916456   253A      5.083769   254A      5.084896  
     255A      5.124757   256A      5.128047   257A      5.130945  
     258A      5.173587   259A      5.246586   260A      5.253708  
     261A      5.308567   262A      5.326971   263A      5.329697  
     264A      5.336533   265A      5.480298   266A      5.482751  
     267A      5.511823   268A      5.529979   269A      5.724021  
     270A      5.759521   271A      5.975254   272A      5.976076  
     273A      6.145622   274A      6.194892   275A      6.200468  
     276A      6.388158   277A      6.536471   278A      6.713893  
     279A      6.750641   280A      6.862888   281A      7.154581  
     282A      7.272733   283A      7.310620   284A      7.314355  
     285A      7.374961   286A      7.388768   287A      7.561466  
     288A      7.898058   289A      7.906679   290A      7.909168  
     291A      7.964755   292A      8.099364   293A      8.790017  
     294A      9.392149   295A     15.759987   296A     15.886351  
     297A     16.428841   298A     16.465202   299A     28.053301  
     300A     28.124451   301A     28.127418   302A     28.133632  
     303A     28.207501   304A     28.209128   305A     28.841091  
     306A     28.845031   307A     29.374001   308A     45.508426  
     309A    160.974816   310A    161.050466   311A    161.055593  

    Final Occupation by Irrep:
              A 
    DOCC [     5 ]

  @DF-RHF Final Energy:   -76.06044895578290

   => Energetics <=

    Nuclear Repulsion Energy =              9.1834508723917327
    One-Electron Energy =                -123.0320657787455474
    Two-Electron Energy =                  37.7881659505709067
    Total Energy =                        -76.0604489557829027

Computation Completed


Properties will be evaluated at   0.000000,   0.000000,  -0.000000 [a0]

Properties computed using the SCF density matrix

  Nuclear Dipole Moment: [e a0]
     X:   -59.4421      Y:    75.7237      Z:   -23.2042

  Electronic Dipole Moment: [e a0]
     X:    59.2459      Y:   -76.1096      Z:    22.5860

  Dipole Moment: [e a0]
     X:    -0.1963      Y:    -0.3859      Z:    -0.6183     Total:     0.7548

  Dipole Moment: [D]
     X:    -0.4989      Y:    -0.9808      Z:    -1.5715     Total:     1.9185


*** tstop() called on node37.bme.utexas.edu at Tue Feb 22 18:46:24 2022
Module time:
	user time   =      31.24 seconds =       0.52 minutes
	system time =       1.88 seconds =       0.03 minutes
	total time  =         11 seconds =       0.18 minutes
Total time:
	user time   =      53.07 seconds =       0.88 minutes
	system time =       3.60 seconds =       0.06 minutes
	total time  =         26 seconds =       0.43 minutes

*** tstart() called on node37.bme.utexas.edu
*** at Tue Feb 22 18:46:24 2022


  //>>>>>>>>>>>>>>>>>>>>>>>>>>>>>>>>>>>//
  //               DFMP2               //
  //<<<<<<<<<<<<<<<<<<<<<<<<<<<<<<<<<<<//

   => Loading Basis Set <=

    Name: (AUG-CC-PVTZ AUX)
    Role: RIFIT
    Keyword: DF_BASIS_MP2
    atoms 1-3    entry CL         line   742 file /home/bdw2292/miniconda3/envs/amoebamdpoltype/share/psi4/basis/aug-cc-pvtz-ri.gbs 
    atoms 4      entry C          line   148 file /home/bdw2292/miniconda3/envs/amoebamdpoltype/share/psi4/basis/aug-cc-pvtz-ri.gbs 
    atoms 5, 7-8 entry H          line    30 file /home/bdw2292/miniconda3/envs/amoebamdpoltype/share/psi4/basis/aug-cc-pvtz-ri.gbs 
    atoms 6      entry O          line   264 file /home/bdw2292/miniconda3/envs/amoebamdpoltype/share/psi4/basis/aug-cc-pvtz-ri.gbs 

	 --------------------------------------------------------
	                          DF-MP2                         
	      2nd-Order Density-Fitted Moller-Plesset Theory     
	              RMP2 Wavefunction,   4 Threads             
	                                                         
	        Rob Parrish, Justin Turney, Andy Simmonett,      
	           Ed Hohenstein, and C. David Sherrill          
	 --------------------------------------------------------

   => Auxiliary Basis Set <=

  Basis Set: (AUG-CC-PVTZ AUX)
    Blend: AUG-CC-PVTZ-RI
    Number of shells: 209
    Number of basis function: 791
    Number of Cartesian functions: 1010
    Spherical Harmonics?: true
    Max angular momentum: 4

	 --------------------------------------------------------
	                 NBF =   311, NAUX =   791
	 --------------------------------------------------------
	   CLASS    FOCC     OCC    AOCC    AVIR     VIR    FVIR
	   PAIRS       1       5       4     306     306       0
	 --------------------------------------------------------

	-----------------------------------------------------------
	 ==================> DF-MP2 Energies <==================== 
	-----------------------------------------------------------
	 Reference Energy          =     -76.0604489557829027 [Eh]
	 Singles Energy            =      -0.0000000000000000 [Eh]
	 Same-Spin Energy          =      -0.0650968329470378 [Eh]
	 Opposite-Spin Energy      =      -0.2029947002423747 [Eh]
	 Correlation Energy        =      -0.2680915331894125 [Eh]
	 Total Energy              =     -76.3285404889723083 [Eh]
	-----------------------------------------------------------
	 ================> DF-SCS-MP2 Energies <================== 
	-----------------------------------------------------------
	 SCS Same-Spin Scale       =       0.3333333333333333 [-]
	 SCS Opposite-Spin Scale   =       1.2000000000000000 [-]
	 SCS Same-Spin Energy      =      -0.0216989443156793 [Eh]
	 SCS Opposite-Spin Energy  =      -0.2435936402908497 [Eh]
	 SCS Correlation Energy    =      -0.2652925846065289 [Eh]
	 SCS Total Energy          =     -76.3257415403894299 [Eh]
	-----------------------------------------------------------


*** tstop() called on node37.bme.utexas.edu at Tue Feb 22 18:46:31 2022
Module time:
	user time   =      16.10 seconds =       0.27 minutes
	system time =       0.75 seconds =       0.01 minutes
	total time  =          7 seconds =       0.12 minutes
Total time:
	user time   =      69.17 seconds =       1.15 minutes
	system time =       4.35 seconds =       0.07 minutes
	total time  =         33 seconds =       0.55 minutes

  //>>>>>>>>>>>>>>>>>>>>>>>>>>>>>>>>>>>>//
  // CBS Computation: MP2 / AUG-CC-PVQZ //
  //<<<<<<<<<<<<<<<<<<<<<<<<<<<<<<<<<<<<//

    SCF Algorithm Type (re)set to DF.

*** tstart() called on node37.bme.utexas.edu
*** at Tue Feb 22 18:46:31 2022

   => Loading Basis Set <=

    Name: AUG-CC-PVQZ
    Role: ORBITAL
    Keyword: BASIS
    atoms 1-3    entry CL         line  1218 file /home/bdw2292/miniconda3/envs/amoebamdpoltype/share/psi4/basis/aug-cc-pvqz.gbs 
    atoms 4      entry C          line   299 file /home/bdw2292/miniconda3/envs/amoebamdpoltype/share/psi4/basis/aug-cc-pvqz.gbs 
    atoms 5, 7-8 entry H          line    36 file /home/bdw2292/miniconda3/envs/amoebamdpoltype/share/psi4/basis/aug-cc-pvqz.gbs 
    atoms 6      entry O          line   419 file /home/bdw2292/miniconda3/envs/amoebamdpoltype/share/psi4/basis/aug-cc-pvqz.gbs 


         ---------------------------------------------------------
                                   SCF
               by Justin Turney, Rob Parrish, Andy Simmonett
                          and Daniel G. A. Smith
                              RHF Reference
                        4 Threads,  14305 MiB Core
         ---------------------------------------------------------

  ==> Geometry <==

    Molecular point group: c1
    Full point group: C1

    Geometry (in Angstrom), charge = 0, multiplicity = 1:

       Center              X                  Y                   Z               Mass       
    ------------   -----------------  -----------------  -----------------  -----------------
      Gh(CL)         -0.113660366672     0.935371776701     0.422191344790    34.968852682000
      Gh(CL)          2.132144633328    -0.864948623299     0.031390944790    34.968852682000
      Gh(CL)         -0.587055766672    -1.879599323299    -0.110132955210    34.968852682000
      Gh(C)           0.487809133328    -0.703742223299     0.637977144790    12.000000000000
      Gh(H)           0.508883633328    -0.908377223299     1.708290244790     1.007825032230
         O           -3.116419466672     4.064436176701    -1.136133555210    15.994914619570
         H           -3.792916466672     3.388396076701    -1.183527555210     1.007825032230
         H           -2.731156766672     4.167377076701    -2.006563255210     1.007825032230

  Running in c1 symmetry.

  Rotational constants: A =      0.09823  B =      0.02327  C =      0.01984 [cm^-1]
  Rotational constants: A =   2944.99342  B =    697.62565  C =    594.64448 [MHz]
  Nuclear repulsion =    9.183450872391733

  Charge       = 0
  Multiplicity = 1
  Electrons    = 10
  Nalpha       = 5
  Nbeta        = 5

  ==> Algorithm <==

  SCF Algorithm Type is DF.
  DIIS enabled.
  MOM disabled.
  Fractional occupation disabled.
  Guess Type is SAD.
  Energy threshold   = 1.00e-08
  Density threshold  = 1.00e-08
  Integral threshold = 0.00e+00

  ==> Primary Basis <==

  Basis Set: AUG-CC-PVQZ
    Blend: AUG-CC-PVQZ
    Number of shells: 148
    Number of basis function: 550
    Number of Cartesian functions: 702
    Spherical Harmonics?: true
    Max angular momentum: 4

   => Loading Basis Set <=

    Name: (AUG-CC-PVQZ AUX)
    Role: JKFIT
    Keyword: DF_BASIS_SCF
    atoms 1-3    entry CL         line   904 file /home/bdw2292/miniconda3/envs/amoebamdpoltype/share/psi4/basis/aug-cc-pvqz-jkfit.gbs 
    atoms 4      entry C          line   178 file /home/bdw2292/miniconda3/envs/amoebamdpoltype/share/psi4/basis/aug-cc-pvqz-jkfit.gbs 
    atoms 5, 7-8 entry H          line    70 file /home/bdw2292/miniconda3/envs/amoebamdpoltype/share/psi4/basis/aug-cc-pvqz-jkfit.gbs 
    atoms 6      entry O          line   318 file /home/bdw2292/miniconda3/envs/amoebamdpoltype/share/psi4/basis/aug-cc-pvqz-jkfit.gbs 

  ==> Pre-Iterations <==

   -------------------------------------------------------
    Irrep   Nso     Nmo     Nalpha   Nbeta   Ndocc  Nsocc
   -------------------------------------------------------
     A        550     550       0       0       0       0
   -------------------------------------------------------
    Total     550     550       5       5       5       0
   -------------------------------------------------------

  ==> Integral Setup <==

  DFHelper Memory: AOs need 2.006 GiB; user supplied 10.477 GiB. Using in-core AOs.

  ==> MemDFJK: Density-Fitted J/K Matrices <==

    J tasked:                   Yes
    K tasked:                   Yes
    wK tasked:                   No
    OpenMP threads:               4
    Memory [MiB]:             10728
    Algorithm:                 Disk
    Schwarz Cutoff:           1E-12
    Mask sparsity (%):      20.1613
    Fitting Condition:        1E-10

   => Auxiliary Basis Set <=

  Basis Set: (AUG-CC-PVQZ AUX)
    Blend: AUG-CC-PVQZ-JKFIT
    Number of shells: 260
    Number of basis function: 1064
    Number of Cartesian functions: 1440
    Spherical Harmonics?: true
    Max angular momentum: 5

  Minimum eigenvalue in the overlap matrix is 1.2484672259E-05.
  Using Symmetric Orthogonalization.

  SCF Guess: Superposition of Atomic Densities via on-the-fly atomic UHF.

  ==> Iterations <==

                           Total Energy        Delta E     RMS |[F,P]|

   @DF-RHF iter SAD:   -75.47912730655374   -7.54791e+01   0.00000e+00 
   @DF-RHF iter   1:   -75.98166725963020   -5.02540e-01   8.53909e-04 DIIS
   @DF-RHF iter   2:   -76.03418945304222   -5.25222e-02   5.80033e-04 DIIS
   @DF-RHF iter   3:   -76.06541511741167   -3.12257e-02   3.95000e-05 DIIS
   @DF-RHF iter   4:   -76.06580682572161   -3.91708e-04   9.64988e-06 DIIS
   @DF-RHF iter   5:   -76.06583167033347   -2.48446e-05   2.16393e-06 DIIS
   @DF-RHF iter   6:   -76.06583370755143   -2.03722e-06   4.94457e-07 DIIS
   @DF-RHF iter   7:   -76.06583382651974   -1.18968e-07   9.64809e-08 DIIS
   @DF-RHF iter   8:   -76.06583383054718   -4.02744e-09   1.54439e-08 DIIS
   @DF-RHF iter   9:   -76.06583383063121   -8.40288e-11   3.73840e-09 DIIS
  Energy and wave function converged.


  ==> Post-Iterations <==

    Orbital Energies [Eh]
    ---------------------

    Doubly Occupied:                                                      

       1A    -20.563054     2A     -1.350017     3A     -0.724978  
       4A     -0.577434     5A     -0.509319  

    Virtual:                                                              

       6A      0.019415     7A      0.031047     8A      0.040019  
       9A      0.048482    10A      0.052977    11A      0.060337  
      12A      0.089431    13A      0.091413    14A      0.092404  
      15A      0.095276    16A      0.099411    17A      0.107551  
      18A      0.119551    19A      0.133049    20A      0.133625  
      21A      0.139709    22A      0.147266    23A      0.150777  
      24A      0.151759    25A      0.159426    26A      0.168019  
      27A      0.178079    28A      0.188789    29A      0.195333  
      30A      0.204887    31A      0.230424    32A      0.237521  
      33A      0.247183    34A      0.254995    35A      0.262330  
      36A      0.266454    37A      0.271972    38A      0.280324  
      39A      0.288151    40A      0.291474    41A      0.297524  
      42A      0.307444    43A      0.314578    44A      0.322643  
      45A      0.325579    46A      0.334040    47A      0.340870  
      48A      0.348489    49A      0.356070    50A      0.364588  
      51A      0.370729    52A      0.385313    53A      0.390634  
      54A      0.392586    55A      0.396735    56A      0.400664  
      57A      0.411586    58A      0.416633    59A      0.423450  
      60A      0.430961    61A      0.441517    62A      0.468212  
      63A      0.469970    64A      0.477476    65A      0.492143  
      66A      0.500226    67A      0.504021    68A      0.523632  
      69A      0.529867    70A      0.541194    71A      0.555870  
      72A      0.558612    73A      0.566790    74A      0.574587  
      75A      0.578949    76A      0.590232    77A      0.597339  
      78A      0.618575    79A      0.623680    80A      0.631057  
      81A      0.634515    82A      0.649423    83A      0.666287  
      84A      0.668646    85A      0.693766    86A      0.709749  
      87A      0.719446    88A      0.734631    89A      0.764019  
      90A      0.771032    91A      0.773660    92A      0.787157  
      93A      0.792808    94A      0.802073    95A      0.816708  
      96A      0.819006    97A      0.830152    98A      0.840534  
      99A      0.848380   100A      0.855983   101A      0.864849  
     102A      0.873901   103A      0.881993   104A      0.889630  
     105A      0.892342   106A      0.900650   107A      0.905887  
     108A      0.928427   109A      0.948984   110A      0.950963  
     111A      0.958676   112A      0.961343   113A      0.971772  
     114A      0.980878   115A      0.988694   116A      0.996086  
     117A      1.001527   118A      1.009108   119A      1.018422  
     120A      1.026355   121A      1.036251   122A      1.041616  
     123A      1.043285   124A      1.059758   125A      1.067361  
     126A      1.069835   127A      1.083340   128A      1.088631  
     129A      1.098991   130A      1.107937   131A      1.109867  
     132A      1.124466   133A      1.129248   134A      1.145681  
     135A      1.153140   136A      1.174062   137A      1.175905  
     138A      1.189231   139A      1.192589   140A      1.197685  
     141A      1.215386   142A      1.225858   143A      1.230175  
     144A      1.238201   145A      1.267631   146A      1.307506  
     147A      1.311298   148A      1.334668   149A      1.352869  
     150A      1.356699   151A      1.369136   152A      1.421595  
     153A      1.495618   154A      1.520616   155A      1.524731  
     156A      1.532091   157A      1.543450   158A      1.546138  
     159A      1.555134   160A      1.567146   161A      1.579972  
     162A      1.587369   163A      1.592353   164A      1.601109  
     165A      1.609547   166A      1.613210   167A      1.619200  
     168A      1.624158   169A      1.640749   170A      1.650991  
     171A      1.657293   172A      1.661233   173A      1.664836  
     174A      1.694268   175A      1.702303   176A      1.704517  
     177A      1.741183   178A      1.743441   179A      1.765687  
     180A      1.777508   181A      1.787045   182A      1.791519  
     183A      1.794981   184A      1.798776   185A      1.816594  
     186A      1.832714   187A      1.886747   188A      1.896838  
     189A      1.899251   190A      1.901359   191A      1.907141  
     192A      1.923451   193A      1.939169   194A      1.941138  
     195A      1.951996   196A      1.965008   197A      1.967177  
     198A      1.973658   199A      1.990602   200A      1.991806  
     201A      2.012290   202A      2.017196   203A      2.038954  
     204A      2.042680   205A      2.088894   206A      2.099249  
     207A      2.117498   208A      2.128337   209A      2.140960  
     210A      2.175084   211A      2.183278   212A      2.184785  
     213A      2.197373   214A      2.200888   215A      2.226245  
     216A      2.229074   217A      2.240067   218A      2.246490  
     219A      2.256134   220A      2.280686   221A      2.285736  
     222A      2.295209   223A      2.307599   224A      2.373262  
     225A      2.375833   226A      2.379269   227A      2.381153  
     228A      2.421281   229A      2.427372   230A      2.429880  
     231A      2.450867   232A      2.458986   233A      2.476323  
     234A      2.479169   235A      2.481827   236A      2.483712  
     237A      2.494928   238A      2.504476   239A      2.516979  
     240A      2.537599   241A      2.549387   242A      2.553756  
     243A      2.557223   244A      2.583544   245A      2.585942  
     246A      2.593268   247A      2.595556   248A      2.631337  
     249A      2.632304   250A      2.636276   251A      2.640048  
     252A      2.645104   253A      2.672145   254A      2.680009  
     255A      2.690564   256A      2.720220   257A      2.733169  
     258A      2.735118   259A      2.786716   260A      2.797118  
     261A      2.849378   262A      2.849950   263A      2.860942  
     264A      2.896932   265A      2.920549   266A      2.927987  
     267A      2.940854   268A      2.959524   269A      2.966343  
     270A      2.999809   271A      3.001074   272A      3.004640  
     273A      3.020962   274A      3.027835   275A      3.062484  
     276A      3.066456   277A      3.078866   278A      3.091217  
     279A      3.093986   280A      3.143129   281A      3.170158  
     282A      3.172547   283A      3.202111   284A      3.204298  
     285A      3.231137   286A      3.267446   287A      3.279700  
     288A      3.288905   289A      3.299971   290A      3.302194  
     291A      3.320543   292A      3.334692   293A      3.410192  
     294A      3.415031   295A      3.465957   296A      3.470082  
     297A      3.481246   298A      3.492662   299A      3.494320  
     300A      3.532213   301A      3.600896   302A      3.612884  
     303A      3.629452   304A      3.647297   305A      3.650227  
     306A      3.670154   307A      3.688184   308A      3.703973  
     309A      3.706534   310A      3.742368   311A      3.756084  
     312A      3.811303   313A      3.830854   314A      3.834990  
     315A      3.860012   316A      3.868286   317A      3.925643  
     318A      3.926922   319A      3.942663   320A      4.074671  
     321A      4.076084   322A      4.081213   323A      4.122613  
     324A      4.169622   325A      4.171957   326A      4.173794  
     327A      4.175165   328A      4.187872   329A      4.199752  
     330A      4.258652   331A      4.288584   332A      4.363575  
     333A      4.381039   334A      4.383518   335A      4.414052  
     336A      4.435894   337A      4.445807   338A      4.455275  
     339A      4.569938   340A      4.666850   341A      4.758800  
     342A      4.761428   343A      4.769806   344A      4.812040  
     345A      4.822303   346A      4.840447   347A      4.847667  
     348A      4.881031   349A      4.974642   350A      4.999230  
     351A      5.003628   352A      5.009543   353A      5.295283  
     354A      5.318586   355A      5.392856   356A      5.440969  
     357A      5.441549   358A      5.454089   359A      5.479612  
     360A      5.482061   361A      5.488124   362A      5.519592  
     363A      5.568073   364A      5.585349   365A      5.586425  
     366A      5.648119   367A      5.649658   368A      5.672080  
     369A      5.699766   370A      5.713122   371A      5.735289  
     372A      5.744154   373A      5.748733   374A      5.782731  
     375A      5.784836   376A      5.875972   377A      5.877185  
     378A      5.886189   379A      5.893686   380A      5.903947  
     381A      5.944181   382A      5.950795   383A      5.976900  
     384A      6.081027   385A      6.097070   386A      6.101866  
     387A      6.133827   388A      6.240108   389A      6.305808  
     390A      6.308066   391A      6.311351   392A      6.323528  
     393A      6.325933   394A      6.330126   395A      6.370903  
     396A      6.374988   397A      6.461575   398A      6.463334  
     399A      6.471104   400A      6.488757   401A      6.512098  
     402A      6.514577   403A      6.530312   404A      6.562492  
     405A      6.563721   406A      6.566686   407A      6.584007  
     408A      6.610716   409A      6.614087   410A      6.837110  
     411A      6.861501   412A      6.862215   413A      6.960727  
     414A      7.144535   415A      7.146129   416A      7.174376  
     417A      7.195961   418A      7.262408   419A      7.404964  
     420A      7.439082   421A      7.441285   422A      7.503319  
     423A      7.507353   424A      7.557448   425A      7.604208  
     426A      7.605681   427A      7.692132   428A      7.714312  
     429A      7.733801   430A      7.736196   431A      7.764860  
     432A      7.801892   433A      7.833951   434A      7.840364  
     435A      7.843622   436A      7.846560   437A      7.881510  
     438A      7.890648   439A      7.922213   440A      7.950621  
     441A      7.970662   442A      7.973448   443A      8.009450  
     444A      8.014404   445A      8.016029   446A      8.062095  
     447A      8.075205   448A      8.089200   449A      8.127815  
     450A      8.132381   451A      8.198981   452A      8.233023  
     453A      8.237703   454A      8.238644   455A      8.343338  
     456A      8.382559   457A      8.388183   458A      8.416608  
     459A      8.460289   460A      8.473477   461A      8.474178  
     462A      8.540436   463A      8.591690   464A      8.653258  
     465A      8.713655   466A      8.766624   467A      8.800873  
     468A      8.801982   469A      8.804405   470A      8.880008  
     471A      8.931973   472A      8.945238   473A      8.988467  
     474A      9.064601   475A      9.148614   476A      9.206102  
     477A      9.235840   478A      9.239178   479A      9.357151  
     480A      9.370130   481A      9.373058   482A      9.526764  
     483A      9.530187   484A      9.611396   485A      9.612975  
     486A      9.844654   487A      9.886788   488A      9.954847  
     489A      9.956589   490A      9.973481   491A      9.982238  
     492A     10.016081   493A     10.441161   494A     10.485697  
     495A     10.525508   496A     10.526699   497A     10.697246  
     498A     10.811348   499A     10.814697   500A     11.002436  
     501A     11.033963   502A     11.034690   503A     11.039258  
     504A     11.083953   505A     11.172760   506A     11.279636  
     507A     11.371396   508A     11.454842   509A     11.616318  
     510A     11.698314   511A     11.802697   512A     11.841136  
     513A     12.016145   514A     12.177299   515A     12.227578  
     516A     12.540685   517A     12.714920   518A     12.739444  
     519A     12.882450   520A     12.901883   521A     13.211416  
     522A     13.708964   523A     13.712984   524A     13.780601  
     525A     13.999362   526A     14.052739   527A     14.491557  
     528A     14.849034   529A     14.879127   530A     15.303357  
     531A     16.941633   532A     17.054018   533A     17.271219  
     534A     31.102943   535A     31.105228   536A     31.112745  
     537A     31.117568   538A     31.165517   539A     31.166755  
     540A     31.317017   541A     31.321087   542A     31.384116  
     543A     42.479560   544A     43.366537   545A     43.395553  
     546A     45.535552   547A     69.555357   548A    160.323255  
     549A    160.430121   550A    160.435211  

    Final Occupation by Irrep:
              A 
    DOCC [     5 ]

  @DF-RHF Final Energy:   -76.06583383063121

   => Energetics <=

    Nuclear Repulsion Energy =              9.1834508723917327
    One-Electron Energy =                -123.0489630151129035
    Two-Electron Energy =                  37.7996783120899806
    Total Energy =                        -76.0658338306311919

Computation Completed


Properties will be evaluated at   0.000000,   0.000000,  -0.000000 [a0]

Properties computed using the SCF density matrix

  Nuclear Dipole Moment: [e a0]
     X:   -59.4421      Y:    75.7237      Z:   -23.2042

  Electronic Dipole Moment: [e a0]
     X:    59.2462      Y:   -76.1092      Z:    22.5868

  Dipole Moment: [e a0]
     X:    -0.1959      Y:    -0.3855      Z:    -0.6174     Total:     0.7538

  Dipole Moment: [D]
     X:    -0.4980      Y:    -0.9797      Z:    -1.5693     Total:     1.9159


*** tstop() called on node37.bme.utexas.edu at Tue Feb 22 18:47:38 2022
Module time:
	user time   =     136.61 seconds =       2.28 minutes
	system time =      33.72 seconds =       0.56 minutes
	total time  =         67 seconds =       1.12 minutes
Total time:
	user time   =     205.82 seconds =       3.43 minutes
	system time =      38.08 seconds =       0.63 minutes
	total time  =        100 seconds =       1.67 minutes

*** tstart() called on node37.bme.utexas.edu
*** at Tue Feb 22 18:47:38 2022


  //>>>>>>>>>>>>>>>>>>>>>>>>>>>>>>>>>>>//
  //               DFMP2               //
  //<<<<<<<<<<<<<<<<<<<<<<<<<<<<<<<<<<<//

   => Loading Basis Set <=

    Name: (AUG-CC-PVQZ AUX)
    Role: RIFIT
    Keyword: DF_BASIS_MP2
    atoms 1-3    entry CL         line   914 file /home/bdw2292/miniconda3/envs/amoebamdpoltype/share/psi4/basis/aug-cc-pvqz-ri.gbs 
    atoms 4      entry C          line   184 file /home/bdw2292/miniconda3/envs/amoebamdpoltype/share/psi4/basis/aug-cc-pvqz-ri.gbs 
    atoms 5, 7-8 entry H          line    30 file /home/bdw2292/miniconda3/envs/amoebamdpoltype/share/psi4/basis/aug-cc-pvqz-ri.gbs 
    atoms 6      entry O          line   332 file /home/bdw2292/miniconda3/envs/amoebamdpoltype/share/psi4/basis/aug-cc-pvqz-ri.gbs 

	 --------------------------------------------------------
	                          DF-MP2                         
	      2nd-Order Density-Fitted Moller-Plesset Theory     
	              RMP2 Wavefunction,   4 Threads             
	                                                         
	        Rob Parrish, Justin Turney, Andy Simmonett,      
	           Ed Hohenstein, and C. David Sherrill          
	 --------------------------------------------------------

   => Auxiliary Basis Set <=

  Basis Set: (AUG-CC-PVQZ AUX)
    Blend: AUG-CC-PVQZ-RI
    Number of shells: 264
    Number of basis function: 1158
    Number of Cartesian functions: 1593
    Spherical Harmonics?: true
    Max angular momentum: 5

	 --------------------------------------------------------
	                 NBF =   550, NAUX =  1158
	 --------------------------------------------------------
	   CLASS    FOCC     OCC    AOCC    AVIR     VIR    FVIR
	   PAIRS       1       5       4     545     545       0
	 --------------------------------------------------------

	-----------------------------------------------------------
	 ==================> DF-MP2 Energies <==================== 
	-----------------------------------------------------------
	 Reference Energy          =     -76.0658338306312061 [Eh]
	 Singles Energy            =      -0.0000000000000000 [Eh]
	 Same-Spin Energy          =      -0.0671647914246496 [Eh]
	 Opposite-Spin Energy      =      -0.2185266178687582 [Eh]
	 Correlation Energy        =      -0.2856914092934077 [Eh]
	 Total Energy              =     -76.3515252399246123 [Eh]
	-----------------------------------------------------------
	 ================> DF-SCS-MP2 Energies <================== 
	-----------------------------------------------------------
	 SCS Same-Spin Scale       =       0.3333333333333333 [-]
	 SCS Opposite-Spin Scale   =       1.2000000000000000 [-]
	 SCS Same-Spin Energy      =      -0.0223882638082165 [Eh]
	 SCS Opposite-Spin Energy  =      -0.2622319414425098 [Eh]
	 SCS Correlation Energy    =      -0.2846202052507263 [Eh]
	 SCS Total Energy          =     -76.3504540358819384 [Eh]
	-----------------------------------------------------------


*** tstop() called on node37.bme.utexas.edu at Tue Feb 22 18:47:55 2022
Module time:
	user time   =      43.93 seconds =       0.73 minutes
	system time =       3.23 seconds =       0.05 minutes
	total time  =         17 seconds =       0.28 minutes
Total time:
	user time   =     249.75 seconds =       4.16 minutes
	system time =      41.31 seconds =       0.69 minutes
	total time  =        117 seconds =       1.95 minutes

  //>>>>>>>>>>>>>>>>>>>>>>>>>>>>>>>>>>>//
  //  CBS Results: mp2/aug-cc-pV[TQ]Z  //
  //<<<<<<<<<<<<<<<<<<<<<<<<<<<<<<<<<<<//


   ==> HF <==

   HI-zeta (4) Energy:               -76.065833830631


   ==> Helgaker 2-point correlated extrapolation for method: MP2 <==

   LO-zeta (3) Energy:               -76.328540488972
   HI-zeta (4) Energy:               -76.351525239925
   Alpha (exponent) Value:             3.000000000000
   Extrapolated Energy:              -76.368297896025

   @Extrapolated MP2/(T,Q):          -76.368297896025



   ==> Helgaker 2-point correlated extrapolation for method: HF <==

   LO-zeta (3) Energy:               -76.060448955783
   HI-zeta (4) Energy:               -76.065833830631
   Alpha (exponent) Value:             3.000000000000
   Extrapolated Energy:              -76.069763333899

   @Extrapolated HF/(T,Q):           -76.069763333899


   ==> Components <==

  ---------------------------------------------------------------------------------------------------------
                          Method / Basis                      Rqd      Energy [Eh]   Variable
  ---------------------------------------------------------------------------------------------------------
                              hf / aug-cc-pvtz                  *     -76.06044896   HF TOTAL ENERGY
                             mp2 / aug-cc-pvtz                  *     -76.32854049   MP2 TOTAL ENERGY
                              hf / aug-cc-pvqz                  *     -76.06583383   HF TOTAL ENERGY
                             mp2 / aug-cc-pvqz                  *     -76.35152524   MP2 TOTAL ENERGY
  ---------------------------------------------------------------------------------------------------------

   ==> Stages <==

  ---------------------------------------------------------------------------------------------------------
      Stage               Method / Basis                       Wt      Energy [Eh]   Scheme
  ---------------------------------------------------------------------------------------------------------
        scf                   hf / aug-cc-pvqz                  1     -76.06583383   xtpl_highest_1
       corl                  mp2 / aug-cc-pv[tq]z               1     -76.36829790   corl_xtpl_helgaker_2
       corl                   hf / aug-cc-pv[tq]z              -1     -76.06976333   corl_xtpl_helgaker_2
  ---------------------------------------------------------------------------------------------------------

   ==> CBS <==

  ---------------------------------------------------------------------------------------------------------
      Stage               Method / Basis                               Energy [Eh]   Scheme
  ---------------------------------------------------------------------------------------------------------
        scf                   hf / aug-cc-pvqz                        -76.06583383   xtpl_highest_1
       corl                  mp2 / aug-cc-pv[tq]z                      -0.29853456   corl_xtpl_helgaker_2
      total                  CBS                                      -76.36436839   
  ---------------------------------------------------------------------------------------------------------
   => Loading Basis Set <=

    Name: DEF2-SVP
    Role: ORBITAL
    Keyword: BASIS
    atoms 1-3    entry CL         line   356 file /home/bdw2292/miniconda3/envs/amoebamdpoltype/share/psi4/basis/def2-svp.gbs 
    atoms 4      entry C          line    90 file /home/bdw2292/miniconda3/envs/amoebamdpoltype/share/psi4/basis/def2-svp.gbs 
    atoms 5, 7-8 entry H          line    15 file /home/bdw2292/miniconda3/envs/amoebamdpoltype/share/psi4/basis/def2-svp.gbs 
    atoms 6      entry O          line   130 file /home/bdw2292/miniconda3/envs/amoebamdpoltype/share/psi4/basis/def2-svp.gbs 


       N-Body: Complex Energy (fragments = (2,), basis = (1, 2):   -76.36436839275726)

       N-Body: Computing complex (3/4) with fragments (1,) in the basis of fragments (1, 2).


  //>>>>>>>>>>>>>>>>>>>>>>>>>>>>>>>>>>>//
  //   CBS Setup: mp2/aug-cc-pV[TQ]Z   //
  //<<<<<<<<<<<<<<<<<<<<<<<<<<<<<<<<<<<//

    Naive listing of computations required.
             hf / aug-cc-pvqz              for  HF TOTAL ENERGY
            mp2 / aug-cc-pvtz              for  MP2 TOTAL ENERGY
            mp2 / aug-cc-pvqz              for  MP2 TOTAL ENERGY
[...]
     101A      0.565355   102A      0.570935   103A      0.576098  
     104A      0.579991   105A      0.590494   106A      0.597095  
     107A      0.605220   108A      0.610649   109A      0.614249  
     110A      0.618735   111A      0.619255   112A      0.624511  
     113A      0.630095   114A      0.652665   115A      0.654996  
     116A      0.664604   117A      0.682384   118A      0.685135  
     119A      0.695331   120A      0.704794   121A      0.710539  
     122A      0.716694   123A      0.724598   124A      0.738000  
     125A      0.747585   126A      0.756505   127A      0.763942  
     128A      0.767821   129A      0.771292   130A      0.777619  
     131A      0.785502   132A      0.789929   133A      0.805337  
     134A      0.811509   135A      0.815856   136A      0.822437  
     137A      0.834700   138A      0.838032   139A      0.857882  
     140A      0.866778   141A      0.869203   142A      0.871946  
     143A      0.882306   144A      0.887831   145A      0.895440  
     146A      0.907796   147A      0.910455   148A      0.925297  
     149A      0.968544   150A      0.969446   151A      0.988607  
     152A      0.991187   153A      1.015846   154A      1.018635  
     155A      1.043034   156A      1.064799   157A      1.074178  
     158A      1.099148   159A      1.105376   160A      1.120093  
     161A      1.129441   162A      1.140527   163A      1.147070  
     164A      1.147971   165A      1.157813   166A      1.164008  
     167A      1.176545   168A      1.180479   169A      1.206387  
     170A      1.222672   171A      1.233672   172A      1.235035  
     173A      1.239907   174A      1.245544   175A      1.259460  
     176A      1.263163   177A      1.268703   178A      1.279003  
     179A      1.283430   180A      1.292264   181A      1.312645  
     182A      1.317769   183A      1.347674   184A      1.367766  
     185A      1.422194   186A      1.449112   187A      1.451154  
     188A      1.482893   189A      1.513129   190A      1.524061  
     191A      1.527306   192A      1.536434   193A      1.558100  
     194A      1.559853   195A      1.567803   196A      1.602354  
     197A      1.624369   198A      1.648595   199A      1.651512  
     200A      1.680342   201A      1.691308   202A      1.695084  
     203A      1.700006   204A      1.706751   205A      1.726866  
     206A      1.734448   207A      1.738871   208A      1.742908  
     209A      1.749676   210A      1.766712   211A      1.772558  
     212A      1.779107   213A      1.784920   214A      1.791444  
     215A      1.795079   216A      1.804395   217A      1.811905  
     218A      1.818924   219A      1.822272   220A      1.828814  
     221A      1.831303   222A      1.847576   223A      1.877790  
     224A      1.880424   225A      1.883025   226A      1.890429  
     227A      1.902697   228A      1.919794   229A      1.927391  
     230A      1.930334   231A      1.936185   232A      1.942716  
     233A      1.959590   234A      1.964974   235A      1.966487  
     236A      1.998653   237A      2.001409   238A      2.011964  
     239A      2.014181   240A      2.018147   241A      2.022690  
     242A      2.035318   243A      2.036801   244A      2.039711  
     245A      2.046369   246A      2.057696   247A      2.061588  
     248A      2.112570   249A      2.114167   250A      2.115649  
     251A      2.121503   252A      2.122475   253A      2.129373  
     254A      2.147922   255A      2.180172   256A      2.186381  
     257A      2.193885   258A      2.197985   259A      2.200323  
     260A      2.214383   261A      2.214638   262A      2.224198  
     263A      2.227261   264A      2.232174   265A      2.238091  
     266A      2.245311   267A      2.267923   268A      2.276955  
     269A      2.289490   270A      2.295642   271A      2.303334  
     272A      2.304571   273A      2.308589   274A      2.316572  
     275A      2.333654   276A      2.398266   277A      2.403888  
     278A      2.408931   279A      2.414522   280A      2.453752  
     281A      2.457568   282A      2.460006   283A      2.479228  
     284A      2.481573   285A      2.491030   286A      2.508116  
     287A      2.545718   288A      2.547192   289A      2.571821  
     290A      2.580199   291A      2.592774   292A      2.616064  
     293A      2.635399   294A      2.638875   295A      2.641536  
     296A      2.646194   297A      2.683584   298A      2.741665  
     299A      2.821655   300A      2.823240   301A      2.865553  
     302A      2.896273   303A      2.902531   304A      2.903864  
     305A      2.905315   306A      2.909777   307A      2.966067  
     308A      2.997420   309A      2.998210   310A      3.021341  
     311A      3.028353   312A      3.051451   313A      3.088179  
     314A      3.094853   315A      3.120508   316A      3.125937  
     317A      3.168423   318A      3.172098   319A      3.267472  
     320A      3.289527   321A      3.302661   322A      3.310689  
     323A      3.320597   324A      3.327291   325A      3.329722  
     326A      3.389598   327A      3.393784   328A      3.476828  
     329A      3.478249   330A      3.488395   331A      3.531083  
     332A      3.539219   333A      3.546316   334A      3.547563  
     335A      3.601694   336A      3.641447   337A      3.670215  
     338A      3.687639   339A      3.743102   340A      3.745208  
     341A      3.755667   342A      3.763760   343A      3.768214  
     344A      3.851843   345A      3.854281   346A      3.941899  
     347A      3.970376   348A      3.975590   349A      3.984649  
     350A      4.080386   351A      4.170875   352A      4.174748  
     353A      4.185971   354A      4.198077   355A      4.241789  
     356A      4.258033   357A      4.289027   358A      4.291444  
     359A      4.362595   360A      4.422714   361A      4.423844  
     362A      4.429164   363A      4.451550   364A      4.474158  
     365A      4.505634   366A      4.541343   367A      4.547266  
     368A      4.570812   369A      4.596431   370A      4.599069  
     371A      4.663235   372A      4.663916   373A      4.665016  
     374A      4.668314   375A      4.709539   376A      4.711149  
     377A      4.712299   378A      4.714475   379A      4.715969  
     380A      4.720980   381A      4.744203   382A      4.745084  
     383A      4.753360   384A      4.768641   385A      4.769156  
     386A      4.770268   387A      4.778684   388A      4.788088  
     389A      4.789162   390A      4.797614   391A      4.803555  
     392A      4.812594   393A      4.817343   394A      4.826574  
     395A      4.830790   396A      4.841129   397A      4.856342  
     398A      4.858134   399A      4.875433   400A      4.884389  
     401A      4.890198   402A      4.891848   403A      4.911278  
     404A      4.917591   405A      4.919573   406A      4.929326  
     407A      4.947947   408A      4.949328   409A      4.959071  
     410A      4.982810   411A      4.987758   412A      4.989038  
     413A      5.008693   414A      5.035739   415A      5.056888  
     416A      5.085661   417A      5.086760   418A      5.154650  
     419A      5.155916   420A      5.201420   421A      5.251623  
     422A      5.254406   423A      5.293002   424A      5.296091  
     425A      5.309366   426A      5.319955   427A      5.387314  
     428A      5.389298   429A      5.412770   430A      5.418244  
     431A      5.516300   432A      5.517307   433A      5.520837  
     434A      5.571998   435A      5.578916   436A      5.708044  
     437A      5.887782   438A      5.895175   439A      6.081870  
     440A      6.240732   441A      6.450661   442A      6.480380  
     443A      6.482707   444A      6.517523   445A      6.519755  
     446A      6.687921   447A      6.716527   448A      6.717959  
     449A      6.722958   450A      6.782647   451A      6.819263  
     452A      6.822796   453A      6.838612   454A      6.862280  
     455A      6.863014   456A      6.893452   457A      6.896334  
     458A      6.907514   459A      6.959589   460A      6.962692  
     461A      6.981972   462A      7.086002   463A      7.192394  
     464A      7.195520   465A      7.215405   466A      7.215951  
     467A      7.395846   468A      7.399198   469A      7.426763  
     470A      7.515986   471A      7.614587   472A      7.615877  
     473A      7.715070   474A      7.733356   475A      7.734555  
     476A      7.806969   477A      7.814664   478A      7.836154  
     479A      7.847514   480A      7.882402   481A      7.894034  
     482A      7.923250   483A      7.951461   484A      8.003039  
     485A      8.009930   486A      8.011442   487A      8.199798  
     488A      8.343356   489A      8.345353   490A      8.540943  
     491A      8.592408   492A      8.618038   493A      8.618328  
     494A      8.705771   495A      8.709450   496A      8.715776  
     497A      8.767425   498A      8.804036   499A      8.841883  
     500A      8.880968   501A      8.989099   502A      9.065277  
     503A      9.149341   504A      9.326026   505A      9.326940  
     506A      9.530961   507A      9.545102   508A      9.715241  
     509A      9.716519   510A      9.845521   511A      9.973503  
     512A      9.982784   513A     10.016656   514A     10.429998  
     515A     10.430165   516A     10.441835   517A     10.486615  
     518A     10.682744   519A     10.697862   520A     11.003107  
     521A     11.039813   522A     11.084537   523A     11.279956  
     524A     11.371945   525A     11.455120   526A     11.698860  
     527A     11.803214   528A     11.841612   529A     12.016615  
     530A     12.177876   531A     12.228215   532A     12.541334  
     533A     12.740045   534A     12.883068   535A     12.902443  
     536A     12.939861   537A     13.212034   538A     14.000053  
     539A     14.053226   540A     14.492187   541A     14.849670  
     542A     14.879793   543A     15.304021   544A     16.942332  
     545A     17.271834   546A     25.527607   547A     26.672239  
     548A     26.692694   549A     27.339516   550A     45.535916  

    Final Occupation by Irrep:
              A 
    DOCC [    34 ]

  @DF-RHF Final Energy: -1493.08194405893005

   => Energetics <=

    Nuclear Repulsion Energy =            324.9824749591160185
    One-Electron Energy =               -2709.8607847491803113
    Two-Electron Energy =                 891.7963657311341876
    Total Energy =                      -1493.0819440589298210

Computation Completed


Properties will be evaluated at   0.000000,   0.000000,  -0.000000 [a0]

Properties computed using the SCF density matrix

  Nuclear Dipole Moment: [e a0]
     X:    -6.9644      Y:     7.9074      Z:    -1.7090

  Electronic Dipole Moment: [e a0]
     X:     6.7705      Y:    -8.3442      Z:     1.5611

  Dipole Moment: [e a0]
     X:    -0.1939      Y:    -0.4367      Z:    -0.1479     Total:     0.5002

  Dipole Moment: [D]
     X:    -0.4929      Y:    -1.1101      Z:    -0.3760     Total:     1.2714


*** tstop() called on node37.bme.utexas.edu at Tue Feb 22 18:52:39 2022
Module time:
	user time   =     194.80 seconds =       3.25 minutes
	system time =      36.95 seconds =       0.62 minutes
	total time  =         86 seconds =       1.43 minutes
Total time:
	user time   =     918.82 seconds =      15.31 minutes
	system time =     133.88 seconds =       2.23 minutes
	total time  =        401 seconds =       6.68 minutes

*** tstart() called on node37.bme.utexas.edu
*** at Tue Feb 22 18:52:39 2022


  //>>>>>>>>>>>>>>>>>>>>>>>>>>>>>>>>>>>//
  //               DFMP2               //
  //<<<<<<<<<<<<<<<<<<<<<<<<<<<<<<<<<<<//

   => Loading Basis Set <=

    Name: (AUG-CC-PVQZ AUX)
    Role: RIFIT
    Keyword: DF_BASIS_MP2
    atoms 1-3    entry CL         line   914 file /home/bdw2292/miniconda3/envs/amoebamdpoltype/share/psi4/basis/aug-cc-pvqz-ri.gbs 
    atoms 4      entry C          line   184 file /home/bdw2292/miniconda3/envs/amoebamdpoltype/share/psi4/basis/aug-cc-pvqz-ri.gbs 
    atoms 5, 7-8 entry H          line    30 file /home/bdw2292/miniconda3/envs/amoebamdpoltype/share/psi4/basis/aug-cc-pvqz-ri.gbs 
    atoms 6      entry O          line   332 file /home/bdw2292/miniconda3/envs/amoebamdpoltype/share/psi4/basis/aug-cc-pvqz-ri.gbs 

	 --------------------------------------------------------
	                          DF-MP2                         
	      2nd-Order Density-Fitted Moller-Plesset Theory     
	              RMP2 Wavefunction,   4 Threads             
	                                                         
	        Rob Parrish, Justin Turney, Andy Simmonett,      
	           Ed Hohenstein, and C. David Sherrill          
	 --------------------------------------------------------

   => Auxiliary Basis Set <=

  Basis Set: (AUG-CC-PVQZ AUX)
    Blend: AUG-CC-PVQZ-RI
    Number of shells: 264
    Number of basis function: 1158
    Number of Cartesian functions: 1593
    Spherical Harmonics?: true
    Max angular momentum: 5

	 --------------------------------------------------------
	                 NBF =   550, NAUX =  1158
	 --------------------------------------------------------
	   CLASS    FOCC     OCC    AOCC    AVIR     VIR    FVIR
	   PAIRS      17      34      17     516     516       0
	 --------------------------------------------------------

	-----------------------------------------------------------
	 ==================> DF-MP2 Energies <==================== 
	-----------------------------------------------------------
	 Reference Energy          =   -1493.0819440589300484 [Eh]
	 Singles Energy            =      -0.0000000000000000 [Eh]
	 Same-Spin Energy          =      -0.2645993097913967 [Eh]
	 Opposite-Spin Energy      =      -0.8367594207697142 [Eh]
	 Correlation Energy        =      -1.1013587305611110 [Eh]
	 Total Energy              =   -1494.1833027894911083 [Eh]
	-----------------------------------------------------------
	 ================> DF-SCS-MP2 Energies <================== 
	-----------------------------------------------------------
	 SCS Same-Spin Scale       =       0.3333333333333333 [-]
	 SCS Opposite-Spin Scale   =       1.2000000000000000 [-]
	 SCS Same-Spin Energy      =      -0.0881997699304655 [Eh]
	 SCS Opposite-Spin Energy  =      -1.0041113049236570 [Eh]
	 SCS Correlation Energy    =      -1.0923110748541225 [Eh]
	 SCS Total Energy          =   -1494.1742551337840723 [Eh]
	-----------------------------------------------------------


*** tstop() called on node37.bme.utexas.edu at Tue Feb 22 18:53:02 2022
Module time:
	user time   =      59.73 seconds =       1.00 minutes
	system time =       3.47 seconds =       0.06 minutes
	total time  =         23 seconds =       0.38 minutes
Total time:
	user time   =     978.55 seconds =      16.31 minutes
	system time =     137.35 seconds =       2.29 minutes
	total time  =        424 seconds =       7.07 minutes

  //>>>>>>>>>>>>>>>>>>>>>>>>>>>>>>>>>>>//
  //  CBS Results: mp2/aug-cc-pV[TQ]Z  //
  //<<<<<<<<<<<<<<<<<<<<<<<<<<<<<<<<<<<//


   ==> HF <==

   HI-zeta (4) Energy:               -1493.081944058930


   ==> Helgaker 2-point correlated extrapolation for method: MP2 <==

   LO-zeta (3) Energy:               -1494.087592105255
   HI-zeta (4) Energy:               -1494.183302789491
   Alpha (exponent) Value:             3.000000000000
   Extrapolated Energy:              -1494.253145721231

   @Extrapolated MP2/(T,Q):          -1494.253145721231



   ==> Helgaker 2-point correlated extrapolation for method: HF <==

   LO-zeta (3) Energy:               -1493.063052284662
   HI-zeta (4) Energy:               -1493.081944058930
   Alpha (exponent) Value:             3.000000000000
   Extrapolated Energy:              -1493.095729948261

   @Extrapolated HF/(T,Q):           -1493.095729948261


   ==> Components <==

  ---------------------------------------------------------------------------------------------------------
                          Method / Basis                      Rqd      Energy [Eh]   Variable
  ---------------------------------------------------------------------------------------------------------
                              hf / aug-cc-pvtz                  *   -1493.06305228   HF TOTAL ENERGY
                             mp2 / aug-cc-pvtz                  *   -1494.08759211   MP2 TOTAL ENERGY
                              hf / aug-cc-pvqz                  *   -1493.08194406   HF TOTAL ENERGY
                             mp2 / aug-cc-pvqz                  *   -1494.18330279   MP2 TOTAL ENERGY
  ---------------------------------------------------------------------------------------------------------

   ==> Stages <==

  ---------------------------------------------------------------------------------------------------------
      Stage               Method / Basis                       Wt      Energy [Eh]   Scheme
  ---------------------------------------------------------------------------------------------------------
        scf                   hf / aug-cc-pvqz                  1   -1493.08194406   xtpl_highest_1
       corl                  mp2 / aug-cc-pv[tq]z               1   -1494.25314572   corl_xtpl_helgaker_2
       corl                   hf / aug-cc-pv[tq]z              -1   -1493.09572995   corl_xtpl_helgaker_2
  ---------------------------------------------------------------------------------------------------------

   ==> CBS <==

  ---------------------------------------------------------------------------------------------------------
      Stage               Method / Basis                               Energy [Eh]   Scheme
  ---------------------------------------------------------------------------------------------------------
        scf                   hf / aug-cc-pvqz                      -1493.08194406   xtpl_highest_1
       corl                  mp2 / aug-cc-pv[tq]z                      -1.15741577   corl_xtpl_helgaker_2
      total                  CBS                                    -1494.23935983   
  ---------------------------------------------------------------------------------------------------------
   => Loading Basis Set <=

    Name: DEF2-SVP
    Role: ORBITAL
    Keyword: BASIS
    atoms 1-3    entry CL         line   356 file /home/bdw2292/miniconda3/envs/amoebamdpoltype/share/psi4/basis/def2-svp.gbs 
    atoms 4      entry C          line    90 file /home/bdw2292/miniconda3/envs/amoebamdpoltype/share/psi4/basis/def2-svp.gbs 
    atoms 5, 7-8 entry H          line    15 file /home/bdw2292/miniconda3/envs/amoebamdpoltype/share/psi4/basis/def2-svp.gbs 
    atoms 6      entry O          line   130 file /home/bdw2292/miniconda3/envs/amoebamdpoltype/share/psi4/basis/def2-svp.gbs 


       N-Body: Complex Energy (fragments = (1, 2), basis = (1, 2): -1494.23935983190017)

   ==> N-Body: Counterpoise Corrected (CP) energies <==

   n-Body     Total Energy [Eh]       I.E. [kcal/mol]      Delta [kcal/mol]
        1    -1494.238783615903        0.000000000000        0.000000000000
        2    -1494.239346401807       -0.353153486528       -0.353153486528

   => Loading Basis Set <=

    Name: DEF2-SVP
    Role: ORBITAL
    Keyword: BASIS
    atoms 1-3    entry CL         line   356 file /home/bdw2292/miniconda3/envs/amoebamdpoltype/share/psi4/basis/def2-svp.gbs 
    atoms 4      entry C          line    90 file /home/bdw2292/miniconda3/envs/amoebamdpoltype/share/psi4/basis/def2-svp.gbs 
    atoms 5, 7-8 entry H          line    15 file /home/bdw2292/miniconda3/envs/amoebamdpoltype/share/psi4/basis/def2-svp.gbs 
    atoms 6      entry O          line   130 file /home/bdw2292/miniconda3/envs/amoebamdpoltype/share/psi4/basis/def2-svp.gbs 

CP Energy =  -0.000563
    Psi4 stopped on: Tuesday, 22 February 2022 06:53PM
    Psi4 wall time for execution: 0:07:05.23

*** Psi4 exiting successfully. Buy a developer a beer!
