      -----------------------------------------------------------      
     |                   =====================                   |     
     |                           x T B                           |     
     |                   =====================                   |     
     |                         S. Grimme                         |     
     |          Mulliken Center for Theoretical Chemistry        |     
     |                    University of Bonn                     |     
      -----------------------------------------------------------      

   * xtb version 6.5.0 (97a52f5) compiled by 'conda@d2599ee0d4f4' on 2022-05-15

   xtb is free software: you can redistribute it and/or modify it under
   the terms of the GNU Lesser General Public License as published by
   the Free Software Foundation, either version 3 of the License, or
   (at your option) any later version.
   
   xtb is distributed in the hope that it will be useful,
   but WITHOUT ANY WARRANTY; without even the implied warranty of
   MERCHANTABILITY or FITNESS FOR A PARTICULAR PURPOSE.  See the
   GNU Lesser General Public License for more details.
   
   Cite this work as:
   * C. Bannwarth, E. Caldeweyher, S. Ehlert, A. Hansen, P. Pracht,
     J. Seibert, S. Spicher, S. Grimme, WIREs Comput. Mol. Sci., 2020, 11,
     e01493. DOI: 10.1002/wcms.1493
   
   for GFN2-xTB:
   * C. Bannwarth, S. Ehlert and S. Grimme., J. Chem. Theory Comput., 2019,
     15, 1652-1671. DOI: 10.1021/acs.jctc.8b01176
   for GFN1-xTB:
   * S. Grimme, C. Bannwarth, P. Shushkov, J. Chem. Theory Comput., 2017,
     13, 1989-2009. DOI: 10.1021/acs.jctc.7b00118
   for GFN0-xTB:
   * P. Pracht, E. Caldeweyher, S. Ehlert, S. Grimme, ChemRxiv, 2019, preprint.
     DOI: 10.26434/chemrxiv.8326202.v1
   for GFN-FF:
   * S. Spicher and S. Grimme, Angew. Chem. Int. Ed., 2020, 59, 15665-15673.
     DOI: 10.1002/anie.202004239
   
   for ALPB and GBSA implicit solvation:
   * S. Ehlert, M. Stahn, S. Spicher, S. Grimme, J. Chem. Theory Comput.,
     2021, 17, 4250-4261. DOI: 10.1021/acs.jctc.1c00471
   
   for DFT-D4:
   * E. Caldeweyher, C. Bannwarth and S. Grimme, J. Chem. Phys., 2017,
     147, 034112. DOI: 10.1063/1.4993215
   * E. Caldeweyher, S. Ehlert, A. Hansen, H. Neugebauer, S. Spicher,
     C. Bannwarth and S. Grimme, J. Chem. Phys., 2019, 150, 154122.
     DOI: 10.1063/1.5090222
   * E. Caldeweyher, J.-M. Mewes, S. Ehlert and S. Grimme, Phys. Chem. Chem. Phys.
     2020, 22, 8499-8512. DOI: 10.1039/D0CP00502A
   
   for sTDA-xTB:
   * S. Grimme and C. Bannwarth, J. Chem. Phys., 2016, 145, 054103.
     DOI: 10.1063/1.4959605
   
   in the mass-spec context:
   * V. Asgeirsson, C. Bauer and S. Grimme, Chem. Sci., 2017, 8, 4879.
     DOI: 10.1039/c7sc00601b
   * J. Koopman and S. Grimme, ACS Omega 2019, 4, 12, 15120-15133.
     DOI: 10.1021/acsomega.9b02011
   
   for metadynamics refer to:
   * S. Grimme, J. Chem. Theory Comput., 2019, 155, 2847-2862
     DOI: 10.1021/acs.jctc.9b00143
   
   for SPH calculations refer to:
   * S. Spicher and S. Grimme, J. Chem. Theory Comput., 2021, 17, 1701-1714
     DOI: 10.1021/acs.jctc.0c01306
   
   with help from (in alphabetical order)
   P. Atkinson, C. Bannwarth, F. Bohle, G. Brandenburg, E. Caldeweyher
   M. Checinski, S. Dohm, S. Ehlert, S. Ehrlich, I. Gerasimov, C. Hölzer
   A. Katbashev, J. Koopman, C. Lavigne, S. Lehtola, F. März, M. Müller,
   F. Musil, H. Neugebauer, J. Pisarek, C. Plett, P. Pracht, F. Pultar,
   J. Seibert, P. Shushkov, S. Spicher, M. Stahn, M. Steiner, T. Strunk,
   J. Stückrath, T. Rose, and J. Unsleber
   
 * started run on 2023/11/18 at 08:09:50.200     

           -------------------------------------------------
          |                Calculation Setup                |
           -------------------------------------------------

          program call               : /home/liuchw/anaconda3/envs/xtbenv/bin/xtb --gfn 2 --chrg 1 --uhf 0 32_40_Index_0-opt-2-3-303_preQMOPTprefit_xyzformat.xyz --opt --input xtb-opt-2-3-303_constr.txt
          hostname                   : node165.bme.utexas.edu
          coordinate file            : 32_40_Index_0-opt-2-3-303_preQMOPTprefit_xyzformat.xyz
          omp threads                :                    64

   ID    Z sym.   atoms
    1    1 H      1, 4-6, 9-14
    2    6 C      2, 7, 8
    3    7 N      3
constraining angle 5 2 3 4 to  302.9419044°, actual value:  -57.0580956°
constraining angle 5 2 3 7 to  186.0541994°, actual value: -173.9458006°
constraining angle 10 7 3 4 to  300.9664272°, actual value:  -59.0335728°
constraining angle 10 7 3 2 to   58.0339520°, actual value:   58.0339520°
constraining angle 11 8 3 4 to   62.9448065°, actual value:   62.9448065°
constraining angle 11 8 3 2 to  306.0484891°, actual value:  -53.9515109°

           -------------------------------------------------
          |                 G F N 2 - x T B                 |
           -------------------------------------------------

        Reference                      10.1021/acs.jctc.8b01176
      * Hamiltonian:
        H0-scaling (s, p, d)           1.850000    2.230000    2.230000
        zeta-weighting                 0.500000
      * Dispersion:
        s8                             2.700000
        a1                             0.520000
        a2                             5.000000
        s9                             5.000000
      * Repulsion:
        kExp                           1.500000    1.000000
        rExp                           1.000000
      * Coulomb:
        alpha                          2.000000
        third order                    shell-resolved
        anisotropic                    true
        a3                             3.000000
        a5                             4.000000
        cn-shift                       1.200000
        cn-exp                         4.000000
        max-rad                        5.000000

q/qsh data taken from xtbrestart
CAMM data taken from xtbrestart

          ...................................................
          :                      SETUP                      :
          :.................................................:
          :  # basis functions                  26          :
          :  # atomic orbitals                  26          :
          :  # shells                           18          :
          :  # electrons                        26          :
          :  max. iterations                   250          :
          :  Hamiltonian                  GFN2-xTB          :
          :  restarted?                       true          :
          :  GBSA solvation                  false          :
          :  PC potential                    false          :
          :  electronic temp.          300.0000000     K    :
          :  accuracy                    1.0000000          :
          :  -> integral cutoff          0.2500000E+02      :
          :  -> integral neglect         0.1000000E-07      :
          :  -> SCF convergence          0.1000000E-05 Eh   :
          :  -> wf. convergence          0.1000000E-03 e    :
          :  Broyden damping             0.4000000          :
          ...................................................

 iter      E             dE          RMSdq      gap      omega  full diag
   1    -14.2001337 -0.142001E+02  0.507E-01   10.21       0.0  T
   2    -14.2004668 -0.333040E-03  0.294E-01   10.22       1.0  T
   3    -14.2004747 -0.791222E-05  0.101E-01   10.22       1.0  T
   4    -14.2004768 -0.211009E-05  0.123E-02   10.22       2.2  T
   5    -14.2004769 -0.461292E-07  0.198E-03   10.22      13.5  T
   6    -14.2004769 -0.228711E-08  0.727E-04   10.22      36.8  T
   7    -14.2004769 -0.405404E-09  0.119E-04   10.22     223.7  T

   *** convergence criteria satisfied after 7 iterations ***

         #    Occupation            Energy/Eh            Energy/eV
      -------------------------------------------------------------
         1        2.0000           -0.8829328             -24.0258
       ...           ...                  ...                  ...
         7        2.0000           -0.7361254             -20.0310
         8        2.0000           -0.6788669             -18.4729
         9        2.0000           -0.6786559             -18.4672
        10        2.0000           -0.6667896             -18.1443
        11        2.0000           -0.6664252             -18.1344
        12        2.0000           -0.6616217             -18.0036
        13        2.0000           -0.6597846             -17.9537 (HOMO)
        14                         -0.2840523              -7.7295 (LUMO)
        15                         -0.1926822              -5.2431
        16                         -0.1898399              -5.1658
        17                         -0.1464459              -3.9850
        18                         -0.0657512              -1.7892
       ...                                ...                  ...
        26                          0.0414594               1.1282
      -------------------------------------------------------------
                  HL-Gap            0.3757322 Eh           10.2242 eV
             Fermi-level           -0.4719184 Eh          -12.8416 eV

 SCC (total)                   0 d,  0 h,  0 min,  1.561 sec
 SCC setup                      ...        0 min,  0.017 sec (  1.111%)
 Dispersion                     ...        0 min,  0.063 sec (  4.031%)
 classical contributions        ...        0 min,  0.116 sec (  7.418%)
 integral evaluation            ...        0 min,  0.121 sec (  7.752%)
 iterations                     ...        0 min,  0.941 sec ( 60.264%)
 molecular gradient             ...        0 min,  0.303 sec ( 19.395%)
 printout                       ...        0 min,  0.000 sec (  0.010%)

         :::::::::::::::::::::::::::::::::::::::::::::::::::::
         ::                     SUMMARY                     ::
         :::::::::::::::::::::::::::::::::::::::::::::::::::::
         :: total energy             -14.015722418988 Eh    ::
         :: gradient norm              0.037032347786 Eh/a0 ::
         :: HOMO-LUMO gap             10.224194100020 eV    ::
         ::.................................................::
         :: SCC energy               -14.200476853896 Eh    ::
         :: -> isotropic ES            0.096818864675 Eh    ::
         :: -> anisotropic ES         -0.010225526640 Eh    ::
         :: -> anisotropic XC          0.013071420295 Eh    ::
         :: -> dispersion             -0.005241613294 Eh    ::
         :: repulsion energy           0.184746803325 Eh    ::
         :: add. restraining           0.000000000000 Eh    ::
         :: total charge               1.000000000000 e     ::
         :::::::::::::::::::::::::::::::::::::::::::::::::::::

      ----------------------------------------------------------- 
     |                   =====================                   |
     |                        A N C O P T                        |
     |                   =====================                   |
     |               Approximate Normal Coordinate               |
     |                Rational Function Optimizer                |
      ----------------------------------------------------------- 

          ...................................................
          :                      SETUP                      :
          :.................................................:
          :   optimization level            normal          :
          :   max. optcycles                   200          :
          :   ANC micro-cycles                  20          :
          :   degrees of freedom                36          :
          :.................................................:
          :   RF solver                   davidson          :
          :   write xtbopt.log                true          :
          :   linear?                        false          :
          :   energy convergence         0.5000000E-05 Eh   :
          :   grad. convergence          0.1000000E-02 Eh/α :
          :   maximium RF displ.         1.0000000          :
          :   Hlow (freq-cutoff)         0.1000000E-01      :
          :   Hmax (freq-cutoff)         5.0000000          :
          :   S6 in model hess.         20.0000000          :
          ...................................................

generating ANC from model Hessian ...
Using Lindh-Hessian (1995)
 Shifting diagonal of input Hessian by    0.0000000000000000     
 Lowest  eigenvalues of input Hessian
    0.000000    0.000000    0.000000    0.000000    0.000000    0.000000
    0.012642    0.014246    0.027066    0.031859    0.033489    0.042257
    0.051740    0.057511    0.059888    0.060780    0.062234    0.064567
 Highest eigenvalues
    1.176150    4.190310    6.140901    8.357632   10.758022   13.771678


........................................................................
.............................. CYCLE    1 ..............................
........................................................................
   1    -14.2004769 -0.142005E+02  0.358E-05   10.22       0.0  T
   2    -14.2004769 -0.779821E-12  0.197E-05   10.22    1360.0  T
   3    -14.2004769 -0.135003E-12  0.317E-06   10.22    8431.7  T
     SCC iter.                  ...        0 min,  0.401 sec
     gradient                   ...        0 min,  0.321 sec
 * total energy  :   -14.0157224 Eh     change       -0.1609735E-10 Eh
   gradient norm :     0.0370321 Eh/α   predicted     0.0000000E+00 (-100.00%)
   displ. norm   :     0.1753760 α      lambda       -0.3743378E-02
   maximum displ.:     0.0942478 α      in ANC's #3, #7, #19, ...

........................................................................
.............................. CYCLE    2 ..............................
........................................................................
   1    -14.2139762 -0.142140E+02  0.151E-01   10.91       0.0  T
   2    -14.2140786 -0.102445E-03  0.804E-02   10.90       1.0  T
   3    -14.2140799 -0.133783E-05  0.446E-02   10.90       1.0  T
   4    -14.2140803 -0.341566E-06  0.519E-03   10.90       5.2  T
   5    -14.2140803 -0.140049E-07  0.101E-03   10.90      26.5  T
   6    -14.2140803 -0.128743E-09  0.323E-04   10.90      82.8  T
   7    -14.2140803 -0.545377E-10  0.412E-05   10.90     649.3  T
     SCC iter.                  ...        0 min,  0.901 sec
     gradient                   ...        0 min,  0.331 sec
 * total energy  :   -14.0183052 Eh     change       -0.2582790E-02 Eh
   gradient norm :     0.0183447 Eh/α   predicted    -0.1929257E-02 ( -25.30%)
   displ. norm   :     0.0983688 α      lambda       -0.9980376E-03
   maximum displ.:     0.0546687 α      in ANC's #3, #2, #19, ...

........................................................................
.............................. CYCLE    3 ..............................
........................................................................
   1    -14.2187444 -0.142187E+02  0.112E-01   11.37       0.0  T
   2    -14.2187898 -0.454456E-04  0.605E-02   11.36       1.0  T
   3    -14.2187903 -0.446940E-06  0.314E-02   11.36       1.0  T
   4    -14.2187904 -0.101975E-06  0.312E-03   11.36       8.6  T
   5    -14.2187904 -0.492451E-08  0.865E-04   11.36      30.9  T
   6    -14.2187904 -0.956248E-10  0.200E-04   11.36     133.6  T
     SCC iter.                  ...        0 min,  0.782 sec
     gradient                   ...        0 min,  0.337 sec
 * total energy  :   -14.0187947 Eh     change       -0.4895336E-03 Eh
   gradient norm :     0.0034018 Eh/α   predicted    -0.5038500E-03 (   2.92%)
   displ. norm   :     0.0101180 α      lambda       -0.1449019E-04
   maximum displ.:     0.0060275 α      in ANC's #7, #2, #19, ...

........................................................................
.............................. CYCLE    4 ..............................
........................................................................
   1    -14.2176810 -0.142177E+02  0.872E-03   11.34       0.0  T
   2    -14.2176811 -0.813064E-07  0.494E-03   11.34       5.4  T
   3    -14.2176811 -0.389693E-08  0.130E-03   11.34      20.5  T
   4    -14.2176811 -0.256849E-09  0.256E-04   11.34     104.5  T
   5    -14.2176811 -0.139853E-10  0.629E-05   11.34     425.2  T
     SCC iter.                  ...        0 min,  0.577 sec
     gradient                   ...        0 min,  0.327 sec
 * total energy  :   -14.0188024 Eh     change       -0.7672061E-05 Eh
   gradient norm :     0.0034690 Eh/α   predicted    -0.7244848E-05 (  -5.57%)
   displ. norm   :     0.0037439 α      lambda       -0.3467695E-05
   maximum displ.:     0.0016955 α      in ANC's #2, #19, #7, ...

........................................................................
.............................. CYCLE    5 ..............................
........................................................................
   1    -14.2171929 -0.142172E+02  0.371E-03   11.34       0.0  T
   2    -14.2171929 -0.153106E-07  0.208E-03   11.34      12.8  T
   3    -14.2171929 -0.684183E-09  0.546E-04   11.34      48.9  T
   4    -14.2171929 -0.503704E-10  0.109E-04   11.34     244.9  T
     SCC iter.                  ...        0 min,  0.338 sec
     gradient                   ...        0 min,  0.201 sec
 * total energy  :   -14.0188019 Eh     change        0.4798315E-06 Eh
   gradient norm :     0.0056752 Eh/α   predicted    -0.1735530E-05 (-461.70%)
   displ. norm   :     0.0027522 α      lambda       -0.2780807E-05
   maximum displ.:     0.0015594 α      in ANC's #2, #7, #1, ...

........................................................................
.............................. CYCLE    6 ..............................
........................................................................
   1    -14.2173787 -0.142174E+02  0.209E-03   11.34       0.0  T
   2    -14.2173787 -0.518540E-08  0.118E-03   11.34      22.7  T
   3    -14.2173787 -0.284567E-09  0.329E-04   11.34      81.2  T
   4    -14.2173787 -0.184279E-10  0.679E-05   11.34     393.6  T
     SCC iter.                  ...        0 min,  0.389 sec
     gradient                   ...        0 min,  0.236 sec
 * total energy  :   -14.0188033 Eh     change       -0.1356447E-05 Eh
   gradient norm :     0.0003180 Eh/α   predicted    -0.1391230E-05 (   2.56%)
   displ. norm   :     0.0010480 α      lambda       -0.4586482E-07
   maximum displ.:     0.0006759 α      in ANC's #1, #9, #12, ...

   *** GEOMETRY OPTIMIZATION CONVERGED AFTER 6 ITERATIONS ***

------------------------------------------------------------------------
 total energy gain   :        -0.0030809 Eh       -1.9333 kcal/mol
 total RMSD          :         0.0712497 a0        0.0377 Å
 total power (kW/mol):        -1.3481383 (step)   -1.1700 (real)
------------------------------------------------------------------------

 ANCopt (total)                0 d,  0 h,  0 min,  6.913 sec
 optimizer setup                ...        0 min,  0.000 sec (  0.004%)
 model hessian                  ...        0 min,  0.017 sec (  0.244%)
 ANC generation                 ...        0 min,  0.139 sec (  2.006%)
 coordinate transformation      ...        0 min,  0.000 sec (  0.003%)
 single point calculation       ...        0 min,  6.576 sec ( 95.113%)
 optimization log               ...        0 min,  0.008 sec (  0.110%)
 hessian update                 ...        0 min,  0.172 sec (  2.487%)
 rational function              ...        0 min,  0.001 sec (  0.018%)

================
 final structure:
================
14
 xtb: 6.5.0 (97a52f5)
H            1.44867898285961        1.16160964835902        0.26752529751586
C            1.09407372047777        0.63853454700441       -0.61927205981863
N           -0.09747515847774       -0.16241264595426       -0.28263553297495
H           -0.36718591642598       -0.67395981129433       -1.13179437358335
H            1.89004150746382       -0.00263896050976       -0.99293987657790
H            0.85321549789103        1.37374591902875       -1.38514393877220
C           -1.23886010549814        0.69097470176593        0.09171210646158
C            0.21001071896988       -1.15459606188221        0.76244730641474
H           -0.98917771283777        1.27015921726229        0.97968408984995
H           -1.48107819303572        1.37787743725983       -0.71688407807848
H            1.06084686554412       -1.76553251204511        0.46728622026623
H            0.45569170116748       -0.64236078083965        1.69173297423370
H           -2.11400376072125        0.08075967730161        0.30714419412076
H           -0.64618313737713       -1.80338838545653        0.93714568094264

 Bond Distances (Angstroems)
 ---------------------------
H1-C2=1.0889         C2-H1=1.0889         C2-N3=1.4747         C2-H5=1.0883         C2-H6=1.0886         N3-C2=1.4747         
N3-H4=1.0274         N3-C7=1.4735         N3-C8=1.4735         H4-N3=1.0274         H5-C2=1.0883         H6-C2=1.0886         
C7-N3=1.4735         C7-H9=1.0892         C7-H10=1.0883        C7-H13=1.0884        C8-N3=1.4735         C8-H11=1.0882        
C8-H12=1.0892        C8-H14=1.0884        H9-C7=1.0892         H10-C7=1.0883        H11-C8=1.0882        H12-C8=1.0892        
H13-C7=1.0884        H14-C8=1.0884        
 C  H  Rav=1.0886 sigma=0.0004  Rmin=1.0882  Rmax=1.0892     9
 N  H  Rav=1.0274 sigma=0.0000  Rmin=1.0274  Rmax=1.0274     1
 N  C  Rav=1.4739 sigma=0.0006  Rmin=1.4735  Rmax=1.4747     3

 selected bond angles (degree)
 --------------------
N3-C2-H1=109.76                H5-C2-H1=108.93                H5-C2-N3=110.45                H6-C2-H1=108.70                
H6-C2-N3=110.40                H6-C2-H5=108.55                H4-N3-C2=107.09                C7-N3-C2=111.67                
C7-N3-H4=107.16                C8-N3-C2=111.04                C8-N3-H4=107.80                C8-N3-C7=111.80                
H9-C7-N3=109.73                H10-C7-N3=110.44               H10-C7-H9=108.73               H13-C7-N3=110.39               
H13-C7-H9=108.73               H13-C7-H10=108.78              H11-C8-N3=110.41               H12-C8-N3=109.60               
H12-C8-H11=108.61              H14-C8-N3=110.55               H14-C8-H11=108.90              H14-C8-H12=108.71              

 selected dihedral angles (degree)
 ---------------------------------
H4-N3-C2-H1=182.88            H4-N3-C2-H5=303.00            H4-N3-C2-H6= 63.07            C7-N3-C2-H1= 65.86            
C7-N3-C2-H5=185.98            C7-N3-C2-H6=306.05            C8-N3-C2-H1=300.33            C8-N3-C2-H5= 60.45            
C8-N3-C2-H6=180.52            H9-C7-N3-C2=298.14            H9-C7-N3-H4=181.16            H9-C7-N3-C8= 63.25            
H10-C7-N3-C2= 57.99           H10-C7-N3-H4=301.01           H10-C7-N3-C8=183.10           H13-C7-N3-C2=178.33           
H13-C7-N3-H4= 61.35           H13-C7-N3-C8=303.44           H11-C8-N3-C2=305.99           H11-C8-N3-H4= 63.00           
H11-C8-N3-C7=180.53           H12-C8-N3-C2= 65.59           H12-C8-N3-H4=182.60           H12-C8-N3-C7=300.13           
H14-C8-N3-C2=185.41           H14-C8-N3-H4=302.42           H14-C8-N3-C7= 59.95           
           -------------------------------------------------
          |                Final Singlepoint                |
           -------------------------------------------------

          ...................................................
          :                      SETUP                      :
          :.................................................:
          :  # basis functions                  26          :
          :  # atomic orbitals                  26          :
          :  # shells                           18          :
          :  # electrons                        26          :
          :  max. iterations                   250          :
          :  Hamiltonian                  GFN2-xTB          :
          :  restarted?                      false          :
          :  GBSA solvation                  false          :
          :  PC potential                    false          :
          :  electronic temp.          300.0000000     K    :
          :  accuracy                    1.0000000          :
          :  -> integral cutoff          0.2500000E+02      :
          :  -> integral neglect         0.1000000E-07      :
          :  -> SCF convergence          0.1000000E-05 Eh   :
          :  -> wf. convergence          0.1000000E-03 e    :
          :  Broyden damping             0.4000000          :
          ...................................................

 iter      E             dE          RMSdq      gap      omega  full diag
   1    -14.2173787 -0.142174E+02  0.908E-06   11.34       0.0  T
   2    -14.2173787 -0.568434E-13  0.500E-06   11.34    5345.8  T
   3    -14.2173787  0.106581E-13  0.116E-06   11.34   23111.8  T

   *** convergence criteria satisfied after 3 iterations ***

         #    Occupation            Energy/Eh            Energy/eV
      -------------------------------------------------------------
         1        2.0000           -0.8928579             -24.2959
       ...           ...                  ...                  ...
         7        2.0000           -0.7410025             -20.1637
         8        2.0000           -0.6809124             -18.5286
         9        2.0000           -0.6804742             -18.5166
        10        2.0000           -0.6670027             -18.1501
        11        2.0000           -0.6664625             -18.1354
        12        2.0000           -0.6615314             -18.0012
        13        2.0000           -0.6601236             -17.9629 (HOMO)
        14                         -0.2432580              -6.6194 (LUMO)
        15                         -0.1543848              -4.2010
        16                         -0.1514309              -4.1206
        17                         -0.1412581              -3.8438
        18                         -0.0566733              -1.5422
       ...                                ...                  ...
        26                          0.0521635               1.4194
      -------------------------------------------------------------
                  HL-Gap            0.4168656 Eh           11.3435 eV
             Fermi-level           -0.4516908 Eh          -12.2911 eV

 SCC (total)                   0 d,  0 h,  0 min,  0.623 sec
 SCC setup                      ...        0 min,  0.012 sec (  1.912%)
 Dispersion                     ...        0 min,  0.050 sec (  8.011%)
 classical contributions        ...        0 min,  0.023 sec (  3.738%)
 integral evaluation            ...        0 min,  0.067 sec ( 10.685%)
 iterations                     ...        0 min,  0.265 sec ( 42.593%)
 molecular gradient             ...        0 min,  0.205 sec ( 32.982%)
 printout                       ...        0 min,  0.000 sec (  0.023%)

         :::::::::::::::::::::::::::::::::::::::::::::::::::::
         ::                     SUMMARY                     ::
         :::::::::::::::::::::::::::::::::::::::::::::::::::::
         :: total energy             -14.018803291629 Eh    ::
         :: gradient norm              0.000318044210 Eh/a0 ::
         :: HOMO-LUMO gap             11.343489634456 eV    ::
         ::.................................................::
         :: SCC energy               -14.217378656291 Eh    ::
         :: -> isotropic ES            0.097866259912 Eh    ::
         :: -> anisotropic ES         -0.010202656802 Eh    ::
         :: -> anisotropic XC          0.012187570239 Eh    ::
         :: -> dispersion             -0.005288354024 Eh    ::
         :: repulsion energy           0.198553443671 Eh    ::
         :: add. restraining           0.000015092246 Eh    ::
         :: total charge               1.000000000000 e     ::
         :::::::::::::::::::::::::::::::::::::::::::::::::::::

           -------------------------------------------------
          |                Property Printout                |
           -------------------------------------------------

    * Orbital Energies and Occupations

         #    Occupation            Energy/Eh            Energy/eV
      -------------------------------------------------------------
         1        2.0000           -0.8928579             -24.2959
         2        2.0000           -0.8460472             -23.0221
         3        2.0000           -0.8455014             -23.0073
         4        2.0000           -0.8121015             -22.0984
         5        2.0000           -0.7640668             -20.7913
         6        2.0000           -0.7411196             -20.1669
         7        2.0000           -0.7410025             -20.1637
         8        2.0000           -0.6809124             -18.5286
         9        2.0000           -0.6804742             -18.5166
        10        2.0000           -0.6670027             -18.1501
        11        2.0000           -0.6664625             -18.1354
        12        2.0000           -0.6615314             -18.0012
        13        2.0000           -0.6601236             -17.9629 (HOMO)
        14                         -0.2432580              -6.6194 (LUMO)
        15                         -0.1543848              -4.2010
        16                         -0.1514309              -4.1206
        17                         -0.1412581              -3.8438
        18                         -0.0566733              -1.5422
        19                         -0.0026231              -0.0714
        20                         -0.0016253              -0.0442
        21                          0.0197712               0.5380
        22                          0.0225279               0.6130
        23                          0.0389167               1.0590
        24                          0.0394707               1.0741
       ...                                ...                  ...
        26                          0.0521635               1.4194
      -------------------------------------------------------------
                  HL-Gap            0.4168656 Eh           11.3435 eV
             Fermi-level           -0.4516908 Eh          -12.2911 eV

     #   Z          covCN         q      C6AA      α(0)
     1   1 H        0.925     0.114     1.666     2.018
     2   6 C        3.701    -0.103    22.639     6.804
     3   7 N        3.577     0.082    19.821     6.612
     4   1 H        0.859     0.234     0.950     1.527
     5   1 H        0.925     0.108     1.711     2.045
     6   1 H        0.925     0.109     1.705     2.042
     7   6 C        3.699    -0.103    22.638     6.805
     8   6 C        3.701    -0.103    22.635     6.803
     9   1 H        0.925     0.113     1.668     2.020
    10   1 H        0.925     0.109     1.708     2.044
    11   1 H        0.925     0.110     1.700     2.039
    12   1 H        0.925     0.113     1.669     2.020
    13   1 H        0.925     0.109     1.703     2.041
    14   1 H        0.925     0.109     1.709     2.044

 Mol. C6AA /au·bohr⁶  :        983.612024
 Mol. C8AA /au·bohr⁸  :      20045.562759
 Mol. α(0) /au        :         46.864647


Wiberg/Mayer (AO) data.
largest (>0.10) Wiberg bond orders for each atom

 ---------------------------------------------------------------------------
     #   Z sym  total        # sym  WBO       # sym  WBO       # sym  WBO
 ---------------------------------------------------------------------------
     1   1 H    0.987 --     2 C    0.974
     2   6 C    3.912 --     5 H    0.975     6 H    0.974     1 H    0.974
                             3 N    0.957
     3   7 N    3.788 --     8 C    0.958     7 C    0.958     2 C    0.957
                             4 H    0.914
     4   1 H    0.945 --     3 N    0.914
     5   1 H    0.988 --     2 C    0.975
     6   1 H    0.988 --     2 C    0.974
     7   6 C    3.912 --    10 H    0.974    13 H    0.974     9 H    0.974
                             3 N    0.958
     8   6 C    3.912 --    14 H    0.975    11 H    0.974    12 H    0.974
                             3 N    0.958
     9   1 H    0.987 --     7 C    0.974
    10   1 H    0.988 --     7 C    0.974
    11   1 H    0.988 --     8 C    0.974
    12   1 H    0.987 --     8 C    0.974
    13   1 H    0.988 --     7 C    0.974
    14   1 H    0.988 --     8 C    0.975
 ---------------------------------------------------------------------------

Topologies differ in total number of bonds
Writing topology from bond orders to xtbtopo.mol

molecular dipole:
                 x           y           z       tot (Debye)
 q only:       -0.084      -0.127      -0.243
   full:       -0.133      -0.218      -0.396       1.199
molecular quadrupole (traceless):
                xx          xy          yy          xz          yz          zz
 q only:        0.792      -0.409       0.199      -0.607      -1.209      -0.991
  q+dip:        0.026      -0.022      -0.045       0.015      -0.018       0.019
   full:        0.283      -0.151       0.035      -0.193      -0.420      -0.318

           -------------------------------------------------
          |                Geometry Summary                 |
           -------------------------------------------------

      molecular mass/u    :       60.1183184
   center of mass at/Å    :       -0.0078210       0.0034138      -0.0118184
  moments of inertia/u·Å² :        0.6068420E+02   0.6117841E+02   0.1047307E+03
rotational constants/cm⁻¹ :        0.2777928E+00   0.2755487E+00   0.1609617E+00

 * 13 selected distances

     #   Z          #   Z                                           value/Å
     1   1 H        2   6 C                                       1.0889271
     2   6 C        3   7 N                                       1.4746626 (max)
     3   7 N        4   1 H                                       1.0273730 (min)
     2   6 C        5   1 H                                       1.0882537
     2   6 C        6   1 H                                       1.0886268
     3   7 N        7   6 C                                       1.4734877
     3   7 N        8   6 C                                       1.4734904
     7   6 C        9   1 H                                       1.0891696
     7   6 C       10   1 H                                       1.0882706
     8   6 C       11   1 H                                       1.0882490
     8   6 C       12   1 H                                       1.0891814
     7   6 C       13   1 H                                       1.0884163
     8   6 C       14   1 H                                       1.0883562

 * 3 distinct bonds (by element types)

   Z      Z             #   av. dist./Å        max./Å        min./Å
   1 H    6 C           9     1.0886056     1.0891814     1.0882490
   1 H    7 N           1     1.0273730     1.0273730     1.0273730
   6 C    7 N           3     1.4738802     1.4746626     1.4734877


optimized geometry written to: xtbopt.xyz


           -------------------------------------------------
          | TOTAL ENERGY              -14.018803291629 Eh   |
          | GRADIENT NORM               0.000318044210 Eh/α |
          | HOMO-LUMO GAP              11.343489634456 eV   |
           -------------------------------------------------
########################################################################
[WARNING] Runtime exception occurred
-1- restart_readRestart: Number of electron missmatch in restart file.
########################################################################

------------------------------------------------------------------------
 * finished run on 2023/11/18 at 08:09:59.635     
------------------------------------------------------------------------
 total:
 * wall-time:     0 d,  0 h,  0 min,  9.436 sec
 *  cpu-time:     0 d,  0 h,  3 min,  5.158 sec
 * ratio c/w:    19.623 speedup
 SCF:
 * wall-time:     0 d,  0 h,  0 min,  1.562 sec
 *  cpu-time:     0 d,  0 h,  0 min, 27.351 sec
 * ratio c/w:    17.515 speedup
 ANC optimizer:
 * wall-time:     0 d,  0 h,  0 min,  7.592 sec
 *  cpu-time:     0 d,  0 h,  2 min, 32.827 sec
 * ratio c/w:    20.130 speedup

