
    -----------------------------------------------------------------------
          Psi4: An Open-Source Ab Initio Electronic Structure Package
                               Psi4 1.6 release

                         Git: Rev {HEAD} 77475b5 


    D. G. A. Smith, L. A. Burns, A. C. Simmonett, R. M. Parrish,
    M. C. Schieber, R. Galvelis, P. Kraus, H. Kruse, R. Di Remigio,
    A. Alenaizan, A. M. James, S. Lehtola, J. P. Misiewicz, M. Scheurer,
    R. A. Shaw, J. B. Schriber, Y. Xie, Z. L. Glick, D. A. Sirianni,
    J. S. O'Brien, J. M. Waldrop, A. Kumar, E. G. Hohenstein,
    B. P. Pritchard, B. R. Brooks, H. F. Schaefer III, A. Yu. Sokolov,
    K. Patkowski, A. E. DePrince III, U. Bozkaya, R. A. King,
    F. A. Evangelista, J. M. Turney, T. D. Crawford, C. D. Sherrill,
    J. Chem. Phys. 152(18) 184108 (2020). https://doi.org/10.1063/5.0006002

                            Additional Code Authors
    E. T. Seidl, C. L. Janssen, E. F. Valeev, M. L. Leininger,
    J. F. Gonthier, R. M. Richard, H. R. McAlexander, M. Saitow, X. Wang,
    P. Verma, M. H. Lechner, and A. Jiang

             Previous Authors, Complete List of Code Contributors,
                       and Citations for Specific Modules
    https://github.com/psi4/psi4/blob/master/codemeta.json
    https://github.com/psi4/psi4/graphs/contributors
    http://psicode.org/psi4manual/master/introduction.html#citing-psifour

    -----------------------------------------------------------------------


    Psi4 started on: Saturday, 18 November 2023 08:10AM

    Process ID: 1115369
    Host:       node165.bme.utexas.edu
    PSIDATADIR: /home/liuchw/anaconda3/envs/poltype2022/share/psi4
    Memory:     500.0 MiB
    Threads:    1
    
  ==> Input File <==

--------------------------------------------------------------------------
molecule { 
1 1
 H    1.864670   -0.008601   -1.169015
 C    1.138565    0.581294   -0.616343
 N   -0.036501   -0.236550   -0.234059
 H   -0.143863   -0.965026   -0.949614
 H    0.831615    1.439122   -1.210543
 H    1.619340    0.970902    0.280661
 C   -1.283225    0.549841   -0.233722
 C    0.180445   -0.920416    1.053138
 H   -1.210699    1.351110    0.500893
 H   -1.457379    0.987423   -1.214624
 H    1.103875   -1.495987    1.022904
 H    0.247714   -0.185106    1.853597
 H   -2.130578   -0.083184    0.023447
 H   -0.645383   -1.596050    1.269287
}
memory 20GB
set_num_threads(5)
psi4_io.set_default_path("/scratch/liuchw/Psi4-32_40_Index_0-farH_in17")
set freeze_core True
E, wfn = energy('wb97x-d/6-311+G*',return_wfn=True)
oeprop(wfn,"WIBERG_LOWDIN_INDICES")
clean()
--------------------------------------------------------------------------

  Memory set to  18.626 GiB by Python driver.
  Threads set to 5 by Python driver.

Scratch directory: /scratch/liuchw/Psi4-32_40_Index_0-farH_in17/

*** tstart() called on node165.bme.utexas.edu
*** at Sat Nov 18 08:10:45 2023

   => Loading Basis Set <=

    Name: 6-311+G*
    Role: ORBITAL
    Keyword: BASIS
    atoms 1, 4-6, 9-14 entry H          line    47 file /home/liuchw/anaconda3/envs/poltype2022/share/psi4/basis/6-311pgs.gbs 
    atoms 2, 7-8       entry C          line   130 file /home/liuchw/anaconda3/envs/poltype2022/share/psi4/basis/6-311pgs.gbs 
    atoms 3            entry N          line   151 file /home/liuchw/anaconda3/envs/poltype2022/share/psi4/basis/6-311pgs.gbs 

   => WB97X-D: Empirical Dispersion <=

    Chai and Head-Gordon Dispersion Correction
    Chai, J.-D.; Head-Gordon, M. (2010), J. Chem. Phys., 132: 6615-6620

        s6 =       1.000000


         ---------------------------------------------------------
                                   SCF
               by Justin Turney, Rob Parrish, Andy Simmonett
                          and Daniel G. A. Smith
                              RKS Reference
                        5 Threads,  19073 MiB Core
         ---------------------------------------------------------

  ==> Geometry <==

    Molecular point group: c1
    Full point group: C1

    Geometry (in Angstrom), charge = 1, multiplicity = 1:

       Center              X                  Y                   Z               Mass       
    ------------   -----------------  -----------------  -----------------  -----------------
         H            1.864699519743    -0.002510057798    -1.161849848934     1.007825032230
         C            1.138594519743     0.587384942202    -0.609177848934    12.000000000000
         N           -0.036471480257    -0.230459057798    -0.226893848934    14.003074004430
         H           -0.143833480257    -0.958935057798    -0.942448848934     1.007825032230
         H            0.831644519743     1.445212942202    -1.203377848934     1.007825032230
         H            1.619369519743     0.976992942202     0.287826151066     1.007825032230
         C           -1.283195480257     0.555931942202    -0.226556848934    12.000000000000
         C            0.180474519743    -0.914325057798     1.060303151066    12.000000000000
         H           -1.210669480257     1.357200942202     0.508058151066     1.007825032230
         H           -1.457349480257     0.993513942202    -1.207458848934     1.007825032230
         H            1.103904519743    -1.489896057798     1.030069151066     1.007825032230
         H            0.247743519743    -0.179015057798     1.860762151066     1.007825032230
         H           -2.130548480257    -0.077093057798     0.030612151066     1.007825032230
         H           -0.645353480257    -1.589959057798     1.276452151066     1.007825032230

  Running in c1 symmetry.

  Rotational constants: A =      0.27702  B =      0.27435  C =      0.16010 [cm^-1]
  Rotational constants: A =   8304.89785  B =   8224.70115  C =   4799.75147 [MHz]
  Nuclear repulsion =  147.595917784583861

  Charge       = 1
  Multiplicity = 1
  Electrons    = 34
  Nalpha       = 17
  Nbeta        = 17

  ==> Algorithm <==

  SCF Algorithm Type is DF.
  DIIS enabled.
  MOM disabled.
  Fractional occupation disabled.
  Guess Type is SAD.
  Energy threshold   = 1.00e-06
  Density threshold  = 1.00e-06
  Integral threshold = 1.00e-12

  ==> Primary Basis <==

  Basis Set: 6-311+G*
    Blend: 6-311+G*
    Number of shells: 70
    Number of basis functions: 118
    Number of Cartesian functions: 122
    Spherical Harmonics?: true
    Max angular momentum: 2

  ==> DFT Potential <==

   => LibXC <=

    Version 5.1.5
    S. Lehtola, C. Steigemann, M. J. Oliveira, and M. A. Marques, SoftwareX 7, 1 (2018) (10.1016/j.softx.2017.11.002)

   => Composite Functional: WB97X-D <= 

    wB97X-D Hyb-GGA Exchange-Correlation Functional

    J.-D. Chai and M. Head-Gordon, Phys. Chem. Chem. Phys. 10, 6615 (2008) (10.1039/B810189B)

    Deriv               =              1
    GGA                 =           TRUE
    Meta                =          FALSE

    Exchange Hybrid     =           TRUE
    MP2 Hybrid          =          FALSE

   => Exchange-Correlation Functionals <=

    1.0000   wB97X-D range-separated functional

   => Exact (HF) Exchange <=

    0.7780            HF,LR [omega = 0.2000]
    0.2220               HF 

   => LibXC Density Thresholds  <==

    XC_HYB_GGA_XC_WB97X_D:  1.00E-14 

   => Molecular Quadrature <=

    Radial Scheme          =       TREUTLER
    Pruning Scheme         =           NONE
    Nuclear Scheme         =       TREUTLER

    Blocking Scheme        =         OCTREE
    BS radius alpha        =              1
    Pruning alpha          =              1
    Radial Points          =             75
    Spherical Points       =            302
    Total Points           =         298926
    Total Blocks           =           2239
    Max Points             =            256
    Max Functions          =            118
    Weights Tolerance      =       1.00E-15

   => Loading Basis Set <=

    Name: (6-311+G* AUX)
    Role: JKFIT
    Keyword: DF_BASIS_SCF
    atoms 1, 4-6, 9-14 entry H          line   116 file /home/liuchw/anaconda3/envs/poltype2022/share/psi4/basis/heavy-aug-cc-pvtz-jkfit.gbs 
    atoms 2, 7-8       entry C          line   200 file /home/liuchw/anaconda3/envs/poltype2022/share/psi4/basis/heavy-aug-cc-pvtz-jkfit.gbs 
    atoms 3            entry N          line   262 file /home/liuchw/anaconda3/envs/poltype2022/share/psi4/basis/heavy-aug-cc-pvtz-jkfit.gbs 

  ==> Integral Setup <==

  DFHelper Memory: AOs need 0.229 GiB; user supplied 13.089 GiB. Using in-core AOs.

  ==> MemDFJK: Density-Fitted J/K Matrices <==

    J tasked:                   Yes
    K tasked:                   Yes
    wK tasked:                  Yes
    Omega:                2.000E-01
    OpenMP threads:               5
    Memory [MiB]:             13403
    Algorithm:                 Core
    Schwarz Cutoff:           1E-12
    Mask sparsity (%):       0.3016
    Fitting Condition:        1E-10

   => Auxiliary Basis Set <=

  Basis Set: (6-311+G* AUX)
    Blend: HEAVY-AUG-CC-PVTZ-JKFIT
    Number of shells: 220
    Number of basis functions: 716
    Number of Cartesian functions: 874
    Spherical Harmonics?: true
    Max angular momentum: 4

  Cached 100.0% of DFT collocation blocks in 0.880 [GiB].

  Minimum eigenvalue in the overlap matrix is 4.4508688403E-04.
  Reciprocal condition number of the overlap matrix is 3.9846927484E-05.
    Using symmetric orthogonalization.

  ==> Pre-Iterations <==

  SCF Guess: Superposition of Atomic Densities via on-the-fly atomic UHF (no occupation information).

   -------------------------
    Irrep   Nso     Nmo    
   -------------------------
     A        118     118 
   -------------------------
    Total     118     118
   -------------------------

  ==> Iterations <==

                           Total Energy        Delta E     RMS |[F,P]|

   @DF-RKS iter SAD:  -174.74296777230117   -1.74743e+02   0.00000e+00 
   @DF-RKS iter   1:  -174.64121315363033    1.01755e-01   5.11124e-03 ADIIS/DIIS
   @DF-RKS iter   2:  -174.74927219567840   -1.08059e-01   3.43700e-03 ADIIS/DIIS
   @DF-RKS iter   3:  -174.82662153382978   -7.73493e-02   3.54506e-04 ADIIS/DIIS
   @DF-RKS iter   4:  -174.82744121638603   -8.19683e-04   2.10749e-04 ADIIS/DIIS
   @DF-RKS iter   5:  -174.82768553987211   -2.44323e-04   4.36958e-05 DIIS
   @DF-RKS iter   6:  -174.82769703607175   -1.14962e-05   4.18197e-06 DIIS
   @DF-RKS iter   7:  -174.82769725558262   -2.19511e-07   1.10502e-06 DIIS
   @DF-RKS iter   8:  -174.82769727004873   -1.44661e-08   2.35658e-07 DIIS
  Energy and wave function converged.


  ==> Post-Iterations <==

   Electrons on quadrature grid:
      Ntotal   =   33.9999383763 ; deviation = -6.162e-05 

    Orbital Energies [Eh]
    ---------------------

    Doubly Occupied:                                                      

       1A    -14.757916     2A    -10.515703     3A    -10.515567  
       4A    -10.514826     5A     -1.322465     6A     -1.039637  
       7A     -1.037969     8A     -0.962870     9A     -0.853018  
      10A     -0.793000    11A     -0.792043    12A     -0.705770  
      13A     -0.704913    14A     -0.675404    15A     -0.674596  
      16A     -0.672244    17A     -0.666689  

    Virtual:                                                              

      18A     -0.107195    19A     -0.067495    20A     -0.053105  
      21A     -0.051882    22A     -0.046587    23A     -0.027893  
      24A     -0.025970    25A     -0.016038    26A     -0.012712  
      27A      0.005754    28A      0.022267    29A      0.025678  
      30A      0.027064    31A      0.033906    32A      0.038416  
      33A      0.053479    34A      0.067530    35A      0.071079  
      36A      0.082661    37A      0.089755    38A      0.100315  
      39A      0.122741    40A      0.141675    41A      0.149381  
      42A      0.152285    43A      0.161226    44A      0.162970  
      45A      0.167581    46A      0.275303    47A      0.289672  
      48A      0.294990    49A      0.327305    50A      0.364010  
      51A      0.376073    52A      0.412717    53A      0.421245  
      54A      0.427438    55A      0.435164    56A      0.465792  
      57A      0.498529    58A      0.512875    59A      0.519871  
      60A      0.530936    61A      0.545757    62A      0.570181  
      63A      0.600907    64A      0.613803    65A      0.626227  
      66A      0.680451    67A      0.715905    68A      0.727037  
      69A      0.765732    70A      0.862827    71A      0.869577  
      72A      1.024076    73A      1.039892    74A      1.285072  
      75A      1.312707    76A      1.400731    77A      1.409563  
      78A      1.450244    79A      1.467569    80A      1.482366  
      81A      1.486223    82A      1.501449    83A      1.525311  
      84A      1.587500    85A      1.595193    86A      1.628927  
      87A      1.695793    88A      2.026804    89A      2.078303  
      90A      2.085905    91A      2.283889    92A      2.293620  
      93A      2.322759    94A      2.346938    95A      2.365888  
      96A      2.400239    97A      2.456953    98A      2.478988  
      99A      2.484064   100A      2.541361   101A      2.574133  
     102A      2.660291   103A      3.010932   104A      3.044487  
     105A      3.053481   106A      3.088610   107A      3.108708  
     108A      3.175637   109A      3.202876   110A      3.213624  
     111A      3.303334   112A      4.046924   113A      4.460881  
     114A      4.467045   115A     23.405347   116A     23.480073  
     117A     23.489402   118A     35.294992  

    Final Occupation by Irrep:
              A 
    DOCC [    17 ]

  @DF-RKS Final Energy:  -174.82769727004873

   => Energetics <=

    Nuclear Repulsion Energy =            147.5959177845838610
    One-Electron Energy =                -518.1874024272235602
    Two-Electron Energy =                 213.9113562709311793
    DFT Exchange-Correlation Energy =     -18.1406487923879745
    Empirical Dispersion Energy =          -0.0069201059522809
    VV10 Nonlocal Energy =                  0.0000000000000000
    Total Energy =                       -174.8276972700487306

Computation Completed


Properties will be evaluated at   0.000000,   0.000000,   0.000000 [a0]

Properties computed using the SCF density matrix


 Multipole Moments:

 ------------------------------------------------------------------------------------
     Multipole            Electronic (a.u.)      Nuclear  (a.u.)        Total (a.u.)
 ------------------------------------------------------------------------------------

 L = 1.  Multiply by 2.5417464519 to convert [e a0] to [Debye]
 Dipole X            :         -0.1073218            0.0747352           -0.0325865
 Dipole Y            :         -0.6931196            0.4464478           -0.2466719
 Dipole Z            :         -0.6941944            0.4493736           -0.2448208
 Magnitude           :                                                    0.3490646

 ------------------------------------------------------------------------------------

*** tstop() called on node165.bme.utexas.edu at Sat Nov 18 08:10:54 2023
Module time:
	user time   =      21.38 seconds =       0.36 minutes
	system time =       1.64 seconds =       0.03 minutes
	total time  =          9 seconds =       0.15 minutes
Total time:
	user time   =      21.38 seconds =       0.36 minutes
	system time =       1.64 seconds =       0.03 minutes
	total time  =          9 seconds =       0.15 minutes


Properties will be evaluated at   0.000000,   0.000000,   0.000000 [a0]
OEProp: No title given, name of density matrix used for the following properties is 'SCF density'


  Wiberg Bond Indices using Orthogonal Lowdin Orbitals:

  Irrep: 1 Size: 14 x 14

                 1                   2                   3                   4                   5

    1     0.00000000000000     0.88879069457173     0.04892294813483     0.00665499656735     0.01008439294144
    2     0.88879069457173     0.00000000000000     1.15368811579838     0.03197010708433     0.88405327206783
    3     0.04892294813483     1.15368811579838     0.00000000000000     0.79405034620684     0.04407549284652
    4     0.00665499656735     0.03197010708433     0.79405034620684     0.00000000000000     0.00081432533020
    5     0.01008439294144     0.88405327206783     0.04407549284652     0.00081432533020     0.00000000000000
    6     0.00890134548144     0.88260942835241     0.04173409557931     0.00494813551771     0.00935593447392
    7     0.01010083227527     0.11842690595229     1.17038804209233     0.03293877014936     0.02292445512440
    8     0.00918015272681     0.12055780333396     1.17038673313436     0.03250592513304     0.01088607638835
    9     0.00036376728138     0.01450723994273     0.04299548743809     0.00731666101018     0.00125931236953
   10     0.00017861791053     0.01532503203019     0.04744369494878     0.00374337147631     0.00236873980724
   11     0.00049331192938     0.01565232728020     0.04771150004012     0.00338859795532     0.00061693314096
   12     0.00008925628241     0.01502358037441     0.04256505669930     0.00707654708036     0.00010909774509
   13     0.00038370814695     0.01252862151994     0.04768400511021     0.00352793578572     0.00103701633664
   14     0.00007184196679     0.01244647786561     0.04778600776094     0.00374327341526     0.00051825528520

                 6                   7                   8                   9                  10

    1     0.00890134548144     0.01010083227527     0.00918015272681     0.00036376728138     0.00017861791053
    2     0.88260942835241     0.11842690595229     0.12055780333396     0.01450723994273     0.01532503203019
    3     0.04173409557931     1.17038804209233     1.17038673313436     0.04299548743809     0.04744369494878
    4     0.00494813551771     0.03293877014936     0.03250592513304     0.00731666101018     0.00374337147631
    5     0.00935593447392     0.02292445512440     0.01088607638835     0.00125931236953     0.00236873980724
    6     0.00000000000000     0.00903853276234     0.02305134680474     0.00029457733385     0.00007736655229
    7     0.00903853276234     0.00000000000000     0.11889349054699     0.88127301610231     0.88605869351919
    8     0.02305134680474     0.11889349054699     0.00000000000000     0.01471304098714     0.01208505175206
    9     0.00029457733385     0.88127301610231     0.01471304098714     0.00000000000000     0.00865646220662
   10     0.00007736655229     0.88605869351919     0.01208505175206     0.00865646220662     0.00000000000000
   11     0.00170040447125     0.01236509667774     0.88340647229782     0.00026804708351     0.00058520663780
   12     0.00182576775157     0.01525393401001     0.88249660620279     0.00117835488455     0.00034628811695
   13     0.00004920103559     0.88435985575770     0.01528854847545     0.00869264737756     0.01020260553016
   14     0.00092406289375     0.01469265039722     0.88501566075211     0.00048194135307     0.00044747536100

                11                  12                  13                  14

    1     0.00049331192938     0.00008925628241     0.00038370814695     0.00007184196679
    2     0.01565232728020     0.01502358037441     0.01252862151994     0.01244647786561
    3     0.04771150004012     0.04256505669930     0.04768400511021     0.04778600776094
    4     0.00338859795532     0.00707654708036     0.00352793578572     0.00374327341526
    5     0.00061693314096     0.00010909774509     0.00103701633664     0.00051825528520
    6     0.00170040447125     0.00182576775157     0.00004920103559     0.00092406289375
    7     0.01236509667774     0.01525393401001     0.88435985575770     0.01469265039722
    8     0.88340647229782     0.88249660620279     0.01528854847545     0.88501566075211
    9     0.00026804708351     0.00117835488455     0.00869264737756     0.00048194135307
   10     0.00058520663780     0.00034628811695     0.01020260553016     0.00044747536100
   11     0.00000000000000     0.00859718921563     0.00055697819947     0.01015725213073
   12     0.00859718921563     0.00000000000000     0.00065676845904     0.00873584703502
   13     0.00055697819947     0.00065676845904     0.00000000000000     0.00156437507124
   14     0.01015725213073     0.00873584703502     0.00156437507124     0.00000000000000



  Atomic Valences: 

 #  #
 Irrep: 1
      1:    0.984215866216316
      2:    4.165579606174020
      3:    4.699431525790015
      4:    0.932678992711986
      5:    0.988103303857328
      6:    0.984510199010174
      7:    4.176714275367149
      8:    4.178466908535618
      9:    0.982000555370515
     10:    0.987518605849103
     11:    0.985499317059935
     12:    0.983954293857139
     13:    0.986532266805664
     14:    0.986585121287941


    Psi4 stopped on: Saturday, 18 November 2023 08:10AM
    Psi4 wall time for execution: 0:00:08.85

*** Psi4 exiting successfully. Buy a developer a beer!
