14
 energy: -14.014173343341 gnorm: 0.000895273650 xtb: 6.5.0 (97a52f5)
H            0.83134484521539        1.50350625711457       -0.96823710643597
C            1.18060982579967        0.54629791074106       -0.58675022525416
N            0.02752938117937       -0.29278514188217       -0.16004430502888
H            0.09172441942729       -1.17658383549606       -0.67677040512061
H            1.84028346431746        0.74543943484855        0.25449366258653
H            1.75489926157151        0.05589713993925       -1.36856421866261
C           -1.26677013089720        0.31737085426563       -0.51426414507717
C            0.09089612526895       -0.62203449326496        1.27596439364876
H           -1.37949590495216        1.26893001469864        0.00325087055619
H           -1.32441922696101        0.48505988208314       -1.58820485225007
H            1.04883064973084       -1.07796727372541        1.51856307958099
H           -0.02546143446641        0.28740328428750        1.86428891705634
H           -2.08604664670737       -0.33729379715304       -0.22136634810345
H           -0.70532661852634       -1.31446723645670        1.54364768250412
