      -----------------------------------------------------------      
     |                   =====================                   |     
     |                           x T B                           |     
     |                   =====================                   |     
     |                         S. Grimme                         |     
     |          Mulliken Center for Theoretical Chemistry        |     
     |                    University of Bonn                     |     
      -----------------------------------------------------------      

   * xtb version 6.5.0 (97a52f5) compiled by 'conda@d2599ee0d4f4' on 2022-05-15

   xtb is free software: you can redistribute it and/or modify it under
   the terms of the GNU Lesser General Public License as published by
   the Free Software Foundation, either version 3 of the License, or
   (at your option) any later version.
   
   xtb is distributed in the hope that it will be useful,
   but WITHOUT ANY WARRANTY; without even the implied warranty of
   MERCHANTABILITY or FITNESS FOR A PARTICULAR PURPOSE.  See the
   GNU Lesser General Public License for more details.
   
   Cite this work as:
   * C. Bannwarth, E. Caldeweyher, S. Ehlert, A. Hansen, P. Pracht,
     J. Seibert, S. Spicher, S. Grimme, WIREs Comput. Mol. Sci., 2020, 11,
     e01493. DOI: 10.1002/wcms.1493
   
   for GFN2-xTB:
   * C. Bannwarth, S. Ehlert and S. Grimme., J. Chem. Theory Comput., 2019,
     15, 1652-1671. DOI: 10.1021/acs.jctc.8b01176
   for GFN1-xTB:
   * S. Grimme, C. Bannwarth, P. Shushkov, J. Chem. Theory Comput., 2017,
     13, 1989-2009. DOI: 10.1021/acs.jctc.7b00118
   for GFN0-xTB:
   * P. Pracht, E. Caldeweyher, S. Ehlert, S. Grimme, ChemRxiv, 2019, preprint.
     DOI: 10.26434/chemrxiv.8326202.v1
   for GFN-FF:
   * S. Spicher and S. Grimme, Angew. Chem. Int. Ed., 2020, 59, 15665-15673.
     DOI: 10.1002/anie.202004239
   
   for ALPB and GBSA implicit solvation:
   * S. Ehlert, M. Stahn, S. Spicher, S. Grimme, J. Chem. Theory Comput.,
     2021, 17, 4250-4261. DOI: 10.1021/acs.jctc.1c00471
   
   for DFT-D4:
   * E. Caldeweyher, C. Bannwarth and S. Grimme, J. Chem. Phys., 2017,
     147, 034112. DOI: 10.1063/1.4993215
   * E. Caldeweyher, S. Ehlert, A. Hansen, H. Neugebauer, S. Spicher,
     C. Bannwarth and S. Grimme, J. Chem. Phys., 2019, 150, 154122.
     DOI: 10.1063/1.5090222
   * E. Caldeweyher, J.-M. Mewes, S. Ehlert and S. Grimme, Phys. Chem. Chem. Phys.
     2020, 22, 8499-8512. DOI: 10.1039/D0CP00502A
   
   for sTDA-xTB:
   * S. Grimme and C. Bannwarth, J. Chem. Phys., 2016, 145, 054103.
     DOI: 10.1063/1.4959605
   
   in the mass-spec context:
   * V. Asgeirsson, C. Bauer and S. Grimme, Chem. Sci., 2017, 8, 4879.
     DOI: 10.1039/c7sc00601b
   * J. Koopman and S. Grimme, ACS Omega 2019, 4, 12, 15120-15133.
     DOI: 10.1021/acsomega.9b02011
   
   for metadynamics refer to:
   * S. Grimme, J. Chem. Theory Comput., 2019, 155, 2847-2862
     DOI: 10.1021/acs.jctc.9b00143
   
   for SPH calculations refer to:
   * S. Spicher and S. Grimme, J. Chem. Theory Comput., 2021, 17, 1701-1714
     DOI: 10.1021/acs.jctc.0c01306
   
   with help from (in alphabetical order)
   P. Atkinson, C. Bannwarth, F. Bohle, G. Brandenburg, E. Caldeweyher
   M. Checinski, S. Dohm, S. Ehlert, S. Ehrlich, I. Gerasimov, C. Hölzer
   A. Katbashev, J. Koopman, C. Lavigne, S. Lehtola, F. März, M. Müller,
   F. Musil, H. Neugebauer, J. Pisarek, C. Plett, P. Pracht, F. Pultar,
   J. Seibert, P. Shushkov, S. Spicher, M. Stahn, M. Steiner, T. Strunk,
   J. Stückrath, T. Rose, and J. Unsleber
   
 * started run on 2023/11/18 at 08:09:20.753     

           -------------------------------------------------
          |                Calculation Setup                |
           -------------------------------------------------

          program call               : /home/liuchw/anaconda3/envs/xtbenv/bin/xtb --gfn 2 --chrg 1 --uhf 0 32_40_Index_0-opt-2-3-003_preQMOPTprefit_xyzformat.xyz --opt --input xtb-opt-2-3-003_constr.txt
          hostname                   : node165.bme.utexas.edu
          coordinate file            : 32_40_Index_0-opt-2-3-003_preQMOPTprefit_xyzformat.xyz
          omp threads                :                    64

   ID    Z sym.   atoms
    1    1 H      1, 4-6, 9-14
    2    6 C      2, 7, 8
    3    7 N      3
constraining angle 5 2 3 4 to    2.9213128°, actual value:    2.9213128°
constraining angle 5 2 3 7 to  246.0806599°, actual value: -113.9193401°
constraining angle 10 7 3 4 to  300.9520163°, actual value:  -59.0479837°
constraining angle 10 7 3 2 to   58.0438371°, actual value:   58.0438371°
constraining angle 11 8 3 4 to   62.9295049°, actual value:   62.9295049°
constraining angle 11 8 3 2 to  306.0617070°, actual value:  -53.9382930°

           -------------------------------------------------
          |                 G F N 2 - x T B                 |
           -------------------------------------------------

        Reference                      10.1021/acs.jctc.8b01176
      * Hamiltonian:
        H0-scaling (s, p, d)           1.850000    2.230000    2.230000
        zeta-weighting                 0.500000
      * Dispersion:
        s8                             2.700000
        a1                             0.520000
        a2                             5.000000
        s9                             5.000000
      * Repulsion:
        kExp                           1.500000    1.000000
        rExp                           1.000000
      * Coulomb:
        alpha                          2.000000
        third order                    shell-resolved
        anisotropic                    true
        a3                             3.000000
        a5                             4.000000
        cn-shift                       1.200000
        cn-exp                         4.000000
        max-rad                        5.000000

q/qsh data taken from xtbrestart
CAMM data taken from xtbrestart

          ...................................................
          :                      SETUP                      :
          :.................................................:
          :  # basis functions                  26          :
          :  # atomic orbitals                  26          :
          :  # shells                           18          :
          :  # electrons                        26          :
          :  max. iterations                   250          :
          :  Hamiltonian                  GFN2-xTB          :
          :  restarted?                       true          :
          :  GBSA solvation                  false          :
          :  PC potential                    false          :
          :  electronic temp.          300.0000000     K    :
          :  accuracy                    1.0000000          :
          :  -> integral cutoff          0.2500000E+02      :
          :  -> integral neglect         0.1000000E-07      :
          :  -> SCF convergence          0.1000000E-05 Eh   :
          :  -> wf. convergence          0.1000000E-03 e    :
          :  Broyden damping             0.4000000          :
          ...................................................

 iter      E             dE          RMSdq      gap      omega  full diag
   1    -14.1946188 -0.141946E+02  0.547E-01    9.95       0.0  T
   2    -14.1950204 -0.401611E-03  0.319E-01    9.97       1.0  T
   3    -14.1950290 -0.858884E-05  0.112E-01    9.97       1.0  T
   4    -14.1950316 -0.261790E-05  0.128E-02    9.97       2.1  T
   5    -14.1950317 -0.457739E-07  0.290E-03    9.97       9.2  T
   6    -14.1950317 -0.189888E-08  0.712E-04    9.97      37.6  T
   7    -14.1950317 -0.438430E-09  0.168E-04    9.97     159.3  T

   *** convergence criteria satisfied after 7 iterations ***

         #    Occupation            Energy/Eh            Energy/eV
      -------------------------------------------------------------
         1        2.0000           -0.8811248             -23.9766
       ...           ...                  ...                  ...
         7        2.0000           -0.7350528             -20.0018
         8        2.0000           -0.6824363             -18.5700
         9        2.0000           -0.6811855             -18.5360
        10        2.0000           -0.6656368             -18.1129
        11        2.0000           -0.6646738             -18.0867
        12        2.0000           -0.6589318             -17.9304
        13        2.0000           -0.6560014             -17.8507 (HOMO)
        14                         -0.2895275              -7.8784 (LUMO)
        15                         -0.1985334              -5.4024
        16                         -0.1973599              -5.3704
        17                         -0.1526519              -4.1539
        18                         -0.0639257              -1.7395
       ...                                ...                  ...
        26                          0.0620352               1.6881
      -------------------------------------------------------------
                  HL-Gap            0.3664739 Eh            9.9723 eV
             Fermi-level           -0.4727645 Eh          -12.8646 eV

 SCC (total)                   0 d,  0 h,  0 min,  1.570 sec
 SCC setup                      ...        0 min,  0.016 sec (  1.018%)
 Dispersion                     ...        0 min,  0.092 sec (  5.858%)
 classical contributions        ...        0 min,  0.226 sec ( 14.387%)
 integral evaluation            ...        0 min,  0.110 sec (  7.009%)
 iterations                     ...        0 min,  0.922 sec ( 58.721%)
 molecular gradient             ...        0 min,  0.204 sec ( 12.979%)
 printout                       ...        0 min,  0.000 sec (  0.010%)

         :::::::::::::::::::::::::::::::::::::::::::::::::::::
         ::                     SUMMARY                     ::
         :::::::::::::::::::::::::::::::::::::::::::::::::::::
         :: total energy             -14.011015645828 Eh    ::
         :: gradient norm              0.037288495665 Eh/a0 ::
         :: HOMO-LUMO gap              9.972262966725 eV    ::
         ::.................................................::
         :: SCC energy               -14.195031668965 Eh    ::
         :: -> isotropic ES            0.096630755581 Eh    ::
         :: -> anisotropic ES         -0.010337081059 Eh    ::
         :: -> anisotropic XC          0.013188749317 Eh    ::
         :: -> dispersion             -0.005225629888 Eh    ::
         :: repulsion energy           0.184008132312 Eh    ::
         :: add. restraining           0.000000000000 Eh    ::
         :: total charge               1.000000000000 e     ::
         :::::::::::::::::::::::::::::::::::::::::::::::::::::

      ----------------------------------------------------------- 
     |                   =====================                   |
     |                        A N C O P T                        |
     |                   =====================                   |
     |               Approximate Normal Coordinate               |
     |                Rational Function Optimizer                |
      ----------------------------------------------------------- 

          ...................................................
          :                      SETUP                      :
          :.................................................:
          :   optimization level            normal          :
          :   max. optcycles                   200          :
          :   ANC micro-cycles                  20          :
          :   degrees of freedom                36          :
          :.................................................:
          :   RF solver                   davidson          :
          :   write xtbopt.log                true          :
          :   linear?                        false          :
          :   energy convergence         0.5000000E-05 Eh   :
          :   grad. convergence          0.1000000E-02 Eh/α :
          :   maximium RF displ.         1.0000000          :
          :   Hlow (freq-cutoff)         0.1000000E-01      :
          :   Hmax (freq-cutoff)         5.0000000          :
          :   S6 in model hess.         20.0000000          :
          ...................................................

generating ANC from model Hessian ...
Using Lindh-Hessian (1995)
 Shifting diagonal of input Hessian by    0.0000000000000000     
 Lowest  eigenvalues of input Hessian
    0.000000    0.000000    0.000000    0.000000    0.000000    0.000000
    0.012132    0.013530    0.028214    0.030198    0.034160    0.040651
    0.050750    0.056112    0.058532    0.060237    0.061020    0.063467
 Highest eigenvalues
    1.166605    3.233328    7.007614    8.558212   11.586809   14.110321


........................................................................
.............................. CYCLE    1 ..............................
........................................................................
   1    -14.1950317 -0.141950E+02  0.424E-05    9.97       0.0  T
   2    -14.1950317 -0.128786E-11  0.229E-05    9.97    1168.8  T
   3    -14.1950317 -0.223821E-12  0.391E-06    9.97    6843.5  T
     SCC iter.                  ...        0 min,  0.206 sec
     gradient                   ...        0 min,  0.192 sec
 * total energy  :   -14.0110156 Eh     change       -0.3738343E-10 Eh
   gradient norm :     0.0372885 Eh/α   predicted     0.0000000E+00 (-100.00%)
   displ. norm   :     0.1864837 α      lambda       -0.3957439E-02
   maximum displ.:     0.1108452 α      in ANC's #3, #19, #7, ...

........................................................................
.............................. CYCLE    2 ..............................
........................................................................
   1    -14.2088037 -0.142088E+02  0.168E-01   10.66       0.0  T
   2    -14.2089121 -0.108401E-03  0.913E-02   10.64       1.0  T
   3    -14.2089137 -0.156626E-05  0.481E-02   10.64       1.0  T
   4    -14.2089140 -0.358586E-06  0.554E-03   10.64       4.8  T
   5    -14.2089140 -0.135571E-07  0.101E-03   10.64      26.6  T
   6    -14.2089140 -0.320096E-09  0.363E-04   10.64      73.7  T
   7    -14.2089140 -0.693117E-10  0.785E-05   10.64     340.4  T
     SCC iter.                  ...        0 min,  0.472 sec
     gradient                   ...        0 min,  0.189 sec
 * total energy  :   -14.0136897 Eh     change       -0.2674038E-02 Eh
   gradient norm :     0.0182692 Eh/α   predicted    -0.2047538E-02 ( -23.43%)
   displ. norm   :     0.0847709 α      lambda       -0.9606289E-03
   maximum displ.:     0.0486285 α      in ANC's #19, #3, #7, ...

........................................................................
.............................. CYCLE    3 ..............................
........................................................................
   1    -14.2138350 -0.142138E+02  0.112E-01   11.09       0.0  T
   2    -14.2138795 -0.444513E-04  0.600E-02   11.09       1.0  T
   3    -14.2138799 -0.431734E-06  0.310E-02   11.09       1.0  T
   4    -14.2138800 -0.100629E-06  0.306E-03   11.09       8.7  T
   5    -14.2138800 -0.420630E-08  0.840E-04   11.09      31.8  T
   6    -14.2138800 -0.937455E-10  0.196E-04   11.09     136.3  T
     SCC iter.                  ...        0 min,  0.490 sec
     gradient                   ...        0 min,  0.199 sec
 * total energy  :   -14.0141513 Eh     change       -0.4616625E-03 Eh
   gradient norm :     0.0117446 Eh/α   predicted    -0.4837649E-03 (   4.79%)
   displ. norm   :     0.0127736 α      lambda       -0.4206461E-04
   maximum displ.:     0.0078836 α      in ANC's #2, #7, #8, ...

........................................................................
.............................. CYCLE    4 ..............................
........................................................................
   1    -14.2126277 -0.142126E+02  0.115E-02   11.08       0.0  T
   2    -14.2126278 -0.691601E-07  0.658E-03   11.08       4.1  T
   3    -14.2126278 -0.447241E-08  0.991E-04   11.08      27.0  T
   4    -14.2126278 -0.193648E-09  0.255E-04   11.08     104.9  T
     SCC iter.                  ...        0 min,  0.342 sec
     gradient                   ...        0 min,  0.184 sec
 * total energy  :   -14.0141526 Eh     change       -0.1264399E-05 Eh
   gradient norm :     0.0197322 Eh/α   predicted    -0.2103499E-04 (1563.64%)
   displ. norm   :     0.0055714 α      lambda       -0.3061980E-04
   maximum displ.:     0.0028237 α      in ANC's #19, #1, #7, ...

........................................................................
.............................. CYCLE    5 ..............................
........................................................................
   1    -14.2120706 -0.142121E+02  0.580E-03   11.06       0.0  T
   2    -14.2120707 -0.663611E-07  0.310E-03   11.06       8.6  T
   3    -14.2120707 -0.195146E-08  0.121E-03   11.06      22.2  T
   4    -14.2120707 -0.287280E-09  0.207E-04   11.06     129.2  T
   5    -14.2120707 -0.705391E-11  0.205E-05   11.06    1300.8  T
     SCC iter.                  ...        0 min,  0.452 sec
     gradient                   ...        0 min,  0.196 sec
 * total energy  :   -14.0141663 Eh     change       -0.1365773E-04 Eh
   gradient norm :     0.0021644 Eh/α   predicted    -0.1530843E-04 (  12.09%)
   displ. norm   :     0.0059783 α      lambda       -0.1878153E-05
   maximum displ.:     0.0034432 α      in ANC's #2, #1, #8, ...

........................................................................
.............................. CYCLE    6 ..............................
........................................................................
   1    -14.2122899 -0.142123E+02  0.428E-03   11.07       0.0  T
   2    -14.2122899 -0.118363E-07  0.247E-03   11.07      10.8  T
   3    -14.2122899 -0.998670E-09  0.438E-04   11.07      61.1  T
   4    -14.2122899 -0.356231E-10  0.115E-04   11.07     233.0  T
     SCC iter.                  ...        0 min,  0.317 sec
     gradient                   ...        0 min,  0.205 sec
 * total energy  :   -14.0141666 Eh     change       -0.3356468E-06 Eh
   gradient norm :     0.0024893 Eh/α   predicted    -0.9384132E-06 ( 179.58%)
   displ. norm   :     0.0012131 α      lambda       -0.7450357E-06
   maximum displ.:     0.0010145 α      in ANC's #2, #8, #1, ...

........................................................................
.............................. CYCLE    7 ..............................
........................................................................
   1    -14.2122870 -0.142123E+02  0.789E-04   11.07       0.0  T
   2    -14.2122870 -0.448159E-09  0.443E-04   11.07      60.3  T
   3    -14.2122870 -0.384883E-10  0.853E-05   11.07     313.2  T
     SCC iter.                  ...        0 min,  0.240 sec
     gradient                   ...        0 min,  0.210 sec
 * total energy  :   -14.0141669 Eh     change       -0.2688578E-06 Eh
   gradient norm :     0.0008530 Eh/α   predicted    -0.3716885E-06 (  38.25%)
   displ. norm   :     0.0020768 α      lambda       -0.1279585E-06
   maximum displ.:     0.0013375 α      in ANC's #1, #8, #7, ...

   *** GEOMETRY OPTIMIZATION CONVERGED AFTER 7 ITERATIONS ***

------------------------------------------------------------------------
 total energy gain   :        -0.0031512 Eh       -1.9774 kcal/mol
 total RMSD          :         0.0688161 a0        0.0364 Å
 total power (kW/mol):        -1.1819350 (step)   -1.6316 (real)
------------------------------------------------------------------------

 ANCopt (total)                0 d,  0 h,  0 min,  5.071 sec
 optimizer setup                ...        0 min,  0.011 sec (  0.218%)
 model hessian                  ...        0 min,  0.008 sec (  0.161%)
 ANC generation                 ...        0 min,  0.001 sec (  0.011%)
 coordinate transformation      ...        0 min,  0.000 sec (  0.004%)
 single point calculation       ...        0 min,  4.917 sec ( 96.959%)
 optimization log               ...        0 min,  0.001 sec (  0.029%)
 hessian update                 ...        0 min,  0.130 sec (  2.568%)
 rational function              ...        0 min,  0.001 sec (  0.029%)

================
 final structure:
================
14
 xtb: 6.5.0 (97a52f5)
H            1.95156314500077        0.40198625385688        0.04048675940607
C            1.12149915077337        0.62176379810275       -0.62692026438207
N           -0.07045865066627       -0.19201624920536       -0.26260040514925
H           -0.27582985172071       -0.79914881139438       -1.06347704897588
H            1.43982105971075        0.41569075543575       -1.64568832815355
H            0.89724087534381        1.68288752103621       -0.54395865663928
C           -1.26598940899825        0.64072409217351       -0.03878271052681
C            0.19696815036667       -1.06952983159164        0.89186279055308
H           -1.09398862570551        1.31443840493666        0.79933031950268
H           -1.49086280247506        1.22636536657854       -0.92828349566170
H            1.07733999156375       -1.68196003769755        0.70690135416236
H            0.37043457411566       -0.46217996073617        1.77939068707432
H           -2.12617994279937        0.01350665335525        0.18973133968083
H           -0.65296266450962       -1.72375595485043        1.07801566910920

 Bond Distances (Angstroems)
 ---------------------------
H1-C2=1.0875         C2-H1=1.0875         C2-N3=1.4885         C2-H5=1.0871         C2-H6=1.0877         N3-C2=1.4885         
N3-H4=1.0258         N3-C7=1.4741         N3-C8=1.4746         H4-N3=1.0258         H5-C2=1.0871         H6-C2=1.0877         
C7-N3=1.4741         C7-H9=1.0890         C7-H10=1.0885        C7-H13=1.0888        C8-N3=1.4746         C8-H11=1.0883        
C8-H12=1.0893        C8-H14=1.0886        H9-C7=1.0890         H10-C7=1.0885        H11-C8=1.0883        H12-C8=1.0893        
H13-C7=1.0888        H14-C8=1.0886        
 C  H  Rav=1.0883 sigma=0.0007  Rmin=1.0871  Rmax=1.0893     9
 N  H  Rav=1.0258 sigma=0.0000  Rmin=1.0258  Rmax=1.0258     1
 N  C  Rav=1.4791 sigma=0.0067  Rmin=1.4741  Rmax=1.4885     3

 selected bond angles (degree)
 --------------------
N3-C2-H1=110.52                H5-C2-H1=108.26                H5-C2-N3=111.11                H6-C2-H1=107.92                
H6-C2-N3=110.46                H6-C2-H5=108.47                H4-N3-C2=107.03                C7-N3-C2=112.20                
C7-N3-H4=106.89                C8-N3-C2=111.82                C8-N3-H4=107.18                C8-N3-C7=111.37                
H9-C7-N3=109.77                H10-C7-N3=110.33               H10-C7-H9=109.19               H13-C7-N3=110.31               
H13-C7-H9=108.64               H13-C7-H10=108.56              H11-C8-N3=110.40               H12-C8-N3=109.57               
H12-C8-H11=108.87              H14-C8-N3=110.48               H14-C8-H11=108.81              H14-C8-H12=108.67              

 selected dihedral angles (degree)
 ---------------------------------
H4-N3-C2-H1=242.77            H4-N3-C2-H5=  2.98            H4-N3-C2-H6=123.41            C7-N3-C2-H1=125.83            
C7-N3-C2-H5=246.04            C7-N3-C2-H6=  6.47            C8-N3-C2-H1=359.86            C8-N3-C2-H5=120.07            
C8-N3-C2-H6=240.50            H9-C7-N3-C2=297.63            H9-C7-N3-H4=180.61            H9-C7-N3-C8= 63.85            
H10-C7-N3-C2= 58.01           H10-C7-N3-H4=300.98           H10-C7-N3-C8=184.22           H13-C7-N3-C2=177.95           
H13-C7-N3-H4= 60.92           H13-C7-N3-C8=304.16           H11-C8-N3-C2=305.99           H11-C8-N3-H4= 62.98           
H11-C8-N3-C7=179.57           H12-C8-N3-C2= 65.88           H12-C8-N3-H4=182.88           H12-C8-N3-C7=299.46           
H14-C8-N3-C2=185.58           H14-C8-N3-H4=302.58           H14-C8-N3-C7= 59.16           
           -------------------------------------------------
          |                Final Singlepoint                |
           -------------------------------------------------

          ...................................................
          :                      SETUP                      :
          :.................................................:
          :  # basis functions                  26          :
          :  # atomic orbitals                  26          :
          :  # shells                           18          :
          :  # electrons                        26          :
          :  max. iterations                   250          :
          :  Hamiltonian                  GFN2-xTB          :
          :  restarted?                      false          :
          :  GBSA solvation                  false          :
          :  PC potential                    false          :
          :  electronic temp.          300.0000000     K    :
          :  accuracy                    1.0000000          :
          :  -> integral cutoff          0.2500000E+02      :
          :  -> integral neglect         0.1000000E-07      :
          :  -> SCF convergence          0.1000000E-05 Eh   :
          :  -> wf. convergence          0.1000000E-03 e    :
          :  Broyden damping             0.4000000          :
          ...................................................

 iter      E             dE          RMSdq      gap      omega  full diag
   1    -14.2122870 -0.142123E+02  0.217E-05   11.07       0.0  T
   2    -14.2122870 -0.905942E-13  0.124E-05   11.07    2157.0  T
   3    -14.2122870 -0.373035E-13  0.109E-06   11.07   24411.1  T

   *** convergence criteria satisfied after 3 iterations ***

         #    Occupation            Energy/Eh            Energy/eV
      -------------------------------------------------------------
         1        2.0000           -0.8911722             -24.2500
       ...           ...                  ...                  ...
         7        2.0000           -0.7399217             -20.1343
         8        2.0000           -0.6846640             -18.6307
         9        2.0000           -0.6832127             -18.5912
        10        2.0000           -0.6660753             -18.1248
        11        2.0000           -0.6650624             -18.0973
        12        2.0000           -0.6580235             -17.9057
        13        2.0000           -0.6561232             -17.8540 (HOMO)
        14                         -0.2492702              -6.7830 (LUMO)
        15                         -0.1614476              -4.3932
        16                         -0.1572433              -4.2788
        17                         -0.1455115              -3.9596
        18                         -0.0540598              -1.4710
       ...                                ...                  ...
        26                          0.0777699               2.1162
      -------------------------------------------------------------
                  HL-Gap            0.4068531 Eh           11.0710 eV
             Fermi-level           -0.4526967 Eh          -12.3185 eV

 SCC (total)                   0 d,  0 h,  0 min,  0.655 sec
 SCC setup                      ...        0 min,  0.016 sec (  2.482%)
 Dispersion                     ...        0 min,  0.040 sec (  6.064%)
 classical contributions        ...        0 min,  0.020 sec (  3.003%)
 integral evaluation            ...        0 min,  0.060 sec (  9.182%)
 iterations                     ...        0 min,  0.247 sec ( 37.749%)
 molecular gradient             ...        0 min,  0.271 sec ( 41.449%)
 printout                       ...        0 min,  0.000 sec (  0.022%)

         :::::::::::::::::::::::::::::::::::::::::::::::::::::
         ::                     SUMMARY                     ::
         :::::::::::::::::::::::::::::::::::::::::::::::::::::
         :: total energy             -14.014166872790 Eh    ::
         :: gradient norm              0.000852895387 Eh/a0 ::
         :: HOMO-LUMO gap             11.071035258849 eV    ::
         ::.................................................::
         :: SCC energy               -14.212287024124 Eh    ::
         :: -> isotropic ES            0.097666013362 Eh    ::
         :: -> anisotropic ES         -0.010270927060 Eh    ::
         :: -> anisotropic XC          0.012276451508 Eh    ::
         :: -> dispersion             -0.005272343886 Eh    ::
         :: repulsion energy           0.198100777379 Eh    ::
         :: add. restraining           0.000012293064 Eh    ::
         :: total charge               1.000000000000 e     ::
         :::::::::::::::::::::::::::::::::::::::::::::::::::::

           -------------------------------------------------
          |                Property Printout                |
           -------------------------------------------------

    * Orbital Energies and Occupations

         #    Occupation            Energy/Eh            Energy/eV
      -------------------------------------------------------------
         1        2.0000           -0.8911722             -24.2500
         2        2.0000           -0.8450559             -22.9951
         3        2.0000           -0.8439315             -22.9645
         4        2.0000           -0.8107368             -22.0613
         5        2.0000           -0.7638225             -20.7847
         6        2.0000           -0.7405772             -20.1521
         7        2.0000           -0.7399217             -20.1343
         8        2.0000           -0.6846640             -18.6307
         9        2.0000           -0.6832127             -18.5912
        10        2.0000           -0.6660753             -18.1248
        11        2.0000           -0.6650624             -18.0973
        12        2.0000           -0.6580235             -17.9057
        13        2.0000           -0.6561232             -17.8540 (HOMO)
        14                         -0.2492702              -6.7830 (LUMO)
        15                         -0.1614476              -4.3932
        16                         -0.1572433              -4.2788
        17                         -0.1455115              -3.9596
        18                         -0.0540598              -1.4710
        19                         -0.0066190              -0.1801
        20                          0.0002452               0.0067
        21                          0.0025601               0.0697
        22                          0.0258409               0.7032
        23                          0.0310413               0.8447
        24                          0.0344874               0.9384
       ...                                ...                  ...
        26                          0.0777699               2.1162
      -------------------------------------------------------------
                  HL-Gap            0.4068531 Eh           11.0710 eV
             Fermi-level           -0.4526967 Eh          -12.3185 eV

     #   Z          covCN         q      C6AA      α(0)
     1   1 H        0.925     0.116     1.646     2.006
     2   6 C        3.694    -0.107    22.733     6.821
     3   7 N        3.576     0.079    19.867     6.620
     4   1 H        0.859     0.234     0.948     1.526
     5   1 H        0.925     0.105     1.737     2.061
     6   1 H        0.925     0.116     1.645     2.006
     7   6 C        3.698    -0.102    22.629     6.804
     8   6 C        3.698    -0.102    22.630     6.804
     9   1 H        0.925     0.113     1.671     2.022
    10   1 H        0.925     0.109     1.704     2.041
    11   1 H        0.925     0.109     1.703     2.041
    12   1 H        0.925     0.113     1.668     2.020
    13   1 H        0.925     0.109     1.709     2.044
    14   1 H        0.925     0.108     1.714     2.047

 Mol. C6AA /au·bohr⁶  :        983.428732
 Mol. C8AA /au·bohr⁸  :      20048.998032
 Mol. α(0) /au        :         46.863450


Wiberg/Mayer (AO) data.
largest (>0.10) Wiberg bond orders for each atom

 ---------------------------------------------------------------------------
     #   Z sym  total        # sym  WBO       # sym  WBO       # sym  WBO
 ---------------------------------------------------------------------------
     1   1 H    0.987 --     2 C    0.973
     2   6 C    3.908 --     5 H    0.980     6 H    0.974     1 H    0.973
                             3 N    0.948
     3   7 N    3.786 --     7 C    0.960     8 C    0.960     2 C    0.948
                             4 H    0.917
     4   1 H    0.945 --     3 N    0.917
     5   1 H    0.989 --     2 C    0.980
     6   1 H    0.987 --     2 C    0.974
     7   6 C    3.913 --    10 H    0.975     9 H    0.974    13 H    0.974
                             3 N    0.960
     8   6 C    3.913 --    11 H    0.974    12 H    0.974    14 H    0.974
                             3 N    0.960
     9   1 H    0.987 --     7 C    0.974
    10   1 H    0.988 --     7 C    0.975
    11   1 H    0.988 --     8 C    0.974
    12   1 H    0.987 --     8 C    0.974
    13   1 H    0.988 --     7 C    0.974
    14   1 H    0.988 --     8 C    0.974
 ---------------------------------------------------------------------------

Topologies differ in total number of bonds
Writing topology from bond orders to xtbtopo.mol

molecular dipole:
                 x           y           z       tot (Debye)
 q only:       -0.050      -0.146      -0.221
   full:       -0.089      -0.256      -0.365       1.156
molecular quadrupole (traceless):
                xx          xy          yy          xz          yz          zz
 q only:        0.976      -0.263      -0.070      -0.452      -1.397      -0.906
  q+dip:        0.110       0.064      -0.034       0.007      -0.036      -0.076
   full:        0.416      -0.022      -0.055      -0.162      -0.503      -0.362

           -------------------------------------------------
          |                Geometry Summary                 |
           -------------------------------------------------

      molecular mass/u    :       60.1183184
   center of mass at/Å    :       -0.0043124       0.0003154      -0.0090837
  moments of inertia/u·Å² :        0.6076008E+02   0.6200614E+02   0.1057751E+03
rotational constants/cm⁻¹ :        0.2774458E+00   0.2718704E+00   0.1593724E+00

 * 13 selected distances

     #   Z          #   Z                                           value/Å
     1   1 H        2   6 C                                       1.0875389
     2   6 C        3   7 N                                       1.4885331 (max)
     3   7 N        4   1 H                                       1.0257636 (min)
     2   6 C        5   1 H                                       1.0870527
     2   6 C        6   1 H                                       1.0877307
     3   7 N        7   6 C                                       1.4740573
     3   7 N        8   6 C                                       1.4745619
     7   6 C        9   1 H                                       1.0889945
     7   6 C       10   1 H                                       1.0884648
     8   6 C       11   1 H                                       1.0882722
     8   6 C       12   1 H                                       1.0893440
     7   6 C       13   1 H                                       1.0888289
     8   6 C       14   1 H                                       1.0885988

 * 3 distinct bonds (by element types)

   Z      Z             #   av. dist./Å        max./Å        min./Å
   1 H    6 C           9     1.0883139     1.0893440     1.0870527
   1 H    7 N           1     1.0257636     1.0257636     1.0257636
   6 C    7 N           3     1.4790508     1.4885331     1.4740573


optimized geometry written to: xtbopt.xyz


           -------------------------------------------------
          | TOTAL ENERGY              -14.014166872790 Eh   |
          | GRADIENT NORM               0.000852895387 Eh/α |
          | HOMO-LUMO GAP              11.071035258849 eV   |
           -------------------------------------------------
########################################################################
[WARNING] Runtime exception occurred
-1- restart_readRestart: Number of electron missmatch in restart file.
########################################################################

------------------------------------------------------------------------
 * finished run on 2023/11/18 at 08:09:28.528     
------------------------------------------------------------------------
 total:
 * wall-time:     0 d,  0 h,  0 min,  7.775 sec
 *  cpu-time:     0 d,  0 h,  3 min,  7.050 sec
 * ratio c/w:    24.058 speedup
 SCF:
 * wall-time:     0 d,  0 h,  0 min,  1.570 sec
 *  cpu-time:     0 d,  0 h,  0 min, 28.379 sec
 * ratio c/w:    18.074 speedup
 ANC optimizer:
 * wall-time:     0 d,  0 h,  0 min,  5.798 sec
 *  cpu-time:     0 d,  0 h,  2 min, 33.478 sec
 * ratio c/w:    26.472 speedup

