14
 energy: -14.016792769871 gnorm: 0.000221259642 xtb: 6.5.0 (97a52f5)
H            2.03634140950819        0.09434114472854       -0.34392052688998
C            1.11832657444476        0.61041423750934       -0.62011163294169
N           -0.05875638634924       -0.21068460033758       -0.25723051064197
H           -0.22465204365052       -0.85773356500748       -1.03670303791074
H            1.15318706363662        0.77986960013817       -1.69426717500889
H            1.08983957303956        1.56395753271369       -0.09780776899276
C           -1.27266058692266        0.61122187480077       -0.10788443321940
C            0.19622588552243       -1.01607222445530        0.95108323834500
H           -1.13816433674158        1.32570218019357        0.70246376213276
H           -1.47753189328388        1.15303810050384       -1.02964081600781
H            1.09780523682481       -1.61295487822166        0.83027229661975
H            0.33219220953900       -0.35457106286397        1.80606094288142
H           -2.13041155820675       -0.01885880334740        0.12137467034703
H           -0.64314514736075       -1.67889653635453        1.15231900128728
