14
 energy: -14.013574909406 gnorm: 0.037579768926 xtb: 6.5.0 (97a52f5)
H            1.20876049000000        1.53500899000000        0.03294951000000
C            1.12500045000000        0.68185311000000       -0.64436707000000
N           -0.10067060000000       -0.13935432000000       -0.27996011000000
H           -0.41203181000000       -0.62050800000000       -1.14158470000000
H            2.02283459000000        0.06569061000000       -0.55491041000000
H            1.01740311000000        1.03191475000000       -1.67436992000000
C           -1.25393620000000        0.73059786000000        0.17821858000000
C            0.21072824000000       -1.22905504000000        0.72794527000000
H           -0.96891241000000        1.26559612000000        1.08760654000000
H           -1.49971426000000        1.43857355000000       -0.61779953000000
H            1.03478650000000       -1.84053843000000        0.35140579000000
H            0.49172613000000       -0.77063854000000        1.67944262000000
H           -2.12238598000000        0.09607689000000        0.37311707000000
H           -0.67499425000000       -1.85644556000000        0.85831439000000
14
 energy: -14.016299867943 gnorm: 0.018605796556 xtb: 6.5.0 (97a52f5)
H            1.18846009102512        1.50094644552287        0.05355071815172
C            1.10120901995762        0.66516528312819       -0.63737621023713
N           -0.10535493347246       -0.14493882514999       -0.28472441766303
H           -0.41221267896983       -0.61894826849036       -1.14412860039251
H            1.99625355298667        0.05393692458561       -0.55136758781195
H            1.01145778457002        1.04671454095630       -1.65242178485731
C           -1.23389574436531        0.71630102159937        0.16807896365242
C            0.20862079239316       -1.20717737213345        0.71415924356831
H           -0.94584713308649        1.24589050819882        1.07325796016738
H           -1.48267693183297        1.43174213273868       -0.61344872121010
H            1.03407714196951       -1.81764912356734        0.35413272010179
H            0.48928826265409       -0.74361388616891        1.65745870515375
H           -2.10450929849732        0.09672212758280        0.37360026028542
H           -0.66627592533179       -1.83631951880259        0.86523678109122
14
 energy: -14.016830135173 gnorm: 0.006045154274 xtb: 6.5.0 (97a52f5)
H            1.18767804847716        1.47833965142403        0.06726742251680
C            1.08835156278517        0.65171983790148       -0.63386141747443
N           -0.10821824522382       -0.14756472157711       -0.28926234434758
H           -0.41347357407884       -0.61576212881329       -1.14909381588761
H            1.98864170910503        0.04883194322807       -0.55353978500635
H            1.00878908698743        1.05907486723880       -1.63871258713630
C           -1.22245249329775        0.70380078299691        0.16134339964843
C            0.20571952139703       -1.19114105457121        0.70299356135606
H           -0.93841990565450        1.23340333552227        1.06739766271340
H           -1.47875947433263        1.42753542919021       -0.60905792864376
H            1.03251193323847       -1.80759068095054        0.35896631472470
H            0.48964599589051       -0.72365468411163        1.64359289568999
H           -2.10029826604339        0.09699150862671        0.37288822130460
H           -0.66112189924987       -1.82521209610469        0.87508643054205
14
 energy: -14.016838495805 gnorm: 0.008725624397 xtb: 6.5.0 (97a52f5)
H            1.19001023200477        1.47642905259386        0.06946907844206
C            1.08831655894705        0.65118048487498       -0.63483773966549
N           -0.10864499453029       -0.14782117292817       -0.29013327637310
H           -0.41460642244492       -0.61617373910251       -1.15080727741261
H            1.98886702175025        0.04728741860442       -0.55442023487284
H            1.00891945540022        1.06176620162809       -1.63842075842326
C           -1.22329273765439        0.70385644263886        0.16060832255963
C            0.20609529838975       -1.19115068170124        0.70278017397605
H           -0.93989779271855        1.23377547335473        1.06824908065162
H           -1.48008958336304        1.42930384555503       -0.60911235750113
H            1.03371779970430       -1.80843008698808        0.36007743286695
H            0.49123192733638       -0.72215273053933        1.64364054389928
H           -2.10174372783248        0.09684610187877        0.37135072693828
H           -0.66028903498906       -1.82594461986942        0.87756431491455
14
 energy: -14.016839799206 gnorm: 0.005561286630 xtb: 6.5.0 (97a52f5)
H            1.19139832746823        1.47502890542256        0.07101454026493
C            1.08829395562729        0.65075938940056       -0.63521811037826
N           -0.10936465979741       -0.14831997075687       -0.29085327225787
H           -0.41526630041244       -0.61649144242873       -1.15211872092273
H            1.98912515662169        0.04633845878311       -0.55510836736931
H            1.00854090384141        1.06337733524411       -1.63792516342176
C           -1.22355193948403        0.70420975226556        0.16038350447556
C            0.20660952100732       -1.19094905189701        0.70283006207491
H           -0.94074307581376        1.23407880561158        1.06885417313095
H           -1.48078042562990        1.43018938993636       -0.60944039994535
H            1.03451175843153       -1.80891336782823        0.36064256622028
H            0.49221393085330       -0.72111635323954        1.64379139871218
H           -2.10266875633984        0.09679581785757        0.37028040297201
H           -0.65972439637340       -1.82621567837103        0.87887541644444
14
 energy: -14.016841872210 gnorm: 0.000813489910 xtb: 6.5.0 (97a52f5)
H            1.19102864818164        1.47566722113564        0.07016676130900
C            1.08852236379896        0.65096199301565       -0.63512371169882
N           -0.10881110613883       -0.14797092555359       -0.29043055867962
H           -0.41476664813761       -0.61627470748519       -1.15142682058758
H            1.98937782331194        0.04700498613661       -0.55500841388766
H            1.00840473381141        1.06260230664146       -1.63795068641700
C           -1.22328628082629        0.70379082272463        0.16068643269644
C            0.20604530587126       -1.19085551249070        0.70286274379664
H           -0.94025627846957        1.23375392692290        1.06861655452313
H           -1.48036068637719        1.42914727579193       -0.60936697975797
H            1.03369308990214       -1.80837873972656        0.36013387232721
H            0.49153486100794       -0.72150268135652        1.64381731856384
H           -2.10206732921025        0.09638700892405        0.37095512959033
H           -0.66046449672553       -1.82556098468034        0.87807638822205
