Generated by Psi4
        SP                        DF-MP2                      6-311G**
Number of atoms                            I               14
Charge                                     I                1
Multiplicity                               I                1
Number of electrons                        I               34
Number of alpha electrons                  I               17
Number of beta electrons                   I               17
Number of basis functions                  I              132
Number of independent functions            I              132
Atomic numbers                             I   N=          14
           1           6           7           1           1           1
           6           6           1           1           1           1
           1           1
Nuclear charges                            R   N=          14
  1.00000000e+00  6.00000000e+00  7.00000000e+00  1.00000000e+00  1.00000000e+00
  1.00000000e+00  6.00000000e+00  6.00000000e+00  1.00000000e+00  1.00000000e+00
  1.00000000e+00  1.00000000e+00  1.00000000e+00  1.00000000e+00
Current cartesian coordinates              R   N=          42
  3.78756857e+00 -8.15622466e-02 -1.42221296e+00  2.16095540e+00  1.15364144e+00
 -1.16681856e+00 -8.28799656e-02 -4.25450377e-01 -4.59328218e-01 -3.37938041e-01
 -1.73644718e+00 -1.87104883e+00  1.74323468e+00  2.15728693e+00 -2.91454672e+00
  2.51031797e+00  2.49013440e+00  3.59806197e-01 -2.44594181e+00  1.13018667e+00
 -3.14006693e-01  3.69043632e-01 -1.85257763e+00  1.94588475e+00 -2.18688639e+00
  2.55281449e+00  1.15173464e+00 -2.76217316e+00  2.03224103e+00 -2.13692980e+00
  2.10364643e+00 -2.94451890e+00  1.75603519e+00  5.48036919e-01 -4.87383723e-01
  3.47660003e+00 -4.02506293e+00 -1.02740264e-01  1.58855331e-01 -1.23003573e+00
 -3.10329343e+00  2.28639029e+00
Integer atomic weights                     I   N=          14
           1          12          14           1           1           1
          12          12           1           1           1           1
           1           1
Real atomic weights                        R   N=          14
  1.00782503e+00  1.20000000e+01  1.40030740e+01  1.00782503e+00  1.00782503e+00
  1.00782503e+00  1.20000000e+01  1.20000000e+01  1.00782503e+00  1.00782503e+00
  1.00782503e+00  1.00782503e+00  1.00782503e+00  1.00782503e+00
Number of primitive shells                 I              128
Number of contracted shells                I               72
Pure/Cartesian d shells                    I                0
Pure/Cartesian f shells                    I                0
Highest angular momentum                   I                2
Largest degree of contraction              I                6
Shell types                                I   N=          72
           0           0           0           1           0           0
           1           0           1           0           1          -2
           0           0           1           0           1           0
           1          -2           0           0           0           1
           0           0           0           1           0           0
           0           1           0           0           1           0
           1           0           1          -2           0           0
           1           0           1           0           1          -2
           0           0           0           1           0           0
           0           1           0           0           0           1
           0           0           0           1           0           0
           0           1           0           0           0           1
Number of primitives per shell             I   N=          72
           3           1           1           1           6           3
           3           1           1           1           1           1
           6           3           3           1           1           1
           1           1           3           1           1           1
           3           1           1           1           3           1
           1           1           6           3           3           1
           1           1           1           1           6           3
           3           1           1           1           1           1
           3           1           1           1           3           1
           1           1           3           1           1           1
           3           1           1           1           3           1
           1           1           3           1           1           1
Shell to atom map                          I   N=          72
           1           1           1           1           2           2
           2           2           2           2           2           2
           3           3           3           3           3           3
           3           3           4           4           4           4
           5           5           5           5           6           6
           6           6           7           7           7           7
           7           7           7           7           8           8
           8           8           8           8           8           8
           9           9           9           9          10          10
          10          10          11          11          11          11
          12          12          12          12          13          13
          13          13          14          14          14          14
Primitive exponents                        R   N=         128
  3.38650000e+01  5.09479000e+00  1.15879000e+00  3.25840000e-01  1.02741000e-01
  7.50000000e-01  4.56324000e+03  6.82024000e+02  1.54973000e+02  4.44553000e+01
  1.30290000e+01  1.82773000e+00  2.09642000e+01  4.80331000e+00  1.45933000e+00
  2.09642000e+01  4.80331000e+00  1.45933000e+00  4.83456000e-01  4.83456000e-01
  1.45585000e-01  1.45585000e-01  6.26000000e-01  6.29348000e+03  9.49044000e+02
  2.18776000e+02  6.36916000e+01  1.88282000e+01  2.72023000e+00  3.06331000e+01
  7.02614000e+00  2.11205000e+00  3.06331000e+01  7.02614000e+00  2.11205000e+00
  6.84009000e-01  6.84009000e-01  2.00878000e-01  2.00878000e-01  9.13000000e-01
  3.38650000e+01  5.09479000e+00  1.15879000e+00  3.25840000e-01  1.02741000e-01
  7.50000000e-01  3.38650000e+01  5.09479000e+00  1.15879000e+00  3.25840000e-01
  1.02741000e-01  7.50000000e-01  3.38650000e+01  5.09479000e+00  1.15879000e+00
  3.25840000e-01  1.02741000e-01  7.50000000e-01  4.56324000e+03  6.82024000e+02
  1.54973000e+02  4.44553000e+01  1.30290000e+01  1.82773000e+00  2.09642000e+01
  4.80331000e+00  1.45933000e+00  2.09642000e+01  4.80331000e+00  1.45933000e+00
  4.83456000e-01  4.83456000e-01  1.45585000e-01  1.45585000e-01  6.26000000e-01
  4.56324000e+03  6.82024000e+02  1.54973000e+02  4.44553000e+01  1.30290000e+01
  1.82773000e+00  2.09642000e+01  4.80331000e+00  1.45933000e+00  2.09642000e+01
  4.80331000e+00  1.45933000e+00  4.83456000e-01  4.83456000e-01  1.45585000e-01
  1.45585000e-01  6.26000000e-01  3.38650000e+01  5.09479000e+00  1.15879000e+00
  3.25840000e-01  1.02741000e-01  7.50000000e-01  3.38650000e+01  5.09479000e+00
  1.15879000e+00  3.25840000e-01  1.02741000e-01  7.50000000e-01  3.38650000e+01
  5.09479000e+00  1.15879000e+00  3.25840000e-01  1.02741000e-01  7.50000000e-01
  3.38650000e+01  5.09479000e+00  1.15879000e+00  3.25840000e-01  1.02741000e-01
  7.50000000e-01  3.38650000e+01  5.09479000e+00  1.15879000e+00  3.25840000e-01
  1.02741000e-01  7.50000000e-01  3.38650000e+01  5.09479000e+00  1.15879000e+00
  3.25840000e-01  1.02741000e-01  7.50000000e-01
Contraction coefficients                   R   N=         128
  2.54938145e-02  1.90373109e-01  8.52161486e-01  1.00000000e+00  1.00000000e+00
  1.00000000e+00  1.96665025e-03  1.52306019e-02  7.61269097e-02  2.60801033e-01
  6.16462078e-01  2.21006028e-01  1.14660081e-01  9.19999648e-01 -3.03068213e-03
  4.02486927e-02  2.37593957e-01  8.15853851e-01  1.00000000e+00  1.00000000e+00
  1.00000000e+00  1.00000000e+00  1.00000000e+00  1.96978815e-03  1.49612859e-02
  7.35005308e-02  2.48936766e-01  6.02459433e-01  2.56201759e-01  1.11906080e-01
  9.21666655e-01 -2.56919183e-03  3.83119186e-02  2.37403116e-01  8.17592398e-01
  1.00000000e+00  1.00000000e+00  1.00000000e+00  1.00000000e+00  1.00000000e+00
  2.54938145e-02  1.90373109e-01  8.52161486e-01  1.00000000e+00  1.00000000e+00
  1.00000000e+00  2.54938145e-02  1.90373109e-01  8.52161486e-01  1.00000000e+00
  1.00000000e+00  1.00000000e+00  2.54938145e-02  1.90373109e-01  8.52161486e-01
  1.00000000e+00  1.00000000e+00  1.00000000e+00  1.96665025e-03  1.52306019e-02
  7.61269097e-02  2.60801033e-01  6.16462078e-01  2.21006028e-01  1.14660081e-01
  9.19999648e-01 -3.03068213e-03  4.02486927e-02  2.37593957e-01  8.15853851e-01
  1.00000000e+00  1.00000000e+00  1.00000000e+00  1.00000000e+00  1.00000000e+00
  1.96665025e-03  1.52306019e-02  7.61269097e-02  2.60801033e-01  6.16462078e-01
  2.21006028e-01  1.14660081e-01  9.19999648e-01 -3.03068213e-03  4.02486927e-02
  2.37593957e-01  8.15853851e-01  1.00000000e+00  1.00000000e+00  1.00000000e+00
  1.00000000e+00  1.00000000e+00  2.54938145e-02  1.90373109e-01  8.52161486e-01
  1.00000000e+00  1.00000000e+00  1.00000000e+00  2.54938145e-02  1.90373109e-01
  8.52161486e-01  1.00000000e+00  1.00000000e+00  1.00000000e+00  2.54938145e-02
  1.90373109e-01  8.52161486e-01  1.00000000e+00  1.00000000e+00  1.00000000e+00
  2.54938145e-02  1.90373109e-01  8.52161486e-01  1.00000000e+00  1.00000000e+00
  1.00000000e+00  2.54938145e-02  1.90373109e-01  8.52161486e-01  1.00000000e+00
  1.00000000e+00  1.00000000e+00  2.54938145e-02  1.90373109e-01  8.52161486e-01
  1.00000000e+00  1.00000000e+00  1.00000000e+00
Coordinates of each shell                  R   N=         216
  3.78756857e+00 -8.15622466e-02 -1.42221296e+00  3.78756857e+00 -8.15622466e-02
 -1.42221296e+00  3.78756857e+00 -8.15622466e-02 -1.42221296e+00  3.78756857e+00
 -8.15622466e-02 -1.42221296e+00  2.16095540e+00  1.15364144e+00 -1.16681856e+00
  2.16095540e+00  1.15364144e+00 -1.16681856e+00  2.16095540e+00  1.15364144e+00
 -1.16681856e+00  2.16095540e+00  1.15364144e+00 -1.16681856e+00  2.16095540e+00
  1.15364144e+00 -1.16681856e+00  2.16095540e+00  1.15364144e+00 -1.16681856e+00
  2.16095540e+00  1.15364144e+00 -1.16681856e+00  2.16095540e+00  1.15364144e+00
 -1.16681856e+00 -8.28799656e-02 -4.25450377e-01 -4.59328218e-01 -8.28799656e-02
 -4.25450377e-01 -4.59328218e-01 -8.28799656e-02 -4.25450377e-01 -4.59328218e-01
 -8.28799656e-02 -4.25450377e-01 -4.59328218e-01 -8.28799656e-02 -4.25450377e-01
 -4.59328218e-01 -8.28799656e-02 -4.25450377e-01 -4.59328218e-01 -8.28799656e-02
 -4.25450377e-01 -4.59328218e-01 -8.28799656e-02 -4.25450377e-01 -4.59328218e-01
 -3.37938041e-01 -1.73644718e+00 -1.87104883e+00 -3.37938041e-01 -1.73644718e+00
 -1.87104883e+00 -3.37938041e-01 -1.73644718e+00 -1.87104883e+00 -3.37938041e-01
 -1.73644718e+00 -1.87104883e+00  1.74323468e+00  2.15728693e+00 -2.91454672e+00
  1.74323468e+00  2.15728693e+00 -2.91454672e+00  1.74323468e+00  2.15728693e+00
 -2.91454672e+00  1.74323468e+00  2.15728693e+00 -2.91454672e+00  2.51031797e+00
  2.49013440e+00  3.59806197e-01  2.51031797e+00  2.49013440e+00  3.59806197e-01
  2.51031797e+00  2.49013440e+00  3.59806197e-01  2.51031797e+00  2.49013440e+00
  3.59806197e-01 -2.44594181e+00  1.13018667e+00 -3.14006693e-01 -2.44594181e+00
  1.13018667e+00 -3.14006693e-01 -2.44594181e+00  1.13018667e+00 -3.14006693e-01
 -2.44594181e+00  1.13018667e+00 -3.14006693e-01 -2.44594181e+00  1.13018667e+00
 -3.14006693e-01 -2.44594181e+00  1.13018667e+00 -3.14006693e-01 -2.44594181e+00
  1.13018667e+00 -3.14006693e-01 -2.44594181e+00  1.13018667e+00 -3.14006693e-01
  3.69043632e-01 -1.85257763e+00  1.94588475e+00  3.69043632e-01 -1.85257763e+00
  1.94588475e+00  3.69043632e-01 -1.85257763e+00  1.94588475e+00  3.69043632e-01
 -1.85257763e+00  1.94588475e+00  3.69043632e-01 -1.85257763e+00  1.94588475e+00
  3.69043632e-01 -1.85257763e+00  1.94588475e+00  3.69043632e-01 -1.85257763e+00
  1.94588475e+00  3.69043632e-01 -1.85257763e+00  1.94588475e+00 -2.18688639e+00
  2.55281449e+00  1.15173464e+00 -2.18688639e+00  2.55281449e+00  1.15173464e+00
 -2.18688639e+00  2.55281449e+00  1.15173464e+00 -2.18688639e+00  2.55281449e+00
  1.15173464e+00 -2.76217316e+00  2.03224103e+00 -2.13692980e+00 -2.76217316e+00
  2.03224103e+00 -2.13692980e+00 -2.76217316e+00  2.03224103e+00 -2.13692980e+00
 -2.76217316e+00  2.03224103e+00 -2.13692980e+00  2.10364643e+00 -2.94451890e+00
  1.75603519e+00  2.10364643e+00 -2.94451890e+00  1.75603519e+00  2.10364643e+00
 -2.94451890e+00  1.75603519e+00  2.10364643e+00 -2.94451890e+00  1.75603519e+00
  5.48036919e-01 -4.87383723e-01  3.47660003e+00  5.48036919e-01 -4.87383723e-01
  3.47660003e+00  5.48036919e-01 -4.87383723e-01  3.47660003e+00  5.48036919e-01
 -4.87383723e-01  3.47660003e+00 -4.02506293e+00 -1.02740264e-01  1.58855331e-01
 -4.02506293e+00 -1.02740264e-01  1.58855331e-01 -4.02506293e+00 -1.02740264e-01
  1.58855331e-01 -4.02506293e+00 -1.02740264e-01  1.58855331e-01 -1.23003573e+00
 -3.10329343e+00  2.28639029e+00 -1.23003573e+00 -3.10329343e+00  2.28639029e+00
 -1.23003573e+00 -3.10329343e+00  2.28639029e+00 -1.23003573e+00 -3.10329343e+00
  2.28639029e+00
Total Energy                               R     -1.743417082397116e+02
Alpha Orbital Energies                     R   N=         132
 -1.58800386e+01 -1.14649820e+01 -1.14649748e+01 -1.14649532e+01 -1.51397171e+00
 -1.18196712e+00 -1.18186132e+00 -1.08651529e+00 -9.35899562e-01 -8.62188390e-01
 -8.62106650e-01 -7.72707104e-01 -7.72309085e-01 -7.42280951e-01 -7.41697477e-01
 -7.36845628e-01 -7.36659732e-01 -4.57764594e-02  1.61039094e-03  2.10902721e-02
  2.12652286e-02  3.46039172e-02  5.07995802e-02  5.10248508e-02  8.95198371e-02
  9.81999336e-02  9.94353525e-02  1.23316956e-01  1.61595745e-01  1.62071476e-01
  2.15287525e-01  2.15978349e-01  2.92875833e-01  3.19039147e-01  3.19392319e-01
  3.66901540e-01  4.26832177e-01  4.36052087e-01  4.37477596e-01  4.79059753e-01
  5.80687705e-01  5.81228978e-01  5.90225812e-01  5.98265368e-01  5.98512137e-01
  6.20388969e-01  6.42082023e-01  6.48897373e-01  6.49936982e-01  6.65728832e-01
  6.90379925e-01  7.04786185e-01  7.05070256e-01  9.24788130e-01  9.28671896e-01
  1.02029096e+00  1.02444707e+00  1.21632066e+00  1.25888354e+00  1.25977748e+00
  1.39905865e+00  1.44906659e+00  1.46229897e+00  1.46412148e+00  1.49500436e+00
  1.49585494e+00  1.50664326e+00  1.53190883e+00  1.53247142e+00  1.55085148e+00
  1.57745172e+00  1.57802412e+00  1.59905242e+00  1.71258526e+00  1.71364534e+00
  1.71806938e+00  1.78579986e+00  1.82482984e+00  1.82673228e+00  1.84560293e+00
  1.84738381e+00  1.88525122e+00  1.93812972e+00  2.05439113e+00  2.05703126e+00
  2.12534641e+00  2.16619607e+00  2.17009473e+00  2.19324887e+00  2.19491726e+00
  2.26058221e+00  2.26828133e+00  2.44015235e+00  2.44132227e+00  2.47048648e+00
  2.51010405e+00  2.56272304e+00  2.56464361e+00  2.60371828e+00  2.60497317e+00
  2.63483869e+00  2.68455202e+00  2.69213171e+00  2.69393047e+00  2.72312609e+00
  2.72480805e+00  2.77909995e+00  2.77957838e+00  2.78941648e+00  2.79582331e+00
  2.94856859e+00  2.94914950e+00  3.00745419e+00  3.11502136e+00  3.11802310e+00
  3.30670530e+00  3.58833487e+00  3.58897083e+00  3.81667395e+00  3.95366902e+00
  3.96976188e+00  3.96988205e+00  3.99788900e+00  3.99793711e+00  4.01929411e+00
  4.91988467e+00  5.02610251e+00  5.02681215e+00  2.48078325e+01  2.48442325e+01
  2.48445183e+01  3.66486606e+01
Alpha MO coefficients                      R   N=       17424
  4.12999065e-06 -3.09392374e-05 -2.86462428e-05 -1.21365634e-05  1.34574603e-05
  3.59832554e-06  6.58085554e-06 -2.35100124e-05 -2.90148645e-05 -2.12515966e-05
  8.46513841e-06  1.19741514e-04 -2.48015769e-04 -1.74656815e-04  7.47415894e-05
  4.80544805e-04 -1.32879167e-04 -1.16508305e-04 -2.09247373e-07 -5.23529986e-05
 -4.47814533e-05 -3.67277154e-05  3.72152930e-05  9.38699392e-05  5.57699491e-01
  4.68209643e-01 -2.11045127e-05 -1.07042362e-04 -1.14379883e-04  5.19645021e-03
  1.32581661e-05  6.76781440e-05  7.26964166e-05 -1.87910645e-03 -9.59340823e-06
 -4.70082720e-05 -5.03574275e-05  5.74504707e-06  3.20859110e-06  1.68968135e-05
 -7.47798649e-06  3.02701908e-06  2.16283587e-04  4.68066682e-04 -5.66218286e-05
  1.78687013e-05  9.16110960e-05  9.85170044e-05  4.49300990e-06 -3.54781515e-05
 -3.27628328e-05  6.44773403e-06 -5.36523573e-06  1.50437252e-05 -2.55570170e-06
  1.92462133e-05 -2.26717283e-05 -5.05244710e-06 -1.85234290e-05 -2.13384118e-05
  6.58681847e-06 -2.35217999e-05  3.05180835e-05 -2.07986080e-05 -2.71996376e-06
  1.19908821e-04  2.59213181e-04 -1.73502689e-04 -1.80009710e-05  4.79680349e-04
  1.21740668e-04 -1.20756826e-04 -4.22898894e-05 -6.40404169e-05 -9.78556712e-06
 -6.21483902e-07  4.61584997e-05 -9.98471369e-05  6.58789333e-06 -2.35306177e-05
 -6.17457161e-06  1.77569121e-05 -3.18762995e-05  1.19767124e-04 -4.85391634e-05
  1.54884017e-04 -2.66969893e-04  4.80848637e-04 -2.57335749e-05  4.49471499e-05
 -1.69133563e-04  6.94587307e-05  2.80672553e-05 -9.91688678e-05 -2.23483979e-05
 -1.87531410e-05 -2.57389530e-06  1.94619541e-05 -2.23237110e-05 -3.51513179e-06
 -1.99963422e-05 -2.04404778e-05  4.21799798e-06 -3.21323786e-05 -2.92263591e-05
  9.78270237e-07 -4.84417331e-06  1.73868896e-05  4.44584122e-06 -3.53391537e-05
 -3.29477831e-05 -1.37893354e-05  8.52695947e-06  5.72431269e-06 -2.46885061e-06
  1.88515010e-05 -2.20247855e-05 -2.31565866e-06 -1.89544074e-05 -2.14526185e-05
  4.28699000e-06 -3.36815982e-05 -3.22977149e-05  1.11879764e-05  1.33941384e-05
 -2.48401400e-06  4.09414971e-06 -3.08276918e-05 -2.88453632e-05  1.44254767e-05
  1.14829526e-05  5.89132931e-07  2.27544032e-04  1.13115854e-04  2.26738471e-04
 -1.13625975e-05 -3.94634303e-05  2.23782653e-05  3.98751902e-01  3.30207995e-01
 -6.50421667e-04 -4.59715284e-04  2.00934090e-04  3.14181775e-03  4.82379219e-04
  3.33805998e-04 -1.36966808e-04 -1.34951358e-03  5.37142661e-06  3.99272871e-05
 -1.59804651e-04  1.23383698e-04  9.54488879e-05  5.98549986e-05 -8.35242332e-05
 -2.27056855e-04 -1.90510412e-08 -3.04369129e-08  2.84698839e-05  4.77924719e-05
 -4.94803722e-05 -7.73976664e-08  2.54538061e-04  4.27637452e-04 -4.42335335e-04
  1.18775472e-06  1.40161420e-04  2.15732532e-04 -2.29491272e-04 -1.88007612e-04
 -1.13395328e-04  9.69300991e-05  9.35850713e-05  1.74336847e-04 -7.97964568e-08
 -9.31404510e-07 -4.97287058e-07 -6.42962245e-06 -1.05217466e-05  1.08081427e-05
  2.36965858e-04  1.92095328e-05  1.45762888e-04 -3.67365659e-05  3.89150337e-06
 -2.30644685e-05  2.22316797e-04  1.59866260e-04  2.41176566e-04 -2.66756469e-05
 -1.63011203e-05  2.96541920e-05 -2.71453516e-04 -2.24905251e-04  1.07012819e-06
  2.81211748e-06 -2.18215591e-06 -1.40358345e-06 -1.15296797e-05 -2.02878685e-05
  1.80067100e-05  6.10870218e-06  7.14329401e-05  1.13869361e-04 -1.29888828e-04
  8.65200482e-07  8.99759596e-06 -6.16097622e-06 -9.80534684e-06 -6.64305551e-06
 -3.98002463e-01 -3.29587327e-01  1.34057299e-04 -4.09215971e-04  6.98011351e-04
 -3.13642959e-03 -1.14826800e-04  2.99084751e-04 -5.09148896e-04  1.34147223e-03
  8.48909958e-05  1.44556462e-04 -4.06815551e-06  1.76629988e-04  7.67913610e-05
 -2.08581650e-04 -5.81235586e-05 -4.36331716e-05 -2.59398834e-07  1.47262097e-06
  6.45361525e-06 -6.00691009e-06 -1.23378063e-05  1.10646388e-05  8.77900971e-06
 -9.02499859e-05 -8.09339624e-05 -1.49967429e-05  3.30467391e-06 -1.25696965e-05
 -2.29235822e-04 -9.90876363e-05 -2.21888482e-04 -2.60609363e-05 -1.50215577e-05
  3.37150416e-05 -2.20619086e-04 -1.67327381e-04 -2.48058458e-04 -3.64130636e-06
 -3.54343931e-05  2.74836664e-05 -8.02498143e-06  8.40292609e-05  7.77649329e-05
  1.65707051e-05  2.95470350e-06  5.75211691e-06 -2.36415926e-04 -2.05836369e-05
 -1.45431181e-04  3.84536227e-05  1.98725840e-06  2.00174530e-05  1.99437311e-04
 -2.96346753e-05  8.79099471e-05  1.04195806e-05 -3.39175364e-05 -2.78924634e-06
  3.25123772e-01  2.69238628e-01 -5.22340452e-04 -3.73209568e-04  1.64990843e-04
  2.52521896e-03  3.71731145e-04  2.88655518e-04 -1.35002873e-04 -9.72971640e-04
  1.09967714e-04 -1.16608257e-04  1.86302826e-05  8.86825810e-05  7.75433113e-05
  5.64831865e-05 -5.01239144e-05 -1.79215057e-04 -4.49786112e-05 -7.73503384e-05
  6.55163686e-05 -1.88289369e-05  1.97451965e-05  1.50147138e-04  5.89434574e-04
 -1.50137801e-04  1.94105668e-04  2.50551301e-04  2.96499854e-04 -1.14216613e-04
  7.16338369e-05  1.04101568e-04 -8.97437522e-06 -1.67147685e-04 -4.24538357e-05
  2.21808084e-04  3.59863554e-06 -1.08518953e-06 -5.22305631e-06 -1.02695062e-05
  2.58300309e-05  1.92863909e-05  1.86152582e-04  1.09383732e-04  2.17359114e-04
 -3.60620352e-05 -3.04161084e-06 -1.55707750e-06  1.86536810e-04  8.49491332e-05
  1.75367123e-04 -3.10066113e-05  4.25676145e-06  1.57977779e-05 -3.24739856e-01
 -2.68915899e-01 -5.62553374e-04  3.73089065e-04  3.75905993e-05 -2.59592411e-03
  4.08726181e-04 -2.72748128e-04 -3.18454252e-05  1.22031774e-03  1.33892955e-04
  3.70243931e-05  1.06238648e-04 -1.23022436e-04 -2.08578724e-05  2.31826091e-05
  7.94401046e-05 -2.01932820e-04  3.25957366e-01  2.69929031e-01 -1.04082435e-04
  3.30923080e-04 -5.67039275e-04  2.53175589e-03  5.67442999e-05 -2.39290050e-04
  4.25258998e-04 -9.85067676e-04  1.52114715e-04 -4.27004466e-05 -2.74528047e-05
 -1.38081912e-04 -4.44049023e-05  1.68371295e-04  4.63916794e-05  2.29573366e-05
 -1.73607847e-04 -1.89304942e-04 -2.25983720e-04 -3.68137952e-05  1.74711658e-05
 -5.09504465e-06 -1.86960354e-04 -6.05785998e-05 -1.51518832e-04 -3.15081565e-05
 -3.61099603e-06  2.33863025e-05  1.98702473e-04 -2.30683690e-05  8.84304131e-05
  2.31039816e-05 -1.00828202e-05 -2.39077521e-05  1.88935529e-04  7.34049242e-05
  1.72292531e-04 -1.63856097e-05  2.98601808e-05 -5.07112878e-06 -1.87497334e-04
 -5.72691943e-05 -1.46321503e-04 -6.84985555e-06  3.43729287e-05 -1.66609190e-05
  1.84646528e-04  1.21450313e-04  2.17746836e-04 -2.32308347e-05  1.77978266e-05
 -2.41403815e-05  1.38018604e-04  4.08417358e-05  1.33395634e-04 -6.02140361e-06
 -1.80463310e-05 -1.69450589e-06  2.29569793e-01  1.90114533e-01 -3.59407556e-04
 -2.53245537e-04  1.10645259e-04  1.70525077e-03  2.76894962e-04  1.84210780e-04
 -7.87521465e-05 -4.36738401e-04 -8.07689561e-05  4.32277787e-05  5.66608121e-05
  5.64311836e-05  4.68924623e-05  3.51011148e-05 -4.26897089e-05 -9.88346591e-05
 -1.26890717e-04 -2.18217046e-04 -1.90932716e-05  2.85819246e-05  1.67645598e-05
  4.23806705e-04 -1.60694048e-04  3.03514292e-04  2.01637710e-04  7.06658768e-04
 -9.83429642e-05  7.13124193e-05  5.83268908e-06 -9.51687082e-05 -2.96499130e-05
 -1.09963373e-04  9.06325748e-05 -1.09284331e-04  1.01315808e-05 -3.15272913e-06
 -1.45057445e-05  1.60733498e-05  5.51014397e-05  6.25753871e-05  1.42030568e-04
 -5.17519075e-06  8.92074322e-05 -1.12003096e-05 -6.83974217e-06 -1.59197038e-05
  1.47032722e-04 -6.13051778e-05  6.66831215e-05  1.57023629e-06  9.95869727e-06
  2.54592324e-05  4.60385339e-01  3.81253773e-01  7.72884296e-04 -5.12989594e-04
 -5.12360232e-05  3.52422534e-03 -5.73948883e-04  3.81265174e-04  3.83779290e-05
 -1.21295929e-03  1.77515072e-05 -6.71168007e-06  2.50185599e-06  1.50936571e-04
  2.35341312e-05 -1.49621967e-05 -1.03146755e-04  2.41475311e-04  2.29687983e-01
  1.90212370e-01 -7.35762549e-05  2.26446683e-04 -3.86182498e-04  1.70627687e-03
  6.04743559e-05 -1.73357011e-04  2.87890275e-04 -4.30718896e-04 -6.08264106e-05
  9.14226030e-05 -1.43675268e-06 -7.35129184e-05 -3.34430198e-05  1.02450825e-04
  2.43458903e-05  2.22510345e-05  2.74985311e-04  3.51286955e-05  2.08636451e-04
  3.39901526e-05  7.45051518e-06  2.57219885e-05  2.75027163e-04  5.21480487e-05
  2.18747293e-04  2.58876804e-05 -7.30091786e-06 -3.34602563e-05  1.37857347e-04
  4.17291164e-05  1.35730249e-04  4.37152123e-06  5.40127302e-08 -1.88227626e-05
  1.46404464e-04 -5.82410102e-05  6.69553798e-05  5.28002488e-06  2.26646870e-05
  1.13820419e-05  2.75030312e-04  5.29756459e-05  2.18728485e-04  5.30002398e-06
 -4.22237445e-05  4.18283408e-06  1.43544376e-04 -1.28319147e-05  8.80590631e-05
 -1.23952916e-05 -1.29469869e-05 -1.26593285e-05  1.47540548e-02  2.52748134e-02
 -1.44023088e-03 -5.96500375e-03  3.58924856e-03  9.41520388e-04 -3.21783334e-02
 -5.26519671e-02 -2.31564422e-02 -1.61007250e-02  7.57150920e-03  1.30683142e-01
 -4.82788602e-02 -3.38335858e-02  1.54784496e-02  1.68225435e-02  2.51063450e-03
  1.59908305e-03 -5.17811861e-04 -7.78689972e-03 -6.30575962e-03 -4.63140023e-03
  5.15588801e-03  1.44531421e-02 -1.00324487e-01 -1.66386742e-01 -9.90958791e-05
 -3.84253626e-04 -3.42193749e-04  4.49818303e-01  4.71685409e-04  2.62120292e-03
  2.94946083e-03  3.56091575e-01  1.77199666e-03  9.03368498e-03  9.72874773e-03
 -5.96541757e-04 -3.34716134e-04 -1.72128249e-03  7.72630260e-04 -3.13119713e-04
  6.95692104e-02  6.38837682e-02 -4.85579474e-03  2.80714554e-03  1.44455185e-02
  1.55656535e-02  1.47206306e-02  2.54289181e-02 -1.16711343e-03  7.50282437e-04
 -3.78306343e-03  5.90219735e-03  1.54243693e-02  2.41839025e-02 -1.75035471e-03
 -1.29305562e-03 -4.41533324e-03 -4.86515983e-03 -3.22087033e-02 -5.27021822e-02
  2.45195670e-02 -1.58776008e-02 -1.24512132e-03  1.30819249e-01  5.10189387e-02
 -3.33498281e-02 -2.90876910e-03  1.68658628e-02 -2.43685219e-03  1.78152053e-03
  1.73195639e-04 -9.39908163e-03 -1.56754962e-03  8.54484783e-04  6.34942203e-03
 -1.50336858e-02 -3.22144844e-02 -5.27115741e-02 -4.63809740e-03  1.50196091e-02
 -2.46533021e-02  1.30845954e-01 -9.74466384e-03  3.10076808e-02 -5.16653840e-02
  1.68532482e-02  2.34181501e-04 -1.44128432e-03  2.66332896e-03  1.10784133e-02
  4.41215992e-03 -1.40125228e-02 -3.54381783e-03 -2.64125379e-03  1.54373992e-02
  2.42201982e-02 -1.78012557e-03 -6.62887710e-04 -4.69687595e-03 -4.72741343e-03
  1.47420600e-02  2.53248585e-02 -1.40622403e-03  1.65899328e-03 -3.45245698e-03
  5.89888638e-03  1.47268657e-02  2.54505333e-02 -1.15303987e-03 -5.85202114e-03
  3.95493600e-03 -8.38707657e-05  1.54410995e-02  2.42576252e-02 -1.80921272e-03
 -6.02188306e-04 -4.29082185e-03 -5.11113121e-03  1.47416170e-02  2.53719704e-02
 -1.20411950e-03  5.83654130e-03  3.59256543e-03 -1.65527598e-03  1.47622506e-02
  2.52684115e-02 -1.43680909e-03  5.14857768e-03  4.42440198e-03 -1.83301788e-03
  6.25388693e-02  8.33153574e-02 -9.79305939e-04 -1.20088392e-02  9.53250518e-03
  1.73780225e-03 -7.53928774e-02 -1.24883604e-01  8.82338616e-04 -9.04593408e-03
  1.39301591e-03  3.20009438e-01 -9.38704894e-03 -2.28386163e-02  5.60825748e-03
  1.90408924e-01 -9.73861430e-04 -2.39684443e-04  3.08719306e-03 -2.21685342e-03
 -1.47562326e-03 -1.30331461e-03 -1.02375395e-03  4.31051534e-03 -1.08631467e-05
 -1.82681412e-05  9.39839550e-02  6.38101150e-03 -2.28968275e-02  4.41630614e-05
  1.59830678e-01  1.08728936e-02 -3.89508360e-02  1.21590823e-04  9.49482753e-02
  6.38328291e-03 -2.31100365e-02 -1.78894111e-04 -2.72206859e-03 -2.18592101e-03
 -1.61854566e-04  1.50085559e-02  8.58208953e-06 -1.20198177e-05  1.55796866e-05
  4.12989256e-03  2.65470201e-04 -9.95509952e-04  5.50140082e-02  7.43990951e-02
 -3.34695238e-03  3.18343437e-03 -7.69324907e-03  1.22563770e-02  5.58752778e-02
  7.33665028e-02 -4.24113660e-03 -2.23701018e-03 -9.77548193e-03 -1.05707532e-02
  6.84560412e-02  1.13391596e-01  1.30389881e-03  1.00911785e-02 -3.39842168e-03
 -2.90564394e-01 -8.10655099e-03  2.38252402e-02 -4.88074120e-03 -1.72764802e-01
 -1.82601789e-03  3.23086959e-04 -2.69400063e-03  2.68728844e-03 -5.35419026e-04
  1.47451700e-04  1.18537714e-03  4.33123828e-03  6.89617219e-03  1.14249802e-02
  1.60289756e-02  1.26559331e-04 -2.43428158e-03 -2.92648950e-02  2.69364040e-02
 -4.73134174e-04 -3.02572546e-03 -1.76428168e-02  2.34774377e-03  2.44410717e-05
 -2.69288531e-04  1.01699058e-03 -4.46616100e-03 -2.09883164e-04 -5.32610897e-04
  1.57160058e-03 -5.04158264e-02 -6.62311619e-02  4.15376271e-03  1.82261704e-03
  9.50188645e-03  9.01598285e-03 -4.86823675e-02 -6.62404243e-02  3.36406445e-03
 -1.79274873e-03  6.44069244e-03 -1.15638405e-02  3.39762834e-03  3.11574522e-03
  3.23080379e-03  7.51806696e-04 -1.01550906e-04  5.45403638e-04 -5.62597289e-03
 -7.37283401e-03 -5.03756668e-05  1.11296975e-03  9.35156103e-04  8.48670594e-04
 -5.83316992e-02 -7.73641384e-02  1.49997433e-04 -1.05789156e-02 -8.78070940e-03
  3.30518441e-03 -1.36568206e-02 -1.67143518e-02 -2.28798857e-03 -1.55178683e-03
 -1.52762686e-03 -3.87322381e-04  2.03179481e-02  2.87296234e-02 -3.20216992e-03
 -5.53223810e-03  3.54116253e-03  1.58747340e-04 -3.55425134e-02 -5.88724161e-02
 -1.03679546e-02  7.16086695e-03 -8.05605017e-03  1.50874725e-01 -2.24164467e-02
  8.25118155e-03 -1.19736950e-02  8.95458845e-02 -2.05858533e-03  1.68336105e-03
  5.37236475e-04 -1.55561165e-03  1.11452799e-03  1.06881796e-03  4.22908780e-03
  1.44254981e-03 -2.82923520e-05 -4.74168682e-05 -2.00983761e-02  7.12785842e-02
 -6.25286226e-02  1.30912782e-04 -3.41911734e-02  1.21219335e-01 -1.06330611e-01
  1.77071102e-04 -2.02738823e-02  7.20176438e-02 -6.32233172e-02 -1.15625023e-02
 -4.68773244e-03  7.28807832e-03  5.40669272e-03  1.24473716e-04  1.09950665e-05
 -1.53422700e-06  1.45937910e-05 -8.63508308e-04  3.13191312e-03 -2.75101838e-03
  3.56705442e-02  4.65607257e-02  1.79031482e-03  1.93340616e-03 -3.39937346e-03
  6.77193358e-03  2.57531204e-02  3.38303300e-02 -2.49050603e-03 -1.72001437e-03
 -3.86104532e-03 -5.45902365e-03 -4.75131820e-02 -7.87030472e-02  6.62922577e-03
  5.70723722e-03 -1.07984953e-02  2.01683558e-01  1.82172246e-02  4.67441361e-03
 -1.85443437e-02  1.20025305e-01  2.23323748e-03  1.54779170e-03 -1.60867186e-04
 -4.96107992e-04 -2.90611840e-03  1.80540394e-03  3.29600966e-03 -1.65082097e-03
  8.30580221e-02  1.37579966e-01 -1.03008542e-04  9.57342695e-04  6.65223249e-03
 -3.52552403e-01  2.25699222e-03 -5.75899976e-03  2.40808113e-02 -2.09727280e-01