Generated by Psi4
        SP                           RHF                         MINIX
Number of atoms                            I               20
Charge                                     I                1
Multiplicity                               I                1
Number of electrons                        I               50
Number of alpha electrons                  I               25
Number of beta electrons                   I               25
Number of basis functions                  I               44
Number of independent functions            I               44
Atomic numbers                             I   N=          20
           1           6           7           1           1           1
           6           6           6           1           1           6
           1           1           1           1           1           1
           1           1
Nuclear charges                            R   N=          20
  1.00000000e+00  6.00000000e+00  7.00000000e+00  1.00000000e+00  1.00000000e+00
  1.00000000e+00  6.00000000e+00  6.00000000e+00  6.00000000e+00  1.00000000e+00
  1.00000000e+00  6.00000000e+00  1.00000000e+00  1.00000000e+00  1.00000000e+00
  1.00000000e+00  1.00000000e+00  1.00000000e+00  1.00000000e+00  1.00000000e+00
Current cartesian coordinates              R   N=          60
  4.91276434e+00  6.54271416e-01 -1.92320619e+00  3.28363145e+00  1.89582148e+00
 -1.65599892e+00  1.04166037e+00  2.82751259e-01 -1.05771163e+00  8.41538376e-01
 -9.34421338e-01 -2.56911458e+00  2.88471026e+00  2.92458838e+00 -3.40229483e+00
  3.60129441e+00  3.19878764e+00 -8.46916474e-02 -1.40988133e+00  1.81361839e+00
 -9.32233815e-01  1.41318053e+00 -1.33523225e+00  1.28139137e+00 -3.46854897e+00
  4.91565996e-01  6.74600310e-01 -9.60882402e-01  3.66573897e+00 -1.24375896e-01
 -2.02744383e+00  2.04208628e+00 -2.89414748e+00 -8.75466782e-01 -3.12461392e+00
  1.72642187e+00  3.15305137e+00 -2.42371450e+00  1.01871944e+00  1.64259328e+00
 -2.84866336e-02  2.87178488e+00 -3.31245759e+00  1.12197863e+00  2.64615158e+00
 -5.30611866e+00  1.17016665e+00  6.77109704e-03 -4.05113949e-01 -4.98750593e+00
  9.49555461e-01 -1.10204494e+00 -3.36857756e+00  3.77356218e+00 -3.26597033e+00
 -1.51513418e+00  5.29847289e-01 -2.54258317e+00 -2.36645580e+00  8.69431073e-01
Integer atomic weights                     I   N=          20
           1          12          14           1           1           1
          12          12          12           1           1          12
           1           1           1           1           1           1
           1           1
Real atomic weights                        R   N=          20
  1.00782503e+00  1.20000000e+01  1.40030740e+01  1.00782503e+00  1.00782503e+00
  1.00782503e+00  1.20000000e+01  1.20000000e+01  1.20000000e+01  1.00782503e+00
  1.00782503e+00  1.20000000e+01  1.00782503e+00  1.00782503e+00  1.00782503e+00
  1.00782503e+00  1.00782503e+00  1.00782503e+00  1.00782503e+00  1.00782503e+00
Number of primitive shells                 I               96
Number of contracted shells                I               32
Pure/Cartesian d shells                    I                0
Pure/Cartesian f shells                    I                0
Highest angular momentum                   I                1
Largest degree of contraction              I                3
Shell types                                I   N=          32
           0           0           0           1           0           0
           1           0           0           0           0           0
           1           0           0           1           0           0
           1           0           0           0           0           1
           0           0           0           0           0           0
           0           0
Number of primitives per shell             I   N=          32
           3           3           3           3           3           3
           3           3           3           3           3           3
           3           3           3           3           3           3
           3           3           3           3           3           3
           3           3           3           3           3           3
           3           3
Shell to atom map                          I   N=          32
           1           2           2           2           3           3
           3           4           5           6           7           7
           7           8           8           8           9           9
           9          10          11          12          12          12
          13          14          15          16          17          18
          19          20
Primitive exponents                        R   N=          96
  7.03406300e+00  1.06475600e+00  2.36559000e-01  1.53172260e+02  2.30730300e+01
  4.92329000e+00  6.61661200e+00  5.25856000e-01  1.69958000e-01  4.91292000e+00
  9.97616000e-01  2.32685000e-01  2.18364490e+02  3.25988900e+01  6.91739000e+00
  8.91942600e+00  7.06141000e-01  2.25054000e-01  6.55627200e+00  1.34907900e+00
  3.12209000e-01  7.03406300e+00  1.06475600e+00  2.36559000e-01  7.03406300e+00
  1.06475600e+00  2.36559000e-01  7.03406300e+00  1.06475600e+00  2.36559000e-01
  1.53172260e+02  2.30730300e+01  4.92329000e+00  6.61661200e+00  5.25856000e-01
  1.69958000e-01  4.91292000e+00  9.97616000e-01  2.32685000e-01  1.53172260e+02
  2.30730300e+01  4.92329000e+00  6.61661200e+00  5.25856000e-01  1.69958000e-01
  4.91292000e+00  9.97616000e-01  2.32685000e-01  1.53172260e+02  2.30730300e+01
  4.92329000e+00  6.61661200e+00  5.25856000e-01  1.69958000e-01  4.91292000e+00
  9.97616000e-01  2.32685000e-01  7.03406300e+00  1.06475600e+00  2.36559000e-01
  7.03406300e+00  1.06475600e+00  2.36559000e-01  1.53172260e+02  2.30730300e+01
  4.92329000e+00  6.61661200e+00  5.25856000e-01  1.69958000e-01  4.91292000e+00
  9.97616000e-01  2.32685000e-01  7.03406300e+00  1.06475600e+00  2.36559000e-01
  7.03406300e+00  1.06475600e+00  2.36559000e-01  7.03406300e+00  1.06475600e+00
  2.36559000e-01  7.03406300e+00  1.06475600e+00  2.36559000e-01  7.03406300e+00
  1.06475600e+00  2.36559000e-01  7.03406300e+00  1.06475600e+00  2.36559000e-01
  7.03406300e+00  1.06475600e+00  2.36559000e-01  7.03406300e+00  1.06475600e+00
  2.36559000e-01
Contraction coefficients                   R   N=          96
  7.04520124e-02  4.07826072e-01  6.47752114e-01  7.07400095e-02  3.95380053e-01
  6.63311089e-01 -8.13799884e-02  5.74852918e-01  5.02412928e-01  1.09930928e-01
  4.62712695e-01  6.27513586e-01  6.78700100e-02  3.90202057e-01  6.70083099e-01
 -8.08899713e-02  5.67201799e-01  5.11091818e-01  1.15918975e-01  4.69957900e-01
  6.18447868e-01  7.04520124e-02  4.07826072e-01  6.47752114e-01  7.04520124e-02
  4.07826072e-01  6.47752114e-01  7.04520124e-02  4.07826072e-01  6.47752114e-01
  7.07400095e-02  3.95380053e-01  6.63311089e-01 -8.13799884e-02  5.74852918e-01
  5.02412928e-01  1.09930928e-01  4.62712695e-01  6.27513586e-01  7.07400095e-02
  3.95380053e-01  6.63311089e-01 -8.13799884e-02  5.74852918e-01  5.02412928e-01
  1.09930928e-01  4.62712695e-01  6.27513586e-01  7.07400095e-02  3.95380053e-01
  6.63311089e-01 -8.13799884e-02  5.74852918e-01  5.02412928e-01  1.09930928e-01
  4.62712695e-01  6.27513586e-01  7.04520124e-02  4.07826072e-01  6.47752114e-01
  7.04520124e-02  4.07826072e-01  6.47752114e-01  7.07400095e-02  3.95380053e-01
  6.63311089e-01 -8.13799884e-02  5.74852918e-01  5.02412928e-01  1.09930928e-01
  4.62712695e-01  6.27513586e-01  7.04520124e-02  4.07826072e-01  6.47752114e-01
  7.04520124e-02  4.07826072e-01  6.47752114e-01  7.04520124e-02  4.07826072e-01
  6.47752114e-01  7.04520124e-02  4.07826072e-01  6.47752114e-01  7.04520124e-02
  4.07826072e-01  6.47752114e-01  7.04520124e-02  4.07826072e-01  6.47752114e-01
  7.04520124e-02  4.07826072e-01  6.47752114e-01  7.04520124e-02  4.07826072e-01
  6.47752114e-01
Coordinates of each shell                  R   N=          96
  4.91276434e+00  6.54271416e-01 -1.92320619e+00  3.28363145e+00  1.89582148e+00
 -1.65599892e+00  3.28363145e+00  1.89582148e+00 -1.65599892e+00  3.28363145e+00
  1.89582148e+00 -1.65599892e+00  1.04166037e+00  2.82751259e-01 -1.05771163e+00
  1.04166037e+00  2.82751259e-01 -1.05771163e+00  1.04166037e+00  2.82751259e-01
 -1.05771163e+00  8.41538376e-01 -9.34421338e-01 -2.56911458e+00  2.88471026e+00
  2.92458838e+00 -3.40229483e+00  3.60129441e+00  3.19878764e+00 -8.46916474e-02
 -1.40988133e+00  1.81361839e+00 -9.32233815e-01 -1.40988133e+00  1.81361839e+00
 -9.32233815e-01 -1.40988133e+00  1.81361839e+00 -9.32233815e-01  1.41318053e+00
 -1.33523225e+00  1.28139137e+00  1.41318053e+00 -1.33523225e+00  1.28139137e+00
  1.41318053e+00 -1.33523225e+00  1.28139137e+00 -3.46854897e+00  4.91565996e-01
  6.74600310e-01 -3.46854897e+00  4.91565996e-01  6.74600310e-01 -3.46854897e+00
  4.91565996e-01  6.74600310e-01 -9.60882402e-01  3.66573897e+00 -1.24375896e-01
 -2.02744383e+00  2.04208628e+00 -2.89414748e+00 -8.75466782e-01 -3.12461392e+00
  1.72642187e+00 -8.75466782e-01 -3.12461392e+00  1.72642187e+00 -8.75466782e-01
 -3.12461392e+00  1.72642187e+00  3.15305137e+00 -2.42371450e+00  1.01871944e+00
  1.64259328e+00 -2.84866336e-02  2.87178488e+00 -3.31245759e+00  1.12197863e+00
  2.64615158e+00 -5.30611866e+00  1.17016665e+00  6.77109704e-03 -4.05113949e-01
 -4.98750593e+00  9.49555461e-01 -1.10204494e+00 -3.36857756e+00  3.77356218e+00
 -3.26597033e+00 -1.51513418e+00  5.29847289e-01 -2.54258317e+00 -2.36645580e+00
  8.69431073e-01
Total Energy                               R     -2.498043668793022e+02
Alpha Orbital Energies                     R   N=          44
 -1.57866968e+01 -1.14258569e+01 -1.14242897e+01 -1.14209887e+01 -1.13163802e+01
 -1.13021890e+01 -1.53190449e+00 -1.28306407e+00 -1.22854067e+00 -1.16377748e+00
 -1.08322200e+00 -1.04887703e+00 -9.56662741e-01 -8.83475156e-01 -8.61516091e-01
 -8.50968439e-01 -8.00111270e-01 -7.95219036e-01 -7.59768935e-01 -7.52074549e-01
 -7.09562309e-01 -7.01221775e-01 -6.89210194e-01 -6.76210814e-01 -5.65216924e-01
  1.80431923e-01  2.54245339e-01  2.75763137e-01  3.19968076e-01  3.49605936e-01
  3.93770150e-01  4.06694110e-01  4.26137282e-01  4.56136165e-01  4.81162883e-01
  4.89684096e-01  5.08608470e-01  5.17861597e-01  5.27026826e-01  5.81392928e-01
  5.91167728e-01  6.04616490e-01  6.16974073e-01  1.53455663e+00
Alpha MO coefficients                      R   N=        1936
 -1.86346027e-04 -5.31601128e-04  8.73888054e-03 -6.19738189e-03 -4.48061974e-03
  1.64295225e-03 -9.88893466e-01 -5.91478887e-02 -2.07212133e-04  8.57043240e-04
  1.40291903e-03  1.18007487e-02 -1.93668545e-04 -1.54171526e-04 -5.15372919e-04
  8.00477433e-03  6.39469063e-03 -3.89998433e-03 -4.24123374e-04 -5.18170305e-04
  8.15687093e-03 -9.04787588e-04  4.35030342e-03 -6.25164116e-03  1.81041246e-06
 -1.53324155e-05 -2.30280103e-04  4.24251218e-04 -1.22975674e-04 -2.08275582e-04
 -2.66952081e-04 -2.88246725e-06 -2.25056357e-05  3.19231147e-04 -1.13009067e-04
  2.80773910e-04 -1.66499597e-04 -1.60618769e-04 -1.11118375e-04  5.57989159e-05
 -1.15004686e-04  8.08441595e-05  4.19875564e-05  2.11084907e-04  1.26107298e-03
 -1.25945703e-01 -8.53818910e-03  1.19890253e-03 -6.34464234e-05 -2.13678459e-04
  8.15648487e-04 -6.10928914e-03  6.48366457e-03 -3.18978258e-03 -3.51697138e-04
 -9.25887074e-04  1.35681347e-03  1.65636996e-03  9.79750949e-01  6.04223617e-02
  2.44275953e-04  3.59101366e-04 -3.54963411e-04 -3.22695272e-02 -2.49911999e-03
  6.79780063e-04 -6.65714202e-04  3.55686517e-04 -9.31811032e-03 -9.96508706e-03
 -5.56285453e-03 -3.51731484e-03  4.36745527e-03 -1.22163912e-02 -1.23254362e-02
  1.47275635e-04  4.17474255e-04  1.64009414e-04  1.40713810e-04  1.02411093e-05
  1.12244592e-04  2.57172374e-04 -3.18825996e-04 -3.53270460e-04  1.14319917e-05
 -4.47594125e-06 -2.78206082e-04 -7.93772668e-05  1.24862947e-02 -9.77938256e-01
 -6.09960264e-02  2.39322214e-04  3.92077457e-04 -3.49368361e-05 -1.03029483e-03
  8.33066637e-03  4.83495366e-03  4.82300389e-03 -1.81082867e-03  1.40490359e-03
  1.24518079e-02  1.23918687e-02 -1.23525981e-01 -6.96785247e-03  1.13335130e-03
  2.72301587e-05 -3.35872307e-04  7.28264722e-02  5.34053126e-03  5.80020864e-04
  1.04461142e-03 -7.12794233e-04  1.41516125e-03  1.50969772e-03  7.63029702e-04
  5.28560948e-04 -7.36264349e-04  1.99742731e-03  1.46462418e-03 -3.08426062e-04
 -4.44354634e-04 -2.59557973e-04 -2.00195352e-04  5.14128195e-05 -7.66244653e-04
 -8.54210117e-04  3.48210680e-05  3.49029492e-05 -3.60214863e-05 -5.97353275e-06
  2.34639008e-05  1.66745465e-05 -9.29885281e-04  6.84281404e-02  3.46149597e-03
  3.72645197e-04  7.89025205e-04 -9.11246592e-04  1.08486967e-03 -8.50506350e-03
 -1.05523382e-03  3.42899810e-03 -5.57287319e-03 -1.34663892e-03 -1.26476738e-03
 -9.04487145e-04  4.14366560e-02  1.87690979e-03 -7.91730658e-04  4.85807262e-04
 -5.10343951e-04  9.85151433e-01  6.06641252e-02  3.37213420e-04  3.02301822e-04
  9.26707825e-05 -1.41657946e-03 -7.44554579e-04 -1.00545343e-03  3.63305835e-05
 -1.25063140e-05 -4.67090685e-04 -7.56512538e-04 -8.72522232e-03 -9.97035764e-03
 -6.15984448e-03 -4.77595696e-03  1.29452626e-03 -1.23547907e-02 -1.23944907e-02
  4.89935999e-06 -3.26642775e-04 -2.73292113e-04 -3.57343322e-04  1.36862969e-04
 -2.28908487e-04 -9.87579704e-05  3.46784898e-04 -6.33515697e-05  2.50578702e-04
 -1.07077908e-04 -4.31174001e-06  3.46129212e-05 -1.03226570e-04  1.35610955e-04
 -2.21371413e-04  1.85199915e-04  1.06307584e-05 -4.13178413e-05  3.44974221e-05
  1.11098569e-02 -9.50571610e-03  5.94489235e-03  3.88774081e-03 -4.67586421e-03
  9.65909426e-04  2.56905104e-05  5.92529519e-04 -5.57743394e-04  9.79643606e-05
  9.87901599e-01  6.43508911e-02  4.71806472e-04  5.58226514e-05 -2.26302691e-04
 -5.89217832e-04 -6.01995730e-04 -1.70874648e-02 -2.18560100e-03  6.85825779e-04
 -1.55757368e-03 -5.73696074e-05 -3.45296346e-04  2.64651402e-05 -1.25982971e-02
 -1.25505269e-02 -2.62200015e-04  2.81111436e-04 -1.53633652e-02  3.56159408e-03
  5.04612892e-06  3.73809334e-04 -1.14615486e-04  1.77820531e-05  1.75024364e-04
 -2.90441204e-04  4.31003932e-05 -1.20161111e-04 -3.84612119e-05  1.08139962e-04
 -2.52552473e-04 -3.68860757e-04 -1.18718862e-04  1.86164623e-05  4.04574883e-04
 -1.40689815e-04  1.41932398e-04  1.56517793e-04 -2.10998933e-05  1.03909228e-02
 -9.45125074e-03  6.57685462e-03  5.14891507e-03 -1.22169990e-03  1.73877679e-02
  1.71550395e-06 -1.01251883e-03  1.15868698e-03 -4.59411511e-04 -3.83844890e-05
  1.13414801e-05  9.87899645e-01  6.45611531e-02  6.40319284e-05  3.29503252e-04
 -1.94620128e-04 -5.22591431e-04 -5.60155062e-04 -4.48840214e-04 -6.60309640e-04
 -1.26304720e-02 -1.26368274e-02  4.11501176e-03 -1.61946173e-02  2.24232639e-02
 -6.49570674e-02  1.61367905e-01 -6.04830749e-02 -4.34934933e-02  1.55559661e-02
 -1.97353332e-01  6.76809405e-01  1.35488174e-03 -3.34094303e-03 -5.96371049e-03
  1.02295137e-01  2.24198140e-02  2.22777332e-02 -6.32370719e-02  1.57912661e-01
  5.72743362e-02 -4.03188760e-02 -9.89490948e-04 -6.42358579e-02  1.59798259e-01
 -1.38828654e-02  3.96610138e-02 -5.85484650e-02 -1.73948703e-02  4.17953603e-02
  1.50422322e-02  5.04442450e-03 -9.63304625e-03  2.17695542e-02  2.21410276e-02
 -1.69706267e-02  4.03134861e-02  1.18049831e-02  1.36597683e-02 -3.90370621e-03
  2.21182667e-02  2.20299721e-02  5.33692511e-03  4.48093404e-03  4.97863274e-03
  4.39635256e-03  1.67481380e-02  1.79352681e-02  4.54309638e-02 -7.05917112e-02
  1.97644270e-01 -3.19048084e-02 -2.68760829e-02  3.23122707e-03 -4.20988018e-02
  1.54788919e-01  1.14598483e-01  4.26558409e-02 -8.14857091e-02  4.04823023e-02
  4.50019577e-02  4.20878378e-02  6.14770479e-02 -1.76063147e-01  5.98838439e-02
  3.04606697e-02 -4.08934269e-02  5.52255818e-02 -1.57696147e-01  5.68453640e-02
  3.83459021e-02 -2.29082345e-02  1.14880858e-01 -2.95046345e-01 -5.15338297e-02
  3.92414611e-02  1.26995914e-02 -3.40538277e-02 -3.48999851e-02  1.02904057e-01
 -2.59447421e-01  1.55295145e-02 -5.32949505e-02  2.80890866e-02 -2.72752895e-02
 -3.55726521e-02 -6.73886235e-02 -5.80716093e-02 -5.24580664e-02 -5.58531622e-02
 -1.98908373e-01 -1.99886242e-01  5.99268761e-03  5.32926563e-03 -1.52177921e-02
  1.71964019e-02 -1.70907172e-02  1.19925860e-02 -4.44150326e-04  1.33002949e-03
  1.32938457e-01 -1.63869325e-01  1.12297424e-01  1.18705020e-03 -1.42487965e-02
 -3.66561862e-03  1.33112597e-01 -3.89303693e-01  1.10035835e-02  1.63379473e-02
 -4.47768787e-03 -1.33878829e-01  3.90347779e-01 -2.02045582e-02 -1.98664176e-02
 -1.32877901e-02  8.05345991e-02 -2.32486740e-01 -4.55490598e-02 -3.32671789e-02
  3.78143125e-02 -9.66997006e-02 -1.01757789e-01 -8.72626703e-02  2.48586509e-01
  5.18601602e-02  4.03148674e-02 -1.34965987e-02  1.01667754e-01  9.14081238e-02
 -4.77554721e-02 -5.17507671e-02  5.50261033e-02  5.35192163e-02 -4.75197788e-02
  5.87191772e-02  1.48711518e-01 -1.72070869e-01  5.17437786e-01  9.42534062e-03
  2.24032547e-03 -7.62185570e-03  4.03782829e-02 -1.56595118e-01  2.28593023e-01
  1.46854617e-01 -7.24901727e-02 -6.22033014e-02  1.47922463e-01  1.45346895e-01
  4.83125470e-02 -1.42358948e-01 -5.12679469e-02  2.21531501e-02  2.16103845e-02
  4.35986256e-02 -1.27343149e-01 -4.43882601e-03 -3.81929465e-02  4.23315117e-02
 -4.91549015e-02  1.26708522e-01 -1.35356279e-02 -6.09290676e-02  2.25363095e-02
 -2.96714280e-02 -3.96560592e-02 -4.63468253e-02  1.17484122e-01 -6.02461953e-02
  4.33132332e-03 -8.20536970e-03 -2.90199165e-02 -2.99299495e-02  3.88565393e-02
  3.36433518e-02  3.02459148e-02  3.59271575e-02  1.45293342e-01  1.47379100e-01
  5.26145524e-02 -5.37621425e-02  1.70195720e-01  4.52597506e-02  5.85247914e-02
  4.20084154e-02  6.20226295e-02 -2.43878515e-01  3.03455181e-02  1.55988302e-01
  2.76968012e-01 -2.14136282e-01  4.72695265e-02  9.21608688e-02 -8.51928073e-02
  2.68242706e-01 -3.20062213e-02  8.12709145e-02  4.26228777e-02 -1.05464745e-01
  3.28731493e-01  5.79909792e-02  3.52618615e-02  7.56154536e-02 -6.56302791e-03
  3.58686275e-02  3.01594407e-02  1.08667099e-01 -2.55913431e-02  1.24147232e-01
  7.15256162e-02  2.47260867e-02 -5.61407264e-02  1.06693663e-01  1.31955137e-02
  3.13975584e-02  1.11915521e-01  1.44953293e-01  1.36127060e-02  1.46521468e-02
 -2.09780976e-02 -1.40838363e-02 -1.35146123e-01 -1.64123806e-01  1.53712994e-02
  1.14041926e-02 -3.70167260e-02  2.70087377e-02 -5.84625745e-02  3.20565608e-02
 -1.46741383e-02  5.81219271e-02  1.68432160e-01 -1.96378544e-01  1.16755248e-01
  2.12044404e-02 -4.53727472e-02 -1.60917280e-02  6.96027197e-02 -2.13073792e-01
 -1.21857173e-01 -7.24419465e-02  1.10784584e-01 -3.33727730e-02  9.52909880e-02
  1.16206075e-01  1.13751289e-01 -7.57768984e-02 -1.21207945e-01  3.66603112e-01
 -3.91490297e-02 -1.45855709e-02  3.38499683e-02 -9.19151620e-02 -1.05374101e-01
  1.26889719e-01 -3.85897311e-01 -2.65872479e-03  3.72208691e-02 -1.69647429e-02
  5.42329743e-02  4.31605961e-02  1.25388998e-01  1.22789991e-01 -1.31422743e-01
 -1.29493152e-01  1.26521604e-01 -8.99662317e-02  9.10375942e-02 -1.85753049e-02
  6.25220332e-02  9.21993014e-02 -4.59049949e-02 -1.39772875e-01  3.51752743e-02
 -1.42022818e-01  5.31113811e-02 -2.74410601e-01 -3.52037901e-01  2.09226156e-01
  6.80143251e-02 -4.23956665e-02 -2.59870574e-02  9.28211177e-02 -1.96143575e-01
  2.67957382e-02 -8.46747893e-02 -2.76583348e-02  9.52551963e-02  5.85617822e-02
 -2.03815404e-01  1.48965386e-02 -4.21959095e-02  1.44558501e-01 -4.67014146e-02
  1.39493945e-01 -3.86436439e-02  3.93730765e-03  1.15903283e-01 -2.56543873e-02
  9.07527820e-02  1.32782505e-01 -5.80227416e-02  3.15706386e-02  1.22078333e-01
 -2.64581726e-02  4.62672211e-02  9.81852254e-02  6.85424045e-02  4.11129139e-02
 -1.21171029e-01 -1.44938245e-01  1.25677938e-01 -3.39502371e-02  1.34411360e-01
  2.31588009e-01  1.26357088e-01 -9.04661638e-02  3.87993023e-02 -1.62167133e-01
 -2.69580986e-01 -2.28760539e-01  3.06534421e-02  4.71742923e-02  1.12974295e-01
  8.01821055e-02 -2.86535597e-02  9.27316040e-02 -3.44280423e-02 -9.51213562e-02
 -1.61689725e-01 -3.65534332e-02  1.19344547e-01  2.57840726e-02  1.70606605e-02
 -2.19806383e-02  5.22981067e-02 -1.84702402e-01  1.03070184e-01 -1.68629767e-01
 -1.24055319e-01 -5.29633439e-02  1.28854363e-01  6.12501956e-02 -2.13234416e-01
 -4.99456344e-02  1.42250014e-01 -1.29682009e-01  5.70891952e-02  4.06180820e-02
 -1.62971113e-01 -1.23472028e-01 -1.30611058e-01 -1.54464081e-01  1.35542813e-01
  1.08302793e-01  6.86336863e-02 -3.26855651e-02  1.35045116e-01  1.73440593e-01
  1.73117253e-01 -3.13112104e-02 -7.77206804e-03  3.69561379e-02 -3.26900022e-01
 -1.68429895e-01  1.46484844e-01  2.59851246e-02  9.41982401e-02  1.17027539e-01
  2.22728667e-02 -8.91185821e-02  2.93874726e-02 -1.93611502e-01  2.13335011e-01
  2.42550454e-02 -9.53414354e-02 -2.84708103e-01  1.83899246e-02 -7.85900312e-02
 -2.75416017e-02  9.99136541e-02  5.37109227e-02  1.50111211e-01  6.45841212e-02
 -8.00513089e-02 -1.76974840e-01 -3.00756179e-02  1.07316061e-01  1.12535574e-01
 -1.36226049e-02  3.01142246e-02 -1.79333257e-01 -8.05538032e-02  1.04623532e-01
  2.32033101e-02  5.40540116e-02  5.00951941e-02 -1.71228906e-01 -1.48251444e-01
  1.29861914e-01 -1.25174097e-03  6.31294865e-03  1.73828276e-01 -1.47395769e-01
  1.93497617e-01 -2.68056977e-03  1.12481433e-02  1.99134950e-01 -2.27736161e-01
  2.65130142e-01 -4.89509633e-02 -1.66588562e-01  4.96101372e-02 -4.07224681e-02
  1.52507089e-01 -1.12467667e-01  1.55381039e-01  6.10344669e-02  4.17712182e-02
 -1.60699259e-01 -1.93243200e-03 -3.22683810e-02 -3.27213660e-01  2.86465919e-02
 -1.06093952e-01  5.24898147e-02  4.75761087e-02 -8.63577115e-02  1.43031492e-01
  4.99680059e-02 -2.73190008e-02  9.47472691e-02 -6.45273941e-02 -1.09043694e-01
 -1.08278398e-01 -2.36574422e-02 -2.31007928e-01 -8.28666644e-02 -3.92386373e-02
  1.09311676e-01 -2.00892883e-02 -3.67491816e-02  7.47585481e-02  1.58056774e-01
  3.94006471e-03 -1.59657998e-02  1.00902980e-01 -2.20079823e-01 -2.61186043e-01
  1.36110392e-02 -5.97600859e-02  8.20454740e-02 -1.33411896e-01 -9.54121521e-02
  8.21659158e-02  5.47499859e-02 -2.09204969e-01 -2.05833772e-02  7.78604738e-02
  4.59247004e-02  2.51697626e-01  2.39364370e-01 -2.19380167e-03  6.44245578e-03
 -8.98306723e-02  1.16374546e-01  1.04043520e-01  2.80776015e-02 -9.98784359e-02
  1.80457698e-01  1.44553396e-02  1.62603357e-01  2.45162686e-01 -1.05256094e-01
  7.70945459e-03 -2.81644291e-02 -8.37844523e-02  1.53979265e-01  5.61403786e-02
 -8.98249101e-02  1.01462216e-01  8.33405384e-02 -1.70623926e-01 -1.26243583e-01
  2.19790151e-02 -1.42056906e-02  7.16601101e-02  1.76564191e-01 -2.24123121e-03
  6.35731250e-03  1.70347743e-01 -2.57245890e-01  1.36583068e-01 -7.45825677e-03
  3.28091488e-02  6.10052288e-02  7.62999784e-03  1.76231869e-02 -7.18869000e-03
 -1.85048458e-01 -2.06056911e-02 -6.23458450e-03  2.23551390e-02 -1.50791710e-01
 -1.72622238e-01 -1.88190519e-01  1.88064272e-02 -6.76977211e-02 -1.35729889e-01
  2.69469332e-01  1.95629044e-01  9.55638074e-04 -3.93922005e-03 -2.07539878e-02
  3.55301504e-02 -1.22174338e-01 -1.71550465e-01  1.47598912e-01 -2.14015588e-02
  8.14834397e-02 -5.17116981e-02  1.88017770e-02  2.19340524e-01 -2.11249809e-01
  1.73006368e-01 -6.62953106e-02  4.56336738e-02 -4.42631483e-02  1.75826747e-01
 -5.47888009e-02 -4.07513360e-02  1.18468453e-01 -3.37902394e-03  1.12029311e-02
 -5.09118397e-02 -2.52502465e-01 -4.17517664e-01 -1.11625656e-02  4.80226118e-02
  2.10615818e-02  2.39254765e-01  2.51049420e-01 -2.44556544e-01  1.67377330e-01
 -3.53454659e-01 -6.63456562e-03  2.01688344e-02 -2.52995420e-02 -2.19044382e-01
  1.04147059e-02 -2.91910323e-03  1.02869778e-02 -1.10007677e-02 -3.35644801e-02
 -1.10137953e-01 -9.63187931e-03  2.99997969e-02  1.72979878e-02  3.43708835e-03
 -1.55048928e-01 -1.51110691e-01 -1.27209407e-02 -5.65281979e-03  2.02349315e-02
  6.76426124e-02 -9.50957697e-02 -9.80267879e-02  2.25749816e-02 -9.17838830e-02
 -9.61052751e-02  3.71027798e-02  1.01469924e-01 -6.01963323e-02 -7.88407753e-03
 -4.04681815e-02  2.18654230e-01  9.90882936e-04 -3.10967992e-03  2.29689573e-01
 -2.19536291e-01  1.80265869e-01  2.20662174e-03 -9.68286693e-03 -2.48990010e-01
  2.43895403e-01 -1.72719042e-01  1.91756700e-04 -2.27476306e-01  2.20858140e-02
 -1.25713047e-02  3.62286846e-02  1.64322160e-01 -2.06016812e-01  1.38145253e-01
  1.14300703e-02 -3.08431756e-02  2.72327863e-01 -1.99556160e-01  8.55167792e-02
 -1.03529771e-02  3.70582160e-02  1.76372824e-01 -6.31127913e-02  1.02607348e-01
 -5.96041180e-02 -1.39875060e-01  1.31526667e-02 -4.55712369e-02  2.54922689e-02
 -1.12465034e-01  2.42726744e-02  2.35554912e-01 -2.64292569e-02  7.64976774e-02
 -1.33175279e-01  5.38640853e-02  5.51054932e-03  4.34686830e-02 -3.64628714e-02
  1.87256325e-01  4.49566743e-03 -1.11806094e-02  2.02954808e-01 -1.37876576e-01
 -1.55740993e-02 -6.37441031e-03  2.74349630e-02 -1.95199292e-01  7.57957137e-02
  1.03040246e-01 -7.24919130e-02 -6.96653017e-02 -5.94710535e-02  2.38330247e-02
 -7.95018500e-02  3.07044234e-01  2.09484741e-01 -3.15055833e-01 -1.52411423e-02
  5.42506325e-02 -1.48234903e-01 -5.53610805e-02 -5.02894089e-02  1.94513422e-03
  2.07289925e-02 -3.86013804e-01 -3.29654568e-02  2.77256254e-01  4.65723905e-02
  1.30727002e-01 -9.99301717e-05 -7.63459405e-03  6.84050577e-02  8.99132788e-02
 -1.15379911e-01 -3.66994637e-02 -4.79127736e-02  1.73904900e-01  1.80658856e-01
 -1.78596302e-02 -9.91479424e-02  4.37722493e-03  7.38510917e-03  2.53419321e-02
  1.28850986e-02 -3.72169923e-02  1.28899786e-01  1.42558274e-01 -1.80235087e-01
 -1.01468079e-02  4.70714888e-02 -2.18736009e-01 -1.92907962e-01  1.58654741e-01
  3.84276206e-02  1.48304265e-01 -2.73672485e-02  2.30930979e-03 -5.38105565e-03
  1.30099811e-01  7.25644696e-02 -1.14451220e-02  2.26082885e-02 -7.85421403e-02
  3.86381985e-01  2.82119711e-01 -6.01602307e-02  3.45651929e-03 -1.07127623e-02
 -1.56244616e-01 -2.12100547e-02  2.86165358e-02  6.41561248e-02 -2.03721507e-02
  3.03376295e-03  1.22845434e-02 -2.65197121e-01 -3.31314853e-01  2.11722003e-01
  9.40128371e-02  9.06789463e-02  2.31158070e-03  8.14547102e-02  1.19714673e-01
  2.10355200e-01  3.03504656e-02  4.20227940e-02  6.03848593e-02  2.69708232e-03
 -1.02677061e-02  7.56271154e-02 -4.80374330e-02  4.35481178e-02  3.75657025e-03
 -1.49215700e-02 -9.53855475e-02  2.19939768e-02 -1.92503137e-01  1.24542627e-01
 -7.11952403e-02  2.37518600e-02  5.97975484e-03 -2.82909701e-02  8.85021231e-02
  1.01543649e-01  2.57764558e-01 -2.73557998e-03  1.38032003e-02 -6.16602737e-02
  1.14141861e-01  2.41109935e-01  1.21994071e-04 -9.46708197e-03 -2.13534945e-01
  7.66747678e-03 -3.13233156e-01  1.58202830e-01 -2.24030062e-01 -6.59797502e-04
 -3.54165650e-03  5.88839419e-02 -1.27912900e-01 -2.82089157e-01 -1.02966234e-01
  2.13626248e-01 -2.49874086e-01  2.14383876e-01  1.73712105e-01 -2.03866297e-01
  4.17085863e-02  3.64333343e-02  4.12640089e-02  4.00209840e-04  1.22455077e-03
  3.75127174e-02 -1.94773111e-02 -2.95033970e-03 -9.27030687e-03  4.83174210e-02
 -7.93657143e-02  3.64462443e-02  3.01992250e-02 -2.87822536e-02 -1.70849681e-02
 -1.13753208e-02 -2.45394178e-04 -7.20412944e-05  1.15824699e-01  6.40700483e-02
  1.63729638e-01 -4.28330409e-03  1.10981003e-02 -1.97257043e-02 -2.45069605e-01
 -1.15756022e-01 -7.90876240e-04  2.51675551e-03 -1.94867404e-01 -8.29826153e-02
 -2.79647053e-01  1.12954928e-01 -1.60214074e-01  2.55786464e-03 -2.12653643e-02
  2.25439756e-02  2.64367626e-01  3.55689995e-01  1.10488307e-01 -2.01858731e-01
 -2.40928430e-01  1.81263159e-01 -2.96030292e-01  2.33987006e-01  7.90529426e-02
 -3.98766000e-02  8.14177040e-03 -1.14956591e-03  4.58364909e-03 -4.17557775e-03
 -5.40506635e-03  9.24908552e-03 -2.05846078e-04  2.02777550e-03 -9.53524204e-02
  1.22082221e-01 -6.25426492e-02 -1.90029697e-02 -1.19887759e-02  3.61215012e-05
 -5.28789054e-03  9.67334334e-03 -5.29894525e-02 -1.36584648e-01  4.69382098e-02
  2.07466057e-03  2.87493288e-03  1.44406983e-01 -2.27233115e-02 -6.86061265e-03
  4.22508606e-02 -1.90448731e-01 -9.73230596e-02  5.46606077e-01 -1.49597915e-02
 -1.13728258e-01 -3.64931727e-02 -4.27211628e-02  1.90043922e-01 -4.59873932e-01
  2.80458973e-01 -1.99953715e-01  1.36236707e-01 -1.04965776e-02  3.57059845e-02
  1.57446856e-01 -1.69519002e-01 -6.47589432e-02 -3.69305305e-01  3.71647233e-01
  2.26980358e-02  2.88373050e-02 -1.57527040e-01  3.21912692e-01  2.56437701e-01
 -5.43033023e-02 -1.40745510e-01  1.00550950e+00 -1.23328701e-01  1.73947562e-01
  3.02242523e-01 -3.37367887e-02  1.07399177e-02 -9.35238223e-02  4.70683290e-02
 -2.76897896e-01 -5.20248185e-01  3.65555860e-01  3.44842408e-02  3.71100304e-02
 -2.17391915e-01  8.43111680e-02 -2.86914769e-01  4.81936246e-01  2.23355097e-02
 -1.75606238e-01 -5.32551158e-02  2.80160863e-01  1.81336789e-02 -1.08904538e-01
  2.78083269e-02  1.98285395e-02 -1.54811026e-01  2.21823754e-01 -1.06403549e-01
  1.22892889e-01 -3.11828770e-02 -9.05391652e-02  1.67319201e-02 -1.59168732e-01
 -3.79022716e-02 -1.12675957e-01  3.01404774e-01  2.89435347e-01  2.25416537e-01
 -5.27046886e-03  3.40649556e-02 -1.66573280e-01  8.70287718e-02 -7.07393783e-02
  1.68025046e-03 -1.64946039e-02 -5.48421007e-01  5.05526464e-01 -4.02578308e-01
 -5.99841241e-02 -2.28287594e-01  1.18238710e-02  7.76997046e-02 -4.94592591e-01
 -4.75146822e-01  4.64652482e-01 -1.68101247e-01 -7.03910261e-02  4.47770810e-01
 -2.47438356e-01  3.37639758e-01 -5.38675917e-01 -3.87653165e-02  2.36007615e-01
  1.26353486e-01  2.16455026e-02 -1.50328210e-01  1.25225654e-02 -1.45518373e-01
  2.67287192e-02 -1.51182277e-01 -1.19943717e-01 -8.17377512e-02 -6.70344419e-03
  1.30218283e-01  2.69885985e-03  1.57490465e-02 -1.68956599e-01  4.44281071e-02
  1.53804267e-01  5.54015408e-02 -1.38614071e-01  1.86673943e-02 -8.35879673e-02
  5.30360707e-01 -7.28257474e-01 -5.21954246e-01  1.94909391e-01  3.49365529e-02
 -2.57023267e-01 -6.49868906e-01 -4.53454660e-01  2.69199242e-01 -9.42127486e-02