
    -----------------------------------------------------------------------
          Psi4: An Open-Source Ab Initio Electronic Structure Package
                               Psi4 1.5 release

                         Git: Rev {HEAD} e9f4d6d 


    D. G. A. Smith, L. A. Burns, A. C. Simmonett, R. M. Parrish,
    M. C. Schieber, R. Galvelis, P. Kraus, H. Kruse, R. Di Remigio,
    A. Alenaizan, A. M. James, S. Lehtola, J. P. Misiewicz, M. Scheurer,
    R. A. Shaw, J. B. Schriber, Y. Xie, Z. L. Glick, D. A. Sirianni,
    J. S. O'Brien, J. M. Waldrop, A. Kumar, E. G. Hohenstein,
    B. P. Pritchard, B. R. Brooks, H. F. Schaefer III, A. Yu. Sokolov,
    K. Patkowski, A. E. DePrince III, U. Bozkaya, R. A. King,
    F. A. Evangelista, J. M. Turney, T. D. Crawford, C. D. Sherrill,
    J. Chem. Phys. 152(18) 184108 (2020). https://doi.org/10.1063/5.0006002

                            Additional Code Authors
    E. T. Seidl, C. L. Janssen, E. F. Valeev, M. L. Leininger,
    J. F. Gonthier, R. M. Richard, H. R. McAlexander, M. Saitow, X. Wang,
    P. Verma, M. H. Lechner, and A. Jiang

             Previous Authors, Complete List of Code Contributors,
                       and Citations for Specific Modules
    https://github.com/psi4/psi4/blob/master/codemeta.json
    https://github.com/psi4/psi4/graphs/contributors
    http://psicode.org/psi4manual/master/introduction.html#citing-psifour

    -----------------------------------------------------------------------


    Psi4 started on: Wednesday, 08 June 2022 11:11AM

    Process ID: 1091850
    Host:       node74.bme.utexas.edu
    PSIDATADIR: /home/bdw2292/miniconda3/envs/newamoebamdpoltype/share/psi4
    Memory:     500.0 MiB
    Threads:    1
    
  ==> Input File <==

--------------------------------------------------------------------------
molecule { 
0 1
C -0.563712849828 -0.226492940823 0.380391040200
N 0.612777848601 -0.906280244297 0.434955264092
C 1.838422773126 -0.557763370741 -0.164013047210
C 2.705304315703 -1.598157736206 -0.519815150991
H 0.618485927171 -1.649036949364 1.150911903830
C 2.233817966371 0.772721561398 -0.355928301122
C -1.572727077891 -0.548477361001 1.267010309433
N -2.590425887101 -1.574249772932 2.998233269102
C -2.933765060844 -0.074854075383 1.351975643454
C -1.384553005968 -1.543999105186 2.326722405601
C -3.514753814059 -0.712527750839 2.404574366053
C -0.774222385430 0.765373686117 -0.690681123152
C -1.254174670507 2.045778810611 -0.386525135040
C -0.509875437222 0.419713866858 -2.023234591879
C -1.462914621891 2.972156972317 -1.407606789620
C -0.726948155727 1.347689886183 -3.037865890116
C -1.200705567233 2.625931387797 -2.733586576907
C 3.947503641537 -1.312676616611 -1.080402748329
C 3.469089765274 1.045658561372 -0.938556651698
C 4.331731336313 0.010210839099 -1.301193122969
H 2.390083310976 -2.627420943336 -0.363085727852
H 1.585397328148 1.583799735206 -0.041479991065
H -2.767487991396 -2.206593535014 3.767588468517
O -0.382668090957 -2.243853127674 2.589972236012
H -1.442575962317 2.312250217225 0.650678663512
H -0.142884425176 -0.577252811762 -2.254796250865
H -1.827315996583 3.967740890843 -1.166630884098
H -0.527087759433 1.073683969345 -4.070733779827
H -1.364260363602 3.349425227969 -3.528175536900
H 4.612899062605 -2.128431983304 -1.351304908323
H 3.768269159493 2.080172394605 -1.087594430332
H -3.415382945437 0.639437596205 0.698914839281
H -4.519533553330 -0.631402330319 2.796879594285
H 5.297352472089 0.233066463053 -1.746706453842
no_reorient
}
memory 8.166666666666666GB
set_num_threads(2)
psi4_io.set_default_path("/scratch/bdw2292/Psi4-1_16_Index_0-farH_in17")
set freeze_core True
set PROPERTIES_ORIGIN ["COM"]
set cubeprop_tasks ['esp']
set basis 6-311G** 
E, wfn = properties('mp2',properties=['dipole'],return_wfn=True)
cubeprop(wfn)
fchk(wfn, "1_16_Index_0-dma.fchk")
clean()
--------------------------------------------------------------------------

  Memory set to   7.606 GiB by Python driver.
  Threads set to 2 by Python driver.
    SCF Algorithm Type (re)set to DF.

*** tstart() called on node74.bme.utexas.edu
*** at Wed Jun  8 11:11:55 2022

   => Loading Basis Set <=

    Name: 6-311G**
    Role: ORBITAL
    Keyword: BASIS
    atoms 1, 3-4, 6-7, 9-20 entry C          line   113 file /home/bdw2292/miniconda3/envs/newamoebamdpoltype/share/psi4/basis/6-311gss.gbs 
    atoms 2, 8              entry N          line   132 file /home/bdw2292/miniconda3/envs/newamoebamdpoltype/share/psi4/basis/6-311gss.gbs 
    atoms 5, 21-23, 25-34   entry H          line    32 file /home/bdw2292/miniconda3/envs/newamoebamdpoltype/share/psi4/basis/6-311gss.gbs 
    atoms 24                entry O          line   151 file /home/bdw2292/miniconda3/envs/newamoebamdpoltype/share/psi4/basis/6-311gss.gbs 


         ---------------------------------------------------------
                                   SCF
               by Justin Turney, Rob Parrish, Andy Simmonett
                          and Daniel G. A. Smith
                              RHF Reference
                        2 Threads,   7788 MiB Core
         ---------------------------------------------------------

  ==> Geometry <==

    Molecular point group: c1
    Full point group: C1

    Geometry (in Angstrom), charge = 0, multiplicity = 1:

       Center              X                  Y                   Z               Mass       
    ------------   -----------------  -----------------  -----------------  -----------------
         C           -0.563712849828    -0.226492940823     0.380391040200    12.000000000000
         N            0.612777848601    -0.906280244297     0.434955264092    14.003074004430
         C            1.838422773126    -0.557763370741    -0.164013047210    12.000000000000
         C            2.705304315703    -1.598157736206    -0.519815150991    12.000000000000
         H            0.618485927171    -1.649036949364     1.150911903830     1.007825032230
         C            2.233817966371     0.772721561398    -0.355928301122    12.000000000000
         C           -1.572727077891    -0.548477361001     1.267010309433    12.000000000000
         N           -2.590425887101    -1.574249772932     2.998233269102    14.003074004430
         C           -2.933765060844    -0.074854075383     1.351975643454    12.000000000000
         C           -1.384553005968    -1.543999105186     2.326722405601    12.000000000000
         C           -3.514753814059    -0.712527750839     2.404574366053    12.000000000000
         C           -0.774222385430     0.765373686117    -0.690681123152    12.000000000000
         C           -1.254174670507     2.045778810611    -0.386525135040    12.000000000000
         C           -0.509875437222     0.419713866858    -2.023234591879    12.000000000000
         C           -1.462914621891     2.972156972317    -1.407606789620    12.000000000000
         C           -0.726948155727     1.347689886183    -3.037865890116    12.000000000000
         C           -1.200705567233     2.625931387797    -2.733586576907    12.000000000000
         C            3.947503641537    -1.312676616611    -1.080402748329    12.000000000000
         C            3.469089765274     1.045658561372    -0.938556651698    12.000000000000
         C            4.331731336313     0.010210839099    -1.301193122969    12.000000000000
         H            2.390083310976    -2.627420943336    -0.363085727852     1.007825032230
         H            1.585397328148     1.583799735206    -0.041479991065     1.007825032230
         H           -2.767487991396    -2.206593535014     3.767588468517     1.007825032230
         O           -0.382668090957    -2.243853127674     2.589972236012    15.994914619570
         H           -1.442575962317     2.312250217225     0.650678663512     1.007825032230
         H           -0.142884425176    -0.577252811762    -2.254796250865     1.007825032230
         H           -1.827315996583     3.967740890843    -1.166630884098     1.007825032230
         H           -0.527087759433     1.073683969345    -4.070733779827     1.007825032230
         H           -1.364260363602     3.349425227969    -3.528175536900     1.007825032230
         H            4.612899062605    -2.128431983304    -1.351304908323     1.007825032230
         H            3.768269159493     2.080172394605    -1.087594430332     1.007825032230
         H           -3.415382945437     0.639437596205     0.698914839281     1.007825032230
         H           -4.519533553330    -0.631402330319     2.796879594285     1.007825032230
         H            5.297352472089     0.233066463053    -1.746706453842     1.007825032230

  Running in c1 symmetry.

  Rotational constants: A =      0.01525  B =      0.00969  C =      0.00642 [cm^-1]
  Rotational constants: A =    457.16674  B =    290.36800  C =    192.49633 [MHz]
  Nuclear repulsion = 1429.629459636381625

  Charge       = 0
  Multiplicity = 1
  Electrons    = 138
  Nalpha       = 69
  Nbeta        = 69

  ==> Algorithm <==

  SCF Algorithm Type is DF.
  DIIS enabled.
  MOM disabled.
  Fractional occupation disabled.
  Guess Type is SAD.
  Energy threshold   = 1.00e-10
  Density threshold  = 1.00e-10
  Integral threshold = 1.00e-12

  ==> Primary Basis <==

  Basis Set: 6-311G**
    Blend: 6-311G**
    Number of shells: 216
    Number of basis functions: 444
    Number of Cartesian functions: 464
    Spherical Harmonics?: true
    Max angular momentum: 2

   => Loading Basis Set <=

    Name: (6-311G** AUX)
    Role: JKFIT
    Keyword: DF_BASIS_SCF
    atoms 1, 3-4, 6-7, 9-20 entry C          line   125 file /home/bdw2292/miniconda3/envs/newamoebamdpoltype/share/psi4/basis/cc-pvtz-jkfit.gbs 
    atoms 2, 8              entry N          line   177 file /home/bdw2292/miniconda3/envs/newamoebamdpoltype/share/psi4/basis/cc-pvtz-jkfit.gbs 
    atoms 5, 21-23, 25-34   entry H          line    51 file /home/bdw2292/miniconda3/envs/newamoebamdpoltype/share/psi4/basis/cc-pvtz-jkfit.gbs 
    atoms 24                entry O          line   229 file /home/bdw2292/miniconda3/envs/newamoebamdpoltype/share/psi4/basis/cc-pvtz-jkfit.gbs 

  ==> Integral Setup <==

  DFHelper Memory: AOs need 2.200 GiB; user supplied 5.704 GiB. Using in-core AOs.

  ==> MemDFJK: Density-Fitted J/K Matrices <==

    J tasked:                   Yes
    K tasked:                   Yes
    wK tasked:                   No
    OpenMP threads:               2
    Memory [MiB]:              5841
    Algorithm:                 Core
    Schwarz Cutoff:           1E-12
    Mask sparsity (%):      27.5617
    Fitting Condition:        1E-10

   => Auxiliary Basis Set <=

  Basis Set: (6-311G** AUX)
    Blend: CC-PVTZ-JKFIT
    Number of shells: 640
    Number of basis functions: 2000
    Number of Cartesian functions: 2410
    Spherical Harmonics?: true
    Max angular momentum: 4

  Minimum eigenvalue in the overlap matrix is 1.7408568102E-04.
  Reciprocal condition number of the overlap matrix is 2.5315210454E-05.
    Using symmetric orthogonalization.

  ==> Pre-Iterations <==

  SCF Guess: Superposition of Atomic Densities via on-the-fly atomic UHF (no occupation information).

   -------------------------
    Irrep   Nso     Nmo    
   -------------------------
     A        444     444 
   -------------------------
    Total     444     444
   -------------------------

  ==> Iterations <==

                           Total Energy        Delta E     RMS |[F,P]|

   @DF-RHF iter SAD:  -835.33267142909779   -8.35333e+02   0.00000e+00 
   @DF-RHF iter   1:  -835.46100977530489   -1.28338e-01   1.83193e-03 DIIS
   @DF-RHF iter   2:  -835.77214176901271   -3.11132e-01   9.21925e-04 DIIS
   @DF-RHF iter   3:  -835.84061167739628   -6.84699e-02   2.42880e-04 DIIS
   @DF-RHF iter   4:  -835.84720466474198   -6.59299e-03   9.84016e-05 DIIS
   @DF-RHF iter   5:  -835.84829107928340   -1.08641e-03   1.96770e-05 DIIS
   @DF-RHF iter   6:  -835.84839803719649   -1.06958e-04   1.11064e-05 DIIS
   @DF-RHF iter   7:  -835.84843118345157   -3.31463e-05   4.81211e-06 DIIS
   @DF-RHF iter   8:  -835.84843953405561   -8.35060e-06   2.04715e-06 DIIS
   @DF-RHF iter   9:  -835.84844078480648   -1.25075e-06   7.35847e-07 DIIS
   @DF-RHF iter  10:  -835.84844101661349   -2.31807e-07   3.63939e-07 DIIS
   @DF-RHF iter  11:  -835.84844106892172   -5.23082e-08   1.57103e-07 DIIS
   @DF-RHF iter  12:  -835.84844107781498   -8.89327e-09   5.50067e-08 DIIS
   @DF-RHF iter  13:  -835.84844107892775   -1.11277e-09   2.37664e-08 DIIS
   @DF-RHF iter  14:  -835.84844107909430   -1.66551e-10   1.01150e-08 DIIS
   @DF-RHF iter  15:  -835.84844107913250   -3.81988e-11   4.68882e-09 DIIS
   @DF-RHF iter  16:  -835.84844107914205   -9.54969e-12   2.12793e-09 DIIS
   @DF-RHF iter  17:  -835.84844107914080    1.25056e-12   9.10441e-10 DIIS
   @DF-RHF iter  18:  -835.84844107914819   -7.38964e-12   4.38707e-10 DIIS
   @DF-RHF iter  19:  -835.84844107914728    9.09495e-13   1.69462e-10 DIIS
   @DF-RHF iter  20:  -835.84844107914500    2.27374e-12   9.66354e-11 DIIS
  Energy and wave function converged.


  ==> Post-Iterations <==

    Orbital Energies [Eh]
    ---------------------

    Doubly Occupied:                                                      

       1A    -20.501028     2A    -15.588012     3A    -15.586291  
       4A    -11.338722     5A    -11.320660     6A    -11.284753  
       7A    -11.264012     8A    -11.260245     9A    -11.252896  
      10A    -11.251959    11A    -11.251539    12A    -11.249321  
      13A    -11.248149    14A    -11.239462    15A    -11.239204  
      16A    -11.234127    17A    -11.233917    18A    -11.231742  
      19A    -11.221791    20A    -11.217725    21A     -1.358725  
      22A     -1.278678    23A     -1.258351    24A     -1.170714  
      25A     -1.146917    26A     -1.083258    27A     -1.038849  
      28A     -1.029388    29A     -1.018088    30A     -1.012341  
      31A     -0.965277    32A     -0.901683    33A     -0.846762  
      34A     -0.843123    35A     -0.834846    36A     -0.807501  
      37A     -0.788548    38A     -0.765537    39A     -0.725522  
      40A     -0.704271    41A     -0.692774    42A     -0.669020  
      43A     -0.667551    44A     -0.645394    45A     -0.637421  
      46A     -0.619076    47A     -0.610182    48A     -0.602122  
      49A     -0.593668    50A     -0.591228    51A     -0.589206  
      52A     -0.586568    53A     -0.578429    54A     -0.553952  
      55A     -0.535569    56A     -0.523211    57A     -0.515273  
      58A     -0.512454    59A     -0.506421    60A     -0.497802  
      61A     -0.476370    62A     -0.460366    63A     -0.409990  
      64A     -0.386517    65A     -0.353492    66A     -0.350912  
      67A     -0.336361    68A     -0.314023    69A     -0.260549  

    Virtual:                                                              

      70A      0.072057    71A      0.111177    72A      0.123703  
      73A      0.135439    74A      0.146391    75A      0.158501  
      76A      0.161219    77A      0.163990    78A      0.175873  
      79A      0.184444    80A      0.190950    81A      0.198301  
      82A      0.205045    83A      0.209645    84A      0.219647  
      85A      0.225443    86A      0.236249    87A      0.238528  
      88A      0.255157    89A      0.285569    90A      0.307721  
      91A      0.333001    92A      0.352663    93A      0.360366  
      94A      0.387588    95A      0.391049    96A      0.397113  
      97A      0.408645    98A      0.421800    99A      0.427203  
     100A      0.432363   101A      0.434904   102A      0.439326  
     103A      0.450541   104A      0.452114   105A      0.463407  
     106A      0.478994   107A      0.497221   108A      0.510697  
     109A      0.512351   110A      0.517619   111A      0.525512  
     112A      0.546986   113A      0.551088   114A      0.557662  
     115A      0.567668   116A      0.570690   117A      0.580097  
     118A      0.584329   119A      0.589512   120A      0.595056  
     121A      0.602545   122A      0.606242   123A      0.610771  
     124A      0.618859   125A      0.620331   126A      0.623772  
     127A      0.627611   128A      0.629679   129A      0.638354  
     130A      0.641435   131A      0.650163   132A      0.653059  
     133A      0.659941   134A      0.675952   135A      0.683588  
     136A      0.690549   137A      0.704662   138A      0.708648  
     139A      0.726793   140A      0.740777   141A      0.748761  
     142A      0.756522   143A      0.761201   144A      0.768382  
     145A      0.777222   146A      0.781743   147A      0.789593  
     148A      0.799280   149A      0.804691   150A      0.804972  
     151A      0.809495   152A      0.817506   153A      0.822004  
     154A      0.825593   155A      0.829830   156A      0.833121  
     157A      0.840390   158A      0.847318   159A      0.851144  
     160A      0.863987   161A      0.877305   162A      0.880237  
     163A      0.892500   164A      0.898383   165A      0.912044  
     166A      0.917069   167A      0.928861   168A      0.935643  
     169A      0.946322   170A      0.952982   171A      0.958404  
     172A      0.972811   173A      0.979870   174A      0.988032  
     175A      0.998481   176A      1.015323   177A      1.030705  
     178A      1.038479   179A      1.051107   180A      1.056408  
     181A      1.062795   182A      1.078719   183A      1.080667  
     184A      1.083699   185A      1.098519   186A      1.103773  
     187A      1.114440   188A      1.134909   189A      1.150953  
     190A      1.152863   191A      1.166660   192A      1.172719  
     193A      1.191229   194A      1.198698   195A      1.210149  
     196A      1.223916   197A      1.228434   198A      1.236277  
     199A      1.250321   200A      1.265947   201A      1.275332  
     202A      1.292187   203A      1.301964   204A      1.316816  
     205A      1.321869   206A      1.334681   207A      1.337468  
     208A      1.345654   209A      1.359019   210A      1.367188  
     211A      1.376108   212A      1.390308   213A      1.400481  
     214A      1.415665   215A      1.432384   216A      1.439052  
     217A      1.447929   218A      1.461782   219A      1.485684  
     220A      1.494233   221A      1.516996   222A      1.535369  
     223A      1.591098   224A      1.594352   225A      1.625185  
     226A      1.663536   227A      1.686423   228A      1.698009  
     229A      1.703096   230A      1.714108   231A      1.723108  
     232A      1.737983   233A      1.746378   234A      1.757048  
     235A      1.765123   236A      1.769537   237A      1.784153  
     238A      1.798902   239A      1.807157   240A      1.812646  
     241A      1.816194   242A      1.826229   243A      1.832759  
     244A      1.837594   245A      1.851629   246A      1.864029  
     247A      1.877330   248A      1.891248   249A      1.897709  
     250A      1.898323   251A      1.910655   252A      1.921389  
     253A      1.926975   254A      1.947529   255A      1.955506  
     256A      1.968244   257A      1.976675   258A      1.993664  
     259A      2.000661   260A      2.011139   261A      2.016818  
     262A      2.029396   263A      2.034941   264A      2.050310  
     265A      2.053470   266A      2.061945   267A      2.068338  
     268A      2.070770   269A      2.100652   270A      2.108359  
     271A      2.115445   272A      2.122604   273A      2.170210  
     274A      2.182648   275A      2.191816   276A      2.193424  
     277A      2.201004   278A      2.205273   279A      2.206667  
     280A      2.212020   281A      2.217753   282A      2.228064  
     283A      2.234002   284A      2.243940   285A      2.246524  
     286A      2.253061   287A      2.267840   288A      2.275547  
     289A      2.278321   290A      2.285566   291A      2.297641  
     292A      2.318724   293A      2.323911   294A      2.329670  
     295A      2.369361   296A      2.376659   297A      2.383913  
     298A      2.400022   299A      2.414557   300A      2.434010  
     301A      2.494637   302A      2.514102   303A      2.529588  
     304A      2.540234   305A      2.595345   306A      2.607994  
     307A      2.614657   308A      2.630843   309A      2.640155  
     310A      2.655572   311A      2.664433   312A      2.669738  
     313A      2.678661   314A      2.686401   315A      2.709702  
     316A      2.726203   317A      2.735283   318A      2.749438  
     319A      2.768766   320A      2.773068   321A      2.802636  
     322A      2.821291   323A      2.835185   324A      2.861227  
     325A      2.890119   326A      2.904628   327A      2.910644  
     328A      2.912833   329A      2.916381   330A      2.928433  
     331A      2.932643   332A      2.939131   333A      2.940015  
     334A      2.949148   335A      2.951312   336A      2.953322  
     337A      2.969457   338A      2.981917   339A      2.986038  
     340A      2.993037   341A      2.996142   342A      3.007361  
     343A      3.028035   344A      3.045223   345A      3.053925  
     346A      3.068580   347A      3.106990   348A      3.110444  
     349A      3.124822   350A      3.135312   351A      3.138196  
     352A      3.140621   353A      3.165350   354A      3.176362  
     355A      3.188815   356A      3.203257   357A      3.210509  
     358A      3.222287   359A      3.257693   360A      3.270931  
     361A      3.272811   362A      3.285364   363A      3.291934  
     364A      3.297470   365A      3.326960   366A      3.340108  
     367A      3.358504   368A      3.374351   369A      3.387255  
     370A      3.426257   371A      3.449436   372A      3.473543  
     373A      3.483432   374A      3.494346   375A      3.559661  
     376A      3.572211   377A      3.588561   378A      3.664222  
     379A      3.680989   380A      3.742055   381A      3.745321  
     382A      3.769303   383A      3.774947   384A      3.787118  
     385A      3.792309   386A      3.818158   387A      3.829585  
     388A      3.864203   389A      3.882663   390A      3.886927  
     391A      3.901206   392A      3.909250   393A      3.921995  
     394A      3.960559   395A      3.982852   396A      4.011205  
     397A      4.038282   398A      4.069612   399A      4.104659  
     400A      4.259758   401A      4.283651   402A      4.305391  
     403A      4.362191   404A      4.370810   405A      4.394489  
     406A      4.405957   407A      4.454053   408A      4.468194  
     409A      4.510599   410A      4.523096   411A      4.526438  
     412A      4.556233   413A      4.558209   414A      4.667773  
     415A      4.901170   416A      5.256661   417A      5.272316  
     418A      5.317999   419A      5.364232   420A      5.507359  
     421A      5.565445   422A      5.651163   423A      5.766243  
     424A      6.296556   425A     24.661806   426A     24.699126  
     427A     24.846171   428A     24.980779   429A     25.012577  
     430A     25.082577   431A     25.088142   432A     25.094238  
     433A     25.102094   434A     25.198980   435A     25.227048  
     436A     25.245569   437A     25.259457   438A     25.273386  
     439A     25.337715   440A     25.350368   441A     25.359578  
     442A     37.028648   443A     37.083446   444A     51.734219  

    Final Occupation by Irrep:
              A 
    DOCC [    69 ]

  @DF-RHF Final Energy:  -835.84844107914500

   => Energetics <=

    Nuclear Repulsion Energy =           1429.6294596363816254
    One-Electron Energy =               -3975.6161363172864185
    Two-Electron Energy =                1710.1382356017595612
    Total Energy =                       -835.8484410791450046

Computation Completed

*** tstop() called on node74.bme.utexas.edu at Wed Jun  8 11:13:27 2022
Module time:
	user time   =     171.35 seconds =       2.86 minutes
	system time =       9.16 seconds =       0.15 minutes
	total time  =         92 seconds =       1.53 minutes
Total time:
	user time   =     171.35 seconds =       2.86 minutes
	system time =       9.16 seconds =       0.15 minutes
	total time  =         92 seconds =       1.53 minutes
   => Loading Basis Set <=

    Name: (6-311G** AUX)
    Role: RIFIT
    Keyword: DF_BASIS_MP2
    atoms 1, 3-4, 6-7, 9-20 entry C          line   209 file /home/bdw2292/miniconda3/envs/newamoebamdpoltype/share/psi4/basis/cc-pvtz-ri.gbs 
    atoms 2, 8              entry N          line   257 file /home/bdw2292/miniconda3/envs/newamoebamdpoltype/share/psi4/basis/cc-pvtz-ri.gbs 
    atoms 5, 21-23, 25-34   entry H          line    19 file /home/bdw2292/miniconda3/envs/newamoebamdpoltype/share/psi4/basis/cc-pvtz-ri.gbs 
    atoms 24                entry O          line   305 file /home/bdw2292/miniconda3/envs/newamoebamdpoltype/share/psi4/basis/cc-pvtz-ri.gbs 


*** tstart() called on node74.bme.utexas.edu
*** at Wed Jun  8 11:13:28 2022


  //>>>>>>>>>>>>>>>>>>>>>>>>>>>>>>>>>>>//
  //               DFMP2               //
  //<<<<<<<<<<<<<<<<<<<<<<<<<<<<<<<<<<<//

	 --------------------------------------------------------
	                          DF-MP2                         
	      2nd-Order Density-Fitted Moller-Plesset Theory     
	              RMP2 Wavefunction,   2 Threads             
	                                                         
	        Rob Parrish, Justin Turney, Andy Simmonett,      
	           Ed Hohenstein, and C. David Sherrill          
	 --------------------------------------------------------

   => Auxiliary Basis Set <=

  Basis Set: (6-311G** AUX)
    Blend: CC-PVTZ-RI
    Number of shells: 600
    Number of basis functions: 2040
    Number of Cartesian functions: 2510
    Spherical Harmonics?: true
    Max angular momentum: 4

	 --------------------------------------------------------
	                 NBF =   444, NAUX =  2040
	 --------------------------------------------------------
	   CLASS    FOCC     OCC    AOCC    AVIR     VIR    FVIR
	   PAIRS      20      69      49     375     375       0
	 --------------------------------------------------------

  DFHelper Memory: AOs need 2.200 GiB; user supplied 5.704 GiB. Using in-core AOs.


         ------------------------------------------------------------
                                     CPHF                           
                                  Rob Parrish                       
         ------------------------------------------------------------

  ==> Geometry <==

    Molecular point group: c1
    Full point group: C1

    Geometry (in Angstrom), charge = 0, multiplicity = 1:

       Center              X                  Y                   Z               Mass       
    ------------   -----------------  -----------------  -----------------  -----------------
         C           -0.563712849828    -0.226492940823     0.380391040200    12.000000000000
         N            0.612777848601    -0.906280244297     0.434955264092    14.003074004430
         C            1.838422773126    -0.557763370741    -0.164013047210    12.000000000000
         C            2.705304315703    -1.598157736206    -0.519815150991    12.000000000000
         H            0.618485927171    -1.649036949364     1.150911903830     1.007825032230
         C            2.233817966371     0.772721561398    -0.355928301122    12.000000000000
         C           -1.572727077891    -0.548477361001     1.267010309433    12.000000000000
         N           -2.590425887101    -1.574249772932     2.998233269102    14.003074004430
         C           -2.933765060844    -0.074854075383     1.351975643454    12.000000000000
         C           -1.384553005968    -1.543999105186     2.326722405601    12.000000000000
         C           -3.514753814059    -0.712527750839     2.404574366053    12.000000000000
         C           -0.774222385430     0.765373686117    -0.690681123152    12.000000000000
         C           -1.254174670507     2.045778810611    -0.386525135040    12.000000000000
         C           -0.509875437222     0.419713866858    -2.023234591879    12.000000000000
         C           -1.462914621891     2.972156972317    -1.407606789620    12.000000000000
         C           -0.726948155727     1.347689886183    -3.037865890116    12.000000000000
         C           -1.200705567233     2.625931387797    -2.733586576907    12.000000000000
         C            3.947503641537    -1.312676616611    -1.080402748329    12.000000000000
         C            3.469089765274     1.045658561372    -0.938556651698    12.000000000000
         C            4.331731336313     0.010210839099    -1.301193122969    12.000000000000
         H            2.390083310976    -2.627420943336    -0.363085727852     1.007825032230
         H            1.585397328148     1.583799735206    -0.041479991065     1.007825032230
         H           -2.767487991396    -2.206593535014     3.767588468517     1.007825032230
         O           -0.382668090957    -2.243853127674     2.589972236012    15.994914619570
         H           -1.442575962317     2.312250217225     0.650678663512     1.007825032230
         H           -0.142884425176    -0.577252811762    -2.254796250865     1.007825032230
         H           -1.827315996583     3.967740890843    -1.166630884098     1.007825032230
         H           -0.527087759433     1.073683969345    -4.070733779827     1.007825032230
         H           -1.364260363602     3.349425227969    -3.528175536900     1.007825032230
         H            4.612899062605    -2.128431983304    -1.351304908323     1.007825032230
         H            3.768269159493     2.080172394605    -1.087594430332     1.007825032230
         H           -3.415382945437     0.639437596205     0.698914839281     1.007825032230
         H           -4.519533553330    -0.631402330319     2.796879594285     1.007825032230
         H            5.297352472089     0.233066463053    -1.746706453842     1.007825032230

  Nuclear repulsion = 1429.629459636381625
  Reference energy  = -835.848441079145005

  ==> Basis Set <==

  Basis Set: 6-311G**
    Blend: 6-311G**
    Number of shells: 216
    Number of basis functions: 444
    Number of Cartesian functions: 464
    Spherical Harmonics?: true
    Max angular momentum: 2

  ==> CGRSolver (by Rob Parrish) <==

   Number of roots    =         1
   Preconditioning    =    JACOBI
   Convergence cutoff =     1E-06
   Maximum iterations =       100

  ==> CPHFRHamiltonian (by Rob Parrish) <== 

  ==> MemDFJK: Density-Fitted J/K Matrices <==

    J tasked:                   Yes
    K tasked:                   Yes
    wK tasked:                   No
    OpenMP threads:               2
    Memory [MiB]:              5841
    Algorithm:                 Core
    Schwarz Cutoff:           1E-12
    Mask sparsity (%):      27.5617
    Fitting Condition:        1E-10

   => Auxiliary Basis Set <=

  Basis Set: (6-311G** AUX)
    Blend: CC-PVTZ-JKFIT
    Number of shells: 640
    Number of basis functions: 2000
    Number of Cartesian functions: 2410
    Spherical Harmonics?: true
    Max angular momentum: 4

  ==> CPHF Iterations <==

  => Iterations <=

             Iter  Converged  Remaining    Residual
  CGR           1          0          1   1.274E-01
  CGR           2          0          1   4.183E-02
  CGR           3          0          1   1.938E-02
  CGR           4          0          1   5.674E-03
  CGR           5          0          1   2.725E-03
  CGR           6          0          1   1.604E-03
  CGR           7          0          1   6.937E-04
  CGR           8          0          1   2.374E-04
  CGR           9          0          1   7.106E-05
  CGR          10          0          1   3.166E-05
  CGR          11          0          1   1.244E-05
  CGR          12          0          1   4.676E-06
  CGR          13          0          1   1.999E-06
  CGR          14          1          0   6.767E-07

    CGRSolver converged.

	-----------------------------------------------------------
	 ==================> DF-MP2 Energies <==================== 
	-----------------------------------------------------------
	 Reference Energy          =    -835.8484410791450046 [Eh]
	 Singles Energy            =      -0.0000000000000000 [Eh]
	 Same-Spin Energy          =      -0.7793570931056789 [Eh]
	 Opposite-Spin Energy      =      -2.0937198752556880 [Eh]
	 Correlation Energy        =      -2.8730769683613668 [Eh]
	 Total Energy              =    -838.7215180475063789 [Eh]
	-----------------------------------------------------------
	 ================> DF-SCS-MP2 Energies <================== 
	-----------------------------------------------------------
	 SCS Same-Spin Scale       =       0.3333333333333333 [-]
	 SCS Opposite-Spin Scale   =       1.2000000000000000 [-]
	 SCS Same-Spin Energy      =      -0.2597856977018930 [Eh]
	 SCS Opposite-Spin Energy  =      -2.5124638503068257 [Eh]
	 SCS Correlation Energy    =      -2.7722495480087188 [Eh]
	 SCS Total Energy          =    -838.6206906271537491 [Eh]
	-----------------------------------------------------------



Properties will be evaluated at  -0.000000,  -0.000000,   0.000000 [a0]

Properties computed using the MP2 density matrix

  Nuclear Dipole Moment: [e a0]
     X:     2.1282      Y:     5.0770      Z:    -6.1338

  Electronic Dipole Moment: [e a0]
     X:    -2.5478      Y:    -4.3960      Z:     5.5299

  Dipole Moment: [e a0]
     X:    -0.4196      Y:     0.6810      Z:    -0.6038     Total:     1.0022

  Dipole Moment: [D]
     X:    -1.0666      Y:     1.7308      Z:    -1.5348     Total:     2.5473


*** tstop() called on node74.bme.utexas.edu at Wed Jun  8 11:18:55 2022
Module time:
	user time   =     589.59 seconds =       9.83 minutes
	system time =      34.96 seconds =       0.58 minutes
	total time  =        327 seconds =       5.45 minutes
Total time:
	user time   =     761.24 seconds =      12.69 minutes
	system time =      44.13 seconds =       0.74 minutes
	total time  =        420 seconds =       7.00 minutes
  ==> One Electron Grid Properties (v2.0) <==

  ==> CubicScalarGrid <==

    Filepath     = .
    Total Points =          1616576
    XYZ Blocking =               10
    X Points     =              134
    Y Points     =              104
    Z Points     =              116
    X Spacing    =        2.000E-01
    Y Spacing    =        2.000E-01
    Z Spacing    =        2.000E-01
    X Minimum    =       -1.257E+01
    Y Minimum    =       -9.034E+00
    Z Minimum    =       -1.179E+01
    X Maximum    =        1.403E+01
    Y Maximum    =        1.157E+01
    Z Maximum    =        1.121E+01

  Basis Set: 6-311G**
    Blend: 6-311G**
    Number of shells: 216
    Number of basis functions: 444
    Number of Cartesian functions: 464
    Spherical Harmonics?: true
    Max angular momentum: 2

   => Loading Basis Set <=

    Name: 6-311G**
    Role: ORBITAL
    Keyword: BASIS
    atoms 1, 3-4, 6-7, 9-20 entry C          line   113 file /home/bdw2292/miniconda3/envs/newamoebamdpoltype/share/psi4/basis/6-311gss.gbs 
    atoms 2, 8              entry N          line   132 file /home/bdw2292/miniconda3/envs/newamoebamdpoltype/share/psi4/basis/6-311gss.gbs 
    atoms 5, 21-23, 25-34   entry H          line    32 file /home/bdw2292/miniconda3/envs/newamoebamdpoltype/share/psi4/basis/6-311gss.gbs 
    atoms 24                entry O          line   151 file /home/bdw2292/miniconda3/envs/newamoebamdpoltype/share/psi4/basis/6-311gss.gbs 

FCHKWriter: !WARNING! method 'MP2'' renamed to label 'MP2'.
FCHKWriter: Writing 1_16_Index_0-dma.fchk with label ' MP2 Density'.

    Psi4 stopped on: Wednesday, 08 June 2022 11:23AM
    Psi4 wall time for execution: 0:11:28.83

*** Psi4 exiting successfully. Buy a developer a beer!
