
    -----------------------------------------------------------------------
          Psi4: An Open-Source Ab Initio Electronic Structure Package
                               Psi4 1.5 release

                         Git: Rev {HEAD} e9f4d6d 


    D. G. A. Smith, L. A. Burns, A. C. Simmonett, R. M. Parrish,
    M. C. Schieber, R. Galvelis, P. Kraus, H. Kruse, R. Di Remigio,
    A. Alenaizan, A. M. James, S. Lehtola, J. P. Misiewicz, M. Scheurer,
    R. A. Shaw, J. B. Schriber, Y. Xie, Z. L. Glick, D. A. Sirianni,
    J. S. O'Brien, J. M. Waldrop, A. Kumar, E. G. Hohenstein,
    B. P. Pritchard, B. R. Brooks, H. F. Schaefer III, A. Yu. Sokolov,
    K. Patkowski, A. E. DePrince III, U. Bozkaya, R. A. King,
    F. A. Evangelista, J. M. Turney, T. D. Crawford, C. D. Sherrill,
    J. Chem. Phys. 152(18) 184108 (2020). https://doi.org/10.1063/5.0006002

                            Additional Code Authors
    E. T. Seidl, C. L. Janssen, E. F. Valeev, M. L. Leininger,
    J. F. Gonthier, R. M. Richard, H. R. McAlexander, M. Saitow, X. Wang,
    P. Verma, M. H. Lechner, and A. Jiang

             Previous Authors, Complete List of Code Contributors,
                       and Citations for Specific Modules
    https://github.com/psi4/psi4/blob/master/codemeta.json
    https://github.com/psi4/psi4/graphs/contributors
    http://psicode.org/psi4manual/master/introduction.html#citing-psifour

    -----------------------------------------------------------------------


    Psi4 started on: Wednesday, 08 June 2022 10:04AM

    Process ID: 1078625
    Host:       node74.bme.utexas.edu
    PSIDATADIR: /home/bdw2292/miniconda3/envs/newamoebamdpoltype/share/psi4
    Memory:     500.0 MiB
    Threads:    1
    
  ==> Input File <==

--------------------------------------------------------------------------
molecule { 
0 1
 C   -3.344400   -0.170000    0.775700
 N   -2.067800   -0.696200    0.963700
 C   -0.798700   -0.461700    0.408600
 C    0.175900   -1.455600    0.573900
 H   -2.037400   -1.387000    1.722200
 C   -0.435200    0.645900   -0.349200
 C   -4.406000   -0.531700    1.538600
 N   -5.462300   -1.602900    3.289300
 C   -5.844500   -0.191400    1.515900
 C   -4.218400   -1.480600    2.703200
 C   -6.417300   -0.862600    2.604600
 C   -3.574400    0.759600   -0.347000
 C   -3.699700    2.139400   -0.116200
 C   -3.691500    0.268800   -1.654900
 C   -3.945100    3.010800   -1.178700
 C   -3.936300    1.143700   -2.714600
 C   -4.065300    2.511800   -2.475400
 C    1.461500   -1.339200    0.021200
 C    0.850600    0.767300   -0.906100
 C    1.830800   -0.220300   -0.728700
 H   -0.061300   -2.359000    1.133800
 H   -1.120700    1.468400   -0.508800
 H   -5.631600   -2.186800    4.094400
 O   -3.187000   -2.028200    3.051100
 H   -3.609700    2.536100    0.892500
 H   -3.591500   -0.796700   -1.848800
 H   -4.052600    4.076700   -0.994600
 H   -4.033300    0.757000   -3.725800
 H   -4.267600    3.189900   -3.301000
 H    2.134700   -2.177400    0.171200
 H    1.053800    1.682700   -1.453900
 H   -6.328300    0.416600    0.836700
 H   -7.415200   -0.813400    2.863000
 H    2.776100   -0.125000   -1.131500
}
set {
  geom_maxiter 400
  g_convergence GAU
  dynamic_level 1
}
memory 8.166666666666666GB
set_num_threads(2)
psi4_io.set_default_path("/scratch/bdw2292/Psi4-1_16_Index_0-farH_in17")
for _ in range(1):
  try:
    set opt_coordinates both
    optimize('mp2/6-31G*')
    break
  except:
    break
  else:
    try:
      set opt_coordinates cartesian
      optimize('mp2/6-31G*')
      break
    except:
      pass
clean()
--------------------------------------------------------------------------

  Memory set to   7.606 GiB by Python driver.
  Threads set to 2 by Python driver.

Scratch directory: /scratch/bdw2292/Psi4-1_16_Index_0-farH_in17/

Scratch directory: /scratch/bdw2292/Psi4-1_16_Index_0-farH_in17/
gradient() will perform analytic gradient computation.
    SCF Algorithm Type (re)set to DF.

*** tstart() called on node74.bme.utexas.edu
*** at Wed Jun  8 10:04:54 2022

   => Loading Basis Set <=

    Name: 6-31G*
    Role: ORBITAL
    Keyword: BASIS
    atoms 1, 3-4, 6-7, 9-20 entry C          line   111 file /home/bdw2292/miniconda3/envs/newamoebamdpoltype/share/psi4/basis/6-31gs.gbs 
    atoms 2, 8              entry N          line   128 file /home/bdw2292/miniconda3/envs/newamoebamdpoltype/share/psi4/basis/6-31gs.gbs 
    atoms 5, 21-23, 25-34   entry H          line    44 file /home/bdw2292/miniconda3/envs/newamoebamdpoltype/share/psi4/basis/6-31gs.gbs 
    atoms 24                entry O          line   145 file /home/bdw2292/miniconda3/envs/newamoebamdpoltype/share/psi4/basis/6-31gs.gbs 


         ---------------------------------------------------------
                                   SCF
               by Justin Turney, Rob Parrish, Andy Simmonett
                          and Daniel G. A. Smith
                              RHF Reference
                        2 Threads,   7788 MiB Core
         ---------------------------------------------------------

  ==> Geometry <==

    Molecular point group: c1
    Full point group: C1

    Geometry (in Angstrom), charge = 0, multiplicity = 1:

       Center              X                  Y                   Z               Mass       
    ------------   -----------------  -----------------  -----------------  -----------------
         C           -0.591424538090    -0.147454763716     0.382173120110    12.000000000000
         N            0.685175461910    -0.673654763716     0.570173120110    14.003074004430
         C            1.954275461910    -0.439154763716     0.015073120110    12.000000000000
         C            2.928875461910    -1.433054763716     0.180373120110    12.000000000000
         H            0.715575461910    -1.364454763716     1.328673120110     1.007825032230
         C            2.317775461910     0.668445236284    -0.742726879890    12.000000000000
         C           -1.653024538090    -0.509154763716     1.145073120110    12.000000000000
         N           -2.709324538090    -1.580354763716     2.895773120110    14.003074004430
         C           -3.091524538090    -0.168854763716     1.122373120110    12.000000000000
         C           -1.465424538090    -1.458054763716     2.309673120110    12.000000000000
         C           -3.664324538090    -0.840054763716     2.211073120110    12.000000000000
         C           -0.821424538090     0.782145236284    -0.740526879890    12.000000000000
         C           -0.946724538090     2.161945236284    -0.509726879890    12.000000000000
         C           -0.938524538090     0.291345236284    -2.048426879890    12.000000000000
         C           -1.192124538090     3.033345236284    -1.572226879890    12.000000000000
         C           -1.183324538090     1.166245236284    -3.108126879890    12.000000000000
         C           -1.312324538090     2.534345236284    -2.868926879890    12.000000000000
         C            4.214475461910    -1.316654763716    -0.372326879890    12.000000000000
         C            3.603575461910     0.789845236284    -1.299626879890    12.000000000000
         C            4.583775461910    -0.197754763716    -1.122226879890    12.000000000000
         H            2.691675461910    -2.336454763716     0.740273120110     1.007825032230
         H            1.632275461910     1.490945236284    -0.902326879890     1.007825032230
         H           -2.878624538090    -2.164254763716     3.700873120110     1.007825032230
         O           -0.434024538090    -2.005654763716     2.657573120110    15.994914619570
         H           -0.856724538090     2.558645236284     0.498973120110     1.007825032230
         H           -0.838524538090    -0.774154763716    -2.242326879890     1.007825032230
         H           -1.299624538090     4.099245236284    -1.388126879890     1.007825032230
         H           -1.280324538090     0.779545236284    -4.119326879890     1.007825032230
         H           -1.514624538090     3.212445236284    -3.694526879890     1.007825032230
         H            4.887675461910    -2.154854763716    -0.222326879890     1.007825032230
         H            3.806775461910     1.705245236284    -1.847426879890     1.007825032230
         H           -3.575324538090     0.439145236284     0.443173120110     1.007825032230
         H           -4.662224538090    -0.790854763716     2.469473120110     1.007825032230
         H            5.529075461910    -0.102454763716    -1.525026879890     1.007825032230

  Running in c1 symmetry.

  Rotational constants: A =      0.01437  B =      0.00957  C =      0.00616 [cm^-1]
  Rotational constants: A =    430.73845  B =    286.89742  C =    184.62640 [MHz]
  Nuclear repulsion = 1414.321634549502960

  Charge       = 0
  Multiplicity = 1
  Electrons    = 138
  Nalpha       = 69
  Nbeta        = 69

  ==> Algorithm <==

  SCF Algorithm Type is DF.
  DIIS enabled.
  MOM disabled.
  Fractional occupation disabled.
  Guess Type is SAD.
  Energy threshold   = 1.00e-10
  Density threshold  = 1.00e-10
  Integral threshold = 1.00e-12

  ==> Primary Basis <==

  Basis Set: 6-31G*
    Blend: 6-31G*
    Number of shells: 148
    Number of basis functions: 328
    Number of Cartesian functions: 328
    Spherical Harmonics?: false
    Max angular momentum: 2

   => Loading Basis Set <=

    Name: (6-31G* AUX)
    Role: JKFIT
    Keyword: DF_BASIS_SCF
    atoms 1, 3-4, 6-7, 9-20 entry C          line   121 file /home/bdw2292/miniconda3/envs/newamoebamdpoltype/share/psi4/basis/cc-pvdz-jkfit.gbs 
    atoms 2, 8              entry N          line   171 file /home/bdw2292/miniconda3/envs/newamoebamdpoltype/share/psi4/basis/cc-pvdz-jkfit.gbs 
    atoms 5, 21-23, 25-34   entry H          line    51 file /home/bdw2292/miniconda3/envs/newamoebamdpoltype/share/psi4/basis/cc-pvdz-jkfit.gbs 
    atoms 24                entry O          line   221 file /home/bdw2292/miniconda3/envs/newamoebamdpoltype/share/psi4/basis/cc-pvdz-jkfit.gbs 

  ==> Integral Setup <==

  DFHelper Memory: AOs need 1.272 GiB; user supplied 5.704 GiB. Using in-core AOs.

  ==> MemDFJK: Density-Fitted J/K Matrices <==

    J tasked:                   Yes
    K tasked:                   Yes
    wK tasked:                   No
    OpenMP threads:               2
    Memory [MiB]:              5841
    Algorithm:                 Core
    Schwarz Cutoff:           1E-12
    Mask sparsity (%):      22.8807
    Fitting Condition:        1E-10

   => Auxiliary Basis Set <=

  Basis Set: (6-31G* AUX)
    Blend: CC-PVDZ-JKFIT
    Number of shells: 606
    Number of basis functions: 1970
    Number of Cartesian functions: 1970
    Spherical Harmonics?: false
    Max angular momentum: 3

  Minimum eigenvalue in the overlap matrix is 4.3891208268E-04.
  Reciprocal condition number of the overlap matrix is 5.6466210818E-05.
    Using symmetric orthogonalization.

  ==> Pre-Iterations <==

  SCF Guess: Superposition of Atomic Densities via on-the-fly atomic UHF (no occupation information).

   -------------------------
    Irrep   Nso     Nmo    
   -------------------------
     A        328     328 
   -------------------------
    Total     328     328
   -------------------------

  ==> Iterations <==

                           Total Energy        Delta E     RMS |[F,P]|

   @DF-RHF iter SAD:  -834.28854808745962   -8.34289e+02   0.00000e+00 
   @DF-RHF iter   1:  -835.32802171127992   -1.03947e+00   2.20574e-03 DIIS
   @DF-RHF iter   2:  -835.58618096399675   -2.58159e-01   1.13499e-03 DIIS
   @DF-RHF iter   3:  -835.64203415316422   -5.58532e-02   3.03089e-04 DIIS
   @DF-RHF iter   4:  -835.64797007441950   -5.93592e-03   1.11227e-04 DIIS
   @DF-RHF iter   5:  -835.64878387684394   -8.13802e-04   2.33590e-05 DIIS
   @DF-RHF iter   6:  -835.64888750879209   -1.03632e-04   1.38113e-05 DIIS
   @DF-RHF iter   7:  -835.64891783471580   -3.03259e-05   5.74524e-06 DIIS
   @DF-RHF iter   8:  -835.64892486139809   -7.02668e-06   2.67549e-06 DIIS
   @DF-RHF iter   9:  -835.64892596412358   -1.10273e-06   8.88460e-07 DIIS
   @DF-RHF iter  10:  -835.64892616476266   -2.00639e-07   4.60383e-07 DIIS
   @DF-RHF iter  11:  -835.64892621249805   -4.77354e-08   1.91219e-07 DIIS
   @DF-RHF iter  12:  -835.64892621974445   -7.24640e-09   6.37911e-08 DIIS
   @DF-RHF iter  13:  -835.64892622053139   -7.86940e-10   3.19146e-08 DIIS
   @DF-RHF iter  14:  -835.64892622072557   -1.94177e-10   1.25612e-08 DIIS
   @DF-RHF iter  15:  -835.64892622075661   -3.10365e-11   4.99516e-09 DIIS
   @DF-RHF iter  16:  -835.64892622076650   -9.89075e-12   2.36657e-09 DIIS
   @DF-RHF iter  17:  -835.64892622076729   -7.95808e-13   9.18157e-10 DIIS
   @DF-RHF iter  18:  -835.64892622076479    2.50111e-12   4.31995e-10 DIIS
   @DF-RHF iter  19:  -835.64892622076661   -1.81899e-12   1.70444e-10 DIIS
   @DF-RHF iter  20:  -835.64892622076150    5.11591e-12   5.76204e-11 DIIS
  Energy and wave function converged.


  ==> Post-Iterations <==

    Orbital Energies [Eh]
    ---------------------

    Doubly Occupied:                                                      

       1A    -20.523725     2A    -15.599622     3A    -15.591215  
       4A    -11.347031     5A    -11.314942     6A    -11.282412  
       7A    -11.272271     8A    -11.256674     9A    -11.249541  
      10A    -11.248869    11A    -11.247595    12A    -11.246636  
      13A    -11.245798    14A    -11.234004    15A    -11.233965  
      16A    -11.227447    17A    -11.226500    18A    -11.225685  
      19A    -11.222398    20A    -11.220031    21A     -1.379787  
      22A     -1.262649    23A     -1.260339    24A     -1.163964  
      25A     -1.133972    26A     -1.079536    27A     -1.029929  
      28A     -1.022624    29A     -1.005374    30A     -1.001185  
      31A     -0.963940    32A     -0.897359    33A     -0.838469  
      34A     -0.835020    35A     -0.824576    36A     -0.806758  
      37A     -0.795080    38A     -0.756816    39A     -0.719646  
      40A     -0.703193    41A     -0.692669    42A     -0.671297  
      43A     -0.662396    44A     -0.637722    45A     -0.635481  
      46A     -0.610200    47A     -0.606465    48A     -0.600648  
      49A     -0.595832    50A     -0.592730    51A     -0.583322  
      52A     -0.577757    53A     -0.569828    54A     -0.550119  
      55A     -0.538434    56A     -0.515672    57A     -0.507052  
      58A     -0.505208    59A     -0.501509    60A     -0.481567  
      61A     -0.468802    62A     -0.465144    63A     -0.407590  
      64A     -0.383541    65A     -0.343625    66A     -0.342115  
      67A     -0.323399    68A     -0.309408    69A     -0.253644  

    Virtual:                                                              

      70A      0.094155    71A      0.126070    72A      0.130834  
      73A      0.150541    74A      0.174596    75A      0.223814  
      76A      0.230531    77A      0.240254    78A      0.246668  
      79A      0.283430    80A      0.286723    81A      0.293087  
      82A      0.297089    83A      0.310122    84A      0.314391  
      85A      0.318867    86A      0.320627    87A      0.323911  
      88A      0.336938    89A      0.340035    90A      0.357245  
      91A      0.365865    92A      0.369538    93A      0.386937  
      94A      0.412278    95A      0.427726    96A      0.439207  
      97A      0.462275    98A      0.463649    99A      0.468703  
     100A      0.477770   101A      0.487626   102A      0.503734  
     103A      0.518931   104A      0.523391   105A      0.540545  
     106A      0.574405   107A      0.592367   108A      0.600417  
     109A      0.626949   110A      0.646515   111A      0.667407  
     112A      0.690677   113A      0.715464   114A      0.732443  
     115A      0.742547   116A      0.749771   117A      0.752471  
     118A      0.753499   119A      0.769065   120A      0.773895  
     121A      0.775444   122A      0.781355   123A      0.788588  
     124A      0.798275   125A      0.800731   126A      0.801693  
     127A      0.810928   128A      0.824315   129A      0.825482  
     130A      0.830322   131A      0.834316   132A      0.837931  
     133A      0.843457   134A      0.848637   135A      0.851772  
     136A      0.856343   137A      0.872446   138A      0.879935  
     139A      0.880929   140A      0.891161   141A      0.906991  
     142A      0.924690   143A      0.936027   144A      0.947173  
     145A      0.960792   146A      0.969532   147A      0.985654  
     148A      1.003613   149A      1.017487   150A      1.035951  
     151A      1.038981   152A      1.069515   153A      1.071636  
     154A      1.087626   155A      1.096960   156A      1.099999  
     157A      1.103509   158A      1.112247   159A      1.118180  
     160A      1.118831   161A      1.125327   162A      1.134340  
     163A      1.136376   164A      1.147721   165A      1.150897  
     166A      1.155729   167A      1.168777   168A      1.175913  
     169A      1.191699   170A      1.196523   171A      1.204179  
     172A      1.221457   173A      1.228614   174A      1.241668  
     175A      1.251789   176A      1.260177   177A      1.260987  
     178A      1.283519   179A      1.313418   180A      1.319001  
     181A      1.336910   182A      1.345881   183A      1.365581  
     184A      1.390863   185A      1.403233   186A      1.407017  
     187A      1.415761   188A      1.426982   189A      1.449072  
     190A      1.452078   191A      1.462485   192A      1.491279  
     193A      1.496065   194A      1.513949   195A      1.537785  
     196A      1.548410   197A      1.581358   198A      1.602616  
     199A      1.606553   200A      1.636289   201A      1.647099  
     202A      1.663030   203A      1.672090   204A      1.689594  
     205A      1.697446   206A      1.705728   207A      1.714173  
     208A      1.738772   209A      1.744662   210A      1.748521  
     211A      1.757727   212A      1.763134   213A      1.768174  
     214A      1.774990   215A      1.780707   216A      1.784759  
     217A      1.796199   218A      1.815357   219A      1.872724  
     220A      1.919759   221A      1.958559   222A      1.992806  
     223A      2.008016   224A      2.032672   225A      2.053204  
     226A      2.081442   227A      2.085245   228A      2.099150  
     229A      2.110918   230A      2.119664   231A      2.136683  
     232A      2.141169   233A      2.148191   234A      2.155922  
     235A      2.192682   236A      2.211339   237A      2.240337  
     238A      2.244724   239A      2.253290   240A      2.292265  
     241A      2.295002   242A      2.308733   243A      2.331378  
     244A      2.347592   245A      2.355330   246A      2.363057  
     247A      2.372491   248A      2.386794   249A      2.402228  
     250A      2.420629   251A      2.435728   252A      2.439182  
     253A      2.451924   254A      2.453179   255A      2.463725  
     256A      2.476909   257A      2.490815   258A      2.495366  
     259A      2.523722   260A      2.529650   261A      2.540497  
     262A      2.549058   263A      2.573317   264A      2.588183  
     265A      2.600500   266A      2.607620   267A      2.623890  
     268A      2.638889   269A      2.649753   270A      2.686985  
     271A      2.732252   272A      2.766003   273A      2.795966  
     274A      2.821645   275A      2.840317   276A      2.850132  
     277A      2.879103   278A      2.889005   279A      2.906298  
     280A      2.909440   281A      2.929543   282A      2.974571  
     283A      2.986962   284A      2.993445   285A      3.014154  
     286A      3.036305   287A      3.048038   288A      3.071870  
     289A      3.080407   290A      3.085303   291A      3.095908  
     292A      3.106986   293A      3.118259   294A      3.129530  
     295A      3.144907   296A      3.147202   297A      3.180540  
     298A      3.214593   299A      3.297849   300A      3.339181  
     301A      3.393579   302A      3.431511   303A      3.483350  
     304A      3.546080   305A      3.636682   306A      3.681661  
     307A      3.784006   308A      3.822999   309A      4.400919  
     310A      4.507958   311A      4.513847   312A      4.517274  
     313A      4.532690   314A      4.555326   315A      4.574319  
     316A      4.590784   317A      4.615567   318A      4.646987  
     319A      4.735476   320A      4.751098   321A      4.786337  
     322A      4.831936   323A      4.836659   324A      4.854963  
     325A      5.020565   326A      5.115343   327A      5.141810  
     328A      5.228852  

    Final Occupation by Irrep:
              A 
    DOCC [    69 ]

  @DF-RHF Final Energy:  -835.64892622076150

   => Energetics <=

    Nuclear Repulsion Energy =           1414.3216345495029600
    One-Electron Energy =               -3945.0816171581518574
    Two-Electron Energy =                1695.1110563878874018
    Total Energy =                       -835.6489262207614956

Computation Completed


Properties will be evaluated at   0.000000,   0.000000,   0.000000 [a0]

Properties computed using the SCF density matrix

  Nuclear Dipole Moment: [e a0]
     X:     2.2135      Y:     4.3071      Z:    -6.3346

  Electronic Dipole Moment: [e a0]
     X:    -3.1344      Y:    -3.6408      Z:     5.7090

  Dipole Moment: [e a0]
     X:    -0.9210      Y:     0.6663      Z:    -0.6255     Total:     1.2975

  Dipole Moment: [D]
     X:    -2.3408      Y:     1.6936      Z:    -1.5900     Total:     3.2979


*** tstop() called on node74.bme.utexas.edu at Wed Jun  8 10:05:50 2022
Module time:
	user time   =     101.85 seconds =       1.70 minutes
	system time =       5.98 seconds =       0.10 minutes
	total time  =         56 seconds =       0.93 minutes
Total time:
	user time   =     101.85 seconds =       1.70 minutes
	system time =       5.98 seconds =       0.10 minutes
	total time  =         56 seconds =       0.93 minutes

*** tstart() called on node74.bme.utexas.edu
*** at Wed Jun  8 10:05:50 2022


  //>>>>>>>>>>>>>>>>>>>>>>>>>>>>>>>>>>>//
  //               DFMP2               //
  //<<<<<<<<<<<<<<<<<<<<<<<<<<<<<<<<<<<//

   => Loading Basis Set <=

    Name: (6-31G* AUX)
    Role: RIFIT
    Keyword: DF_BASIS_MP2
    atoms 1, 3-4, 6-7, 9-20 entry C          line   159 file /home/bdw2292/miniconda3/envs/newamoebamdpoltype/share/psi4/basis/cc-pvdz-ri.gbs 
    atoms 2, 8              entry N          line   197 file /home/bdw2292/miniconda3/envs/newamoebamdpoltype/share/psi4/basis/cc-pvdz-ri.gbs 
    atoms 5, 21-23, 25-34   entry H          line    19 file /home/bdw2292/miniconda3/envs/newamoebamdpoltype/share/psi4/basis/cc-pvdz-ri.gbs 
    atoms 24                entry O          line   235 file /home/bdw2292/miniconda3/envs/newamoebamdpoltype/share/psi4/basis/cc-pvdz-ri.gbs 

	 --------------------------------------------------------
	                          DF-MP2                         
	      2nd-Order Density-Fitted Moller-Plesset Theory     
	              RMP2 Wavefunction,   2 Threads             
	                                                         
	        Rob Parrish, Justin Turney, Andy Simmonett,      
	           Ed Hohenstein, and C. David Sherrill          
	 --------------------------------------------------------

   => Auxiliary Basis Set <=

  Basis Set: (6-31G* AUX)
    Blend: CC-PVDZ-RI
    Number of shells: 444
    Number of basis functions: 1316
    Number of Cartesian functions: 1530
    Spherical Harmonics?: true
    Max angular momentum: 3

	 --------------------------------------------------------
	                 NBF =   328, NAUX =  1316
	 --------------------------------------------------------
	   CLASS    FOCC     OCC    AOCC    AVIR     VIR    FVIR
	   PAIRS       0      69      69     259     259       0
	 --------------------------------------------------------

  DFHelper Memory: AOs need 1.272 GiB; user supplied 5.704 GiB. Using in-core AOs.


         ------------------------------------------------------------
                                     CPHF                           
                                  Rob Parrish                       
         ------------------------------------------------------------

  ==> Geometry <==

    Molecular point group: c1
    Full point group: C1

    Geometry (in Angstrom), charge = 0, multiplicity = 1:

       Center              X                  Y                   Z               Mass       
    ------------   -----------------  -----------------  -----------------  -----------------
         C           -0.591424538090    -0.147454763716     0.382173120110    12.000000000000
         N            0.685175461910    -0.673654763716     0.570173120110    14.003074004430
         C            1.954275461910    -0.439154763716     0.015073120110    12.000000000000
         C            2.928875461910    -1.433054763716     0.180373120110    12.000000000000
         H            0.715575461910    -1.364454763716     1.328673120110     1.007825032230
         C            2.317775461910     0.668445236284    -0.742726879890    12.000000000000
         C           -1.653024538090    -0.509154763716     1.145073120110    12.000000000000
         N           -2.709324538090    -1.580354763716     2.895773120110    14.003074004430
         C           -3.091524538090    -0.168854763716     1.122373120110    12.000000000000
         C           -1.465424538090    -1.458054763716     2.309673120110    12.000000000000
         C           -3.664324538090    -0.840054763716     2.211073120110    12.000000000000
         C           -0.821424538090     0.782145236284    -0.740526879890    12.000000000000
         C           -0.946724538090     2.161945236284    -0.509726879890    12.000000000000
         C           -0.938524538090     0.291345236284    -2.048426879890    12.000000000000
         C           -1.192124538090     3.033345236284    -1.572226879890    12.000000000000
         C           -1.183324538090     1.166245236284    -3.108126879890    12.000000000000
         C           -1.312324538090     2.534345236284    -2.868926879890    12.000000000000
         C            4.214475461910    -1.316654763716    -0.372326879890    12.000000000000
         C            3.603575461910     0.789845236284    -1.299626879890    12.000000000000
         C            4.583775461910    -0.197754763716    -1.122226879890    12.000000000000
         H            2.691675461910    -2.336454763716     0.740273120110     1.007825032230
         H            1.632275461910     1.490945236284    -0.902326879890     1.007825032230
         H           -2.878624538090    -2.164254763716     3.700873120110     1.007825032230
         O           -0.434024538090    -2.005654763716     2.657573120110    15.994914619570
         H           -0.856724538090     2.558645236284     0.498973120110     1.007825032230
         H           -0.838524538090    -0.774154763716    -2.242326879890     1.007825032230
         H           -1.299624538090     4.099245236284    -1.388126879890     1.007825032230
         H           -1.280324538090     0.779545236284    -4.119326879890     1.007825032230
         H           -1.514624538090     3.212445236284    -3.694526879890     1.007825032230
         H            4.887675461910    -2.154854763716    -0.222326879890     1.007825032230
         H            3.806775461910     1.705245236284    -1.847426879890     1.007825032230
         H           -3.575324538090     0.439145236284     0.443173120110     1.007825032230
         H           -4.662224538090    -0.790854763716     2.469473120110     1.007825032230
         H            5.529075461910    -0.102454763716    -1.525026879890     1.007825032230

  Nuclear repulsion = 1414.321634549502960
  Reference energy  = -835.648926220761496

  ==> Basis Set <==

  Basis Set: 6-31G*
    Blend: 6-31G*
    Number of shells: 148
    Number of basis functions: 328
    Number of Cartesian functions: 328
    Spherical Harmonics?: false
    Max angular momentum: 2

  ==> CGRSolver (by Rob Parrish) <==

   Number of roots    =         1
   Preconditioning    =    JACOBI
   Convergence cutoff =     1E-06
   Maximum iterations =       100

  ==> CPHFRHamiltonian (by Rob Parrish) <== 

  ==> MemDFJK: Density-Fitted J/K Matrices <==

    J tasked:                   Yes
    K tasked:                   Yes
    wK tasked:                   No
    OpenMP threads:               2
    Memory [MiB]:              5841
    Algorithm:                 Core
    Schwarz Cutoff:           1E-12
    Mask sparsity (%):      22.8807
    Fitting Condition:        1E-10

   => Auxiliary Basis Set <=

  Basis Set: (6-31G* AUX)
    Blend: CC-PVDZ-JKFIT
    Number of shells: 606
    Number of basis functions: 1970
    Number of Cartesian functions: 1970
    Spherical Harmonics?: false
    Max angular momentum: 3

  ==> CPHF Iterations <==

  => Iterations <=

             Iter  Converged  Remaining    Residual
  CGR           1          0          1   1.414E-01
  CGR           2          0          1   4.470E-02
  CGR           3          0          1   2.031E-02
  CGR           4          0          1   5.993E-03
  CGR           5          0          1   3.005E-03
  CGR           6          0          1   1.507E-03
  CGR           7          0          1   5.887E-04
  CGR           8          0          1   2.010E-04
  CGR           9          0          1   6.198E-05
  CGR          10          0          1   2.745E-05
  CGR          11          0          1   1.023E-05
  CGR          12          0          1   4.016E-06
  CGR          13          0          1   1.539E-06
  CGR          14          1          0   5.274E-07

    CGRSolver converged.

  ==> DFCorrGrad: Density-Fitted Correlated Gradients <==

    OpenMP threads:              2
    Integrals threads:           2
    Memory [GiB]:            5.704
    Schwarz Cutoff:          0E+00
    Fitting Condition:       1E-10

   => Auxiliary Basis Set <=

  Basis Set: (6-31G* AUX)
    Blend: CC-PVDZ-JKFIT
    Number of shells: 606
    Number of basis functions: 1970
    Number of Cartesian functions: 1970
    Spherical Harmonics?: false
    Max angular momentum: 3

	-----------------------------------------------------------
	 ==================> DF-MP2 Energies <==================== 
	-----------------------------------------------------------
	 Reference Energy          =    -835.6489262207614956 [Eh]
	 Singles Energy            =      -0.0000000000000000 [Eh]
	 Same-Spin Energy          =      -0.7483340252363180 [Eh]
	 Opposite-Spin Energy      =      -2.0032836313881210 [Eh]
	 Correlation Energy        =      -2.7516176566244388 [Eh]
	 Total Energy              =    -838.4005438773859851 [Eh]
	-----------------------------------------------------------
	 ================> DF-SCS-MP2 Energies <================== 
	-----------------------------------------------------------
	 SCS Same-Spin Scale       =       0.3333333333333333 [-]
	 SCS Opposite-Spin Scale   =       1.2000000000000000 [-]
	 SCS Same-Spin Energy      =      -0.2494446750787727 [Eh]
	 SCS Opposite-Spin Energy  =      -2.4039403576657450 [Eh]
	 SCS Correlation Energy    =      -2.6533850327445174 [Eh]
	 SCS Total Energy          =    -838.3023112535059909 [Eh]
	-----------------------------------------------------------


  -Total Gradient:
     Atom            X                  Y                   Z
    ------   -----------------  -----------------  -----------------
       1       -0.033531901505    -0.005053861209     0.019085702364
       2        0.014748478927     0.001511483952    -0.009528970503
       3        0.002648059963     0.001287242129     0.009778024685
       4       -0.008243671582     0.006275135605     0.000109668872
       5        0.005974183098    -0.000642476992    -0.000648659343
       6       -0.007513731683    -0.015028477659     0.009945030226
       7        0.028678611803     0.022393827978    -0.037677321717
       8        0.001169819656    -0.002820054955     0.002644730549
       9       -0.035231839632     0.046393076160    -0.054621900535
      10        0.026488688471    -0.029947835998     0.029660662154
      11       -0.048196022068    -0.024607727946     0.049581354344
      12       -0.002472325935    -0.006578759045     0.005911696472
      13        0.001939020690     0.000454179726     0.000505820985
      14       -0.000772104331    -0.000641289638     0.001474691384
      15       -0.000040579726     0.002235728089    -0.000579418194
      16       -0.000296727499     0.000500545527    -0.002485701561
      17        0.000513458280    -0.001224567556     0.001979305490
      18        0.010744330628     0.001723215127    -0.004634418180
      19        0.004815090555     0.003227552358    -0.007242949544
      20        0.052607455644     0.001044547354    -0.019039900862
      21        0.001664461843    -0.000489429508    -0.000254217063
      22        0.003001135285     0.000416092881    -0.000877496174
      23        0.000010620033     0.001693072230    -0.001858246161
      24       -0.029474136380     0.020754986561    -0.016914223969
      25       -0.000108161351     0.002041808555    -0.001035887185
      26       -0.000173733092     0.000448357584    -0.001772311772
      27       -0.000399905328     0.000016203225    -0.000442798907
      28       -0.000095256083     0.000302443972    -0.000101854984
      29       -0.000395562020     0.000029917362    -0.000025449004
      30       -0.003884478585    -0.001408726967     0.000035587947
      31       -0.003421964015     0.000750287088     0.001957108451
      32        0.020335572164    -0.024560512275     0.025992410071
      33        0.039052819911     0.003455606391    -0.016645314398
      34       -0.040139706120    -0.003951590097     0.017725246062


*** tstop() called on node74.bme.utexas.edu at Wed Jun  8 10:09:38 2022
Module time:
	user time   =     401.23 seconds =       6.69 minutes
	system time =      31.48 seconds =       0.52 minutes
	total time  =        228 seconds =       3.80 minutes
Total time:
	user time   =     503.08 seconds =       8.38 minutes
	system time =      37.46 seconds =       0.62 minutes
	total time  =        284 seconds =       4.73 minutes

			-----------------------------------------
			 OPTKING 2.0: for geometry optimizations 
			  - R.A. King,  Bethel University        
			-----------------------------------------
	At level 1: Red. Int., RFO, no backsteps, dynamic trust

	Internal coordinates to be generated automatically.
	Detected frag 1 with atoms:  1 2 3 4 5 6 7 8 9 10 11 12 13 14 15 16 17 18 19 20
	 21 22 23 24 25 26 27 28 29 30 31 32 33 34
	---Fragment 1 Bond Connectivity---
	 1 : 2 7 12
	 2 : 1 3 5
	 3 : 2 4 6
	 4 : 3 18 21
	 5 : 2
	 6 : 3 19 22
	 7 : 1 9 10
	 8 : 10 11 23
	 9 : 7 11 32
	 10 : 7 8 24
	 11 : 8 9 33
	 12 : 1 13 14
	 13 : 12 15 25
	 14 : 12 16 26
	 15 : 13 17 27
	 16 : 14 17 28
	 17 : 15 16 29
	 18 : 4 20 30
	 19 : 6 20 31
	 20 : 18 19 34
	 21 : 4
	 22 : 6
	 23 : 8
	 24 : 10
	 25 : 13
	 26 : 14
	 27 : 15
	 28 : 16
	 29 : 17
	 30 : 18
	 31 : 19
	 32 : 9
	 33 : 11
	 34 : 20

	---Fragment 1 Geometry and Gradient---
	 C          -1.1176304009       -0.2786491193        0.7222025295
	 N           1.2947939709       -1.2730230065        1.0774710411
	 C           3.6930453967       -0.8298822301        0.0284840689
	 C           5.5347724786       -2.7080810262        0.3408557974
	 H           1.3522416451       -2.5784458140        2.5108283073
	 C           4.3799608433        1.2631784264       -1.4035503890
	 C          -3.1237636557       -0.9621630589        2.1638745906
	 N          -5.1198813620       -2.9864376845        5.4722181185
	 C          -5.8421346871       -0.3190892584        2.1209778076
	 C          -2.7692510345       -2.7553241793        4.3646496363
	 C          -6.9245698118       -1.5874734338        4.1783226404
	 C          -1.5522674097        1.4780402869       -1.3993929915
	 C          -1.7890500932        4.0854843948       -0.9632442018
	 C          -1.7735543390        0.5505627045       -3.8709657910
	 C          -2.2527888844        5.7321917405       -2.9710782101
	 C          -2.2361592945        2.2038840917       -5.8735085662
	 C          -2.4799339647        4.7892184039       -5.4214860770
	 C           7.9642043855       -2.4881169052       -0.7035958321
	 C           6.8097706954        1.4925911781       -2.4559388683
	 C           8.6620802436       -0.3737023434       -2.1207014536
	 H           5.0865294416       -4.4152596079        1.3989134550
	 H           3.0845535843        2.8174781646       -1.7051506786
	 H          -5.4398119950       -4.0898487691        6.9936366221
	 O          -0.8201875087       -3.7901382056        5.0220853554
	 H          -1.6189747419        4.8351387488        0.9429225410
	 H          -1.5845817265       -1.4629404821       -4.2373836867
	 H          -2.4559344429        7.7464508177       -2.6231796304
	 H          -2.4194627287        1.4731269990       -7.7843996242
	 H          -2.8622255599        6.0706416896       -6.9816439661
	 H           9.2363680131       -4.0720853436       -0.4201369133
	 H           7.1937630441        3.2224464733       -3.4911308398
	 H          -6.7563841866        0.8298642259        0.8374758232
	 H          -8.8103275124       -1.4944989084        4.6666278712
	 H          10.4484383500       -0.1936114437       -2.8818831370
	            -0.0335319015       -0.0050538612        0.0190857024
	             0.0147484789        0.0015114840       -0.0095289705
	             0.0026480600        0.0012872421        0.0097780247
	            -0.0082436716        0.0062751356        0.0001096689
	             0.0059741831       -0.0006424770       -0.0006486593
	            -0.0075137317       -0.0150284777        0.0099450302
	             0.0286786118        0.0223938280       -0.0376773217
	             0.0011698197       -0.0028200550        0.0026447305
	            -0.0352318396        0.0463930762       -0.0546219005
	             0.0264886885       -0.0299478360        0.0296606622
	            -0.0481960221       -0.0246077279        0.0495813543
	            -0.0024723259       -0.0065787590        0.0059116965
	             0.0019390207        0.0004541797        0.0005058210
	            -0.0007721043       -0.0006412896        0.0014746914
	            -0.0000405797        0.0022357281       -0.0005794182
	            -0.0002967275        0.0005005455       -0.0024857016
	             0.0005134583       -0.0012245676        0.0019793055
	             0.0107443306        0.0017232151       -0.0046344182
	             0.0048150906        0.0032275524       -0.0072429495
	             0.0526074556        0.0010445474       -0.0190399009
	             0.0016644618       -0.0004894295       -0.0002542171
	             0.0030011353        0.0004160929       -0.0008774962
	             0.0000106200        0.0016930722       -0.0018582462
	            -0.0294741364        0.0207549866       -0.0169142240
	            -0.0001081614        0.0020418086       -0.0010358872
	            -0.0001737331        0.0004483576       -0.0017723118
	            -0.0003999053        0.0000162032       -0.0004427989
	            -0.0000952561        0.0003024440       -0.0001018550
	            -0.0003955620        0.0000299174       -0.0000254490
	            -0.0038844786       -0.0014087270        0.0000355879
	            -0.0034219640        0.0007502871        0.0019571085
	             0.0203355722       -0.0245605123        0.0259924101
	             0.0390528199        0.0034556064       -0.0166453144
	            -0.0401397061       -0.0039515901        0.0177252461

	Previous optimization step data not found.  Starting new optimization.

	---Fragment 1 Intrafragment Coordinates---
	 - Coordinate -           - BOHR/RAD -       - ANG/DEG -
	 H(5,24)          =         3.534694	       1.870479
	 R(1,2)           =         2.633398	       1.393534
	 R(1,7)           =         2.563236	       1.356406
	 R(1,12)          =         2.788554	       1.475639
	 R(2,3)           =         2.654874	       1.404899
	 R(2,5)           =         1.939573	       1.026378
	 R(3,4)           =         2.648993	       1.401787
	 R(3,6)           =         2.627447	       1.390385
	 R(4,18)          =         2.653564	       1.404206
	 R(4,21)          =         2.057879	       1.088983
	 R(6,19)          =         2.657843	       1.406470
	 R(6,22)          =         2.045700	       1.082538
	 R(7,9)           =         2.793730	       1.478378
	 R(7,10)          =         2.860859	       1.513902
	 R(8,10)          =         2.608751	       1.380492
	 R(8,11)          =         2.624532	       1.388842
	 R(8,23)          =         1.906459	       1.008855
	 R(9,11)          =         2.648232	       1.401384
	 R(9,32)          =         1.950211	       1.032007
	 R(10,24)         =         2.302588	       1.218477
	 R(11,33)         =         1.950171	       1.031986
	 R(12,13)         =         2.654253	       1.404570
	 R(12,14)         =         2.649123	       1.401856
	 R(13,15)         =         2.637820	       1.395874
	 R(13,25)         =         2.055329	       1.087633
	 R(14,16)         =         2.637736	       1.395830
	 R(14,26)         =         2.055278	       1.087606
	 R(15,17)         =         2.635392	       1.394590
	 R(15,27)         =         2.054152	       1.087011
	 R(16,17)         =         2.635850	       1.394832
	 R(16,28)         =         2.054047	       1.086955
	 R(17,29)         =         2.054820	       1.087364
	 R(18,20)         =         2.639312	       1.396664
	 R(18,30)         =         2.051269	       1.085485
	 R(19,20)         =         2.650752	       1.402718
	 R(19,31)         =         2.052187	       1.085971
	 R(20,34)         =         1.950104	       1.031951
	 B(1,2,3)         =         2.362008	     135.333085
	 B(1,2,5)         =         1.961647	     112.394086
	 B(1,7,9)         =         2.334398	     133.751153
	 B(1,7,10)        =         2.097660	     120.187092
	 B(1,12,13)       =         2.103356	     120.513421
	 B(1,12,14)       =         2.097047	     120.151966
	 B(2,1,7)         =         2.141724	     122.711718
	 B(2,1,12)        =         2.075219	     118.901318
	 B(2,3,4)         =         2.052299	     117.588066
	 B(2,3,6)         =         2.195042	     125.766641
	 B(3,2,5)         =         1.957979	     112.183916
	 B(3,4,18)        =         2.130982	     122.096257
	 B(3,4,21)        =         2.091376	     119.826996
	 B(3,6,19)        =         2.121838	     121.572386
	 B(3,6,22)        =         2.117718	     121.336321
	 B(4,3,6)         =         2.034565	     116.571986
	 B(4,18,20)       =         2.117442	     121.320490
	 B(4,18,30)       =         2.036889	     116.705159
	 B(6,19,20)       =         2.127023	     121.869461
	 B(6,19,31)       =         2.030354	     116.330705
	 B(7,1,12)        =         2.064530	     118.288853
	 B(7,9,11)        =         1.849944	     105.993996
	 B(7,9,32)        =         2.216633	     127.003724
	 B(7,10,8)        =         1.844679	     105.692346
	 B(7,10,24)       =         2.222100	     127.316930
	 B(8,10,24)       =         2.216398	     126.990244
	 B(8,11,9)        =         1.936108	     110.930840
	 B(8,11,33)       =         2.173511	     124.532983
	 B(9,7,10)        =         1.851118	     106.061276
	 B(9,11,33)       =         2.173566	     124.536177
	 B(10,8,11)       =         1.942343	     111.288030
	 B(10,8,23)       =         2.142775	     122.771954
	 B(11,8,23)       =         2.197583	     125.912208
	 B(11,9,32)       =         2.216608	     127.002280
	 B(12,13,15)      =         2.098865	     120.256104
	 B(12,13,25)      =         2.098231	     120.219770
	 B(12,14,16)      =         2.098454	     120.232578
	 B(12,14,26)      =         2.096294	     120.108787
	 B(13,12,14)      =         2.082644	     119.326708
	 B(13,15,17)      =         2.093847	     119.968613
	 B(13,15,27)      =         2.095106	     120.040752
	 B(14,16,17)      =         2.095330	     120.053562
	 B(14,16,28)      =         2.093169	     119.929741
	 B(15,13,25)      =         2.086083	     119.523767
	 B(15,17,16)      =         2.097210	     120.161276
	 B(15,17,29)      =         2.093091	     119.925289
	 B(16,14,26)      =         2.088437	     119.658631
	 B(16,17,29)      =         2.092856	     119.911794
	 B(17,15,27)      =         2.094181	     119.987708
	 B(17,16,28)      =         2.094662	     120.015303
	 B(18,4,21)       =         2.060720	     118.070538
	 B(18,20,19)      =         2.034400	     116.562527
	 B(18,20,34)      =         2.124420	     121.720289
	 B(19,6,22)       =         2.043109	     117.061541
	 B(19,20,34)      =         2.124366	     121.717184
	 B(20,18,30)      =         2.128016	     121.926328
	 B(20,19,31)      =         2.125297	     121.770576
	 D(1,2,3,4)       =        -2.820363	    -161.594903
	 D(1,2,3,6)       =         0.264818	      15.172982
	 D(1,7,9,11)      =        -3.109308	    -178.150224
	 D(1,7,9,32)      =         0.032256	       1.848106
	 D(1,7,10,8)      =         3.105567	     177.935878
	 D(1,7,10,24)     =        -0.040209	      -2.303817
	 D(1,12,13,15)    =        -3.118121	    -178.655148
	 D(1,12,13,25)    =         0.019648	       1.125740
	 D(1,12,14,16)    =         3.118699	     178.688270
	 D(1,12,14,26)    =        -0.023318	      -1.335995
	 D(2,1,7,9)       =        -3.080632	    -176.507234
	 D(2,1,7,10)      =         0.066034	       3.783479
	 D(2,1,12,13)     =        -1.818757	    -104.207117
	 D(2,1,12,14)     =         1.340806	      76.822552
	 D(2,3,4,18)      =         3.104679	     177.885020
	 D(2,3,4,21)      =        -0.020782	      -1.190743
	 D(2,3,6,19)      =        -3.098917	    -177.554854
	 D(2,3,6,22)      =         0.078325	       4.487700
	 D(3,2,1,7)       =        -3.057488	    -175.181141
	 D(3,2,1,12)      =         0.148086	       8.484701
	 D(3,4,18,20)     =        -0.003526	      -0.202020
	 D(3,4,18,30)     =        -3.101943	    -177.728264
	 D(3,6,19,20)     =         0.001574	       0.090181
	 D(3,6,19,31)     =        -3.106245	    -177.974736
	 D(4,3,2,5)       =         0.387627	      22.209371
	 D(4,3,6,19)      =        -0.013225	      -0.757763
	 D(4,3,6,22)      =        -3.119169	    -178.715209
	 D(4,18,20,19)    =        -0.008388	      -0.480605
	 D(4,18,20,34)    =         3.133159	     179.516777
	 D(5,2,1,7)       =         0.017608	       1.008852
	 D(5,2,1,12)      =        -3.060004	    -175.325306
	 D(5,2,3,6)       =        -2.810377	    -161.022744
	 D(6,3,4,18)      =         0.014260	       0.817023
	 D(6,3,4,21)      =        -3.111202	    -178.258740
	 D(6,19,20,18)    =         0.009393	       0.538154
	 D(6,19,20,34)    =        -3.132154	    -179.459228
	 D(7,1,12,13)     =         1.383967	      79.295453
	 D(7,1,12,14)     =        -1.739655	     -99.674877
	 D(7,9,11,8)      =        -0.013620	      -0.780396
	 D(7,9,11,33)     =         3.127979	     179.219995
	 D(7,10,8,11)     =         0.025027	       1.433970
	 D(7,10,8,23)     =         3.134944	     179.619066
	 D(8,10,7,9)      =        -0.032212	      -1.845595
	 D(8,11,9,32)     =         3.128001	     179.221274
	 D(9,7,1,12)      =        -0.002649	      -0.151749
	 D(9,7,10,24)     =         3.105197	     177.914709
	 D(9,11,8,10)     =        -0.007791	      -0.446411
	 D(9,11,8,23)     =        -3.116498	    -178.562206
	 D(10,7,1,12)     =        -3.139167	    -179.861035
	 D(10,7,9,11)     =         0.027721	       1.588280
	 D(10,7,9,32)     =        -3.113901	    -178.413390
	 D(10,8,11,33)    =         3.133794	     179.553199
	 D(11,8,10,24)    =        -3.112400	    -178.327368
	 D(12,13,15,17)   =        -0.001172	      -0.067129
	 D(12,13,15,27)   =         3.129557	     179.310409
	 D(12,14,16,17)   =         0.000152	       0.008710
	 D(12,14,16,28)   =        -3.133945	    -179.561839
	 D(13,12,14,16)   =        -0.005136	      -0.294263
	 D(13,12,14,26)   =         3.136033	     179.681472
	 D(13,15,17,16)   =        -0.003876	      -0.222070
	 D(13,15,17,29)   =         3.129578	     179.311589
	 D(14,12,13,15)   =         0.005648	       0.323622
	 D(14,12,13,25)   =        -3.139769	    -179.895490
	 D(14,16,17,15)   =         0.004390	       0.251542
	 D(14,16,17,29)   =        -3.129064	    -179.282181
	 D(15,17,16,28)   =         3.138481	     179.821721
	 D(16,17,15,27)   =        -3.134610	    -179.599941
	 D(17,15,13,25)   =        -3.138967	    -179.849539
	 D(17,16,14,26)   =        -3.141019	    -179.967134
	 D(18,20,19,31)   =         3.115380	     178.498130
	 D(19,20,18,30)   =         3.087759	     176.915552
	 D(20,18,4,21)    =         3.122207	     178.889286
	 D(20,19,6,22)    =         3.108975	     178.131124
	 D(21,4,18,30)    =         0.023790	       1.363042
	 D(22,6,19,31)    =         0.001156	       0.066208
	 D(23,8,10,24)    =        -0.002483	      -0.142272
	 D(23,8,11,33)    =         0.025087	       1.437403
	 D(25,13,15,27)   =        -0.008238	      -0.472002
	 D(26,14,16,28)   =         0.008069	       0.462317
	 D(27,15,17,29)   =        -0.001157	      -0.066282
	 D(28,16,17,29)   =         0.005027	       0.287998
	 D(30,18,20,34)   =        -0.053879	      -3.087066
	 D(31,19,20,34)   =        -0.026167	      -1.499252
	 D(32,9,11,33)    =        -0.013585	      -0.778335
	 R(2,24)          =         5.135075	       2.717365
	 R(3,14)          =         6.855294	       3.627665
	 R(6,12)          =         5.936120	       3.141259
	 R(6,13)          =         6.798233	       3.597470
	 R(6,14)          =         6.667961	       3.528533
	 R(9,13)          =         6.733512	       3.563221

	Current energy   :      -838.4005438774

	Generating empirical Hessian (Schlegel '84) for each fragment.
	Taking RFO optimization step.
	Going to follow RFO solution 1.
	Using RFO vector 1.
	Norm of target step-size    0.30750
	Projected energy change by RFO approximation:        -0.0236655253

	Back-transformation to cartesian coordinates...
	Could not converge backtransformation.
	Using first guess instead.

	--- Internal Coordinate Step in ANG or DEG, aJ/ANG or AJ/DEG ---
	 ---------------------------------------------------------------------------
	   Coordinate                Previous        Force       Change         New 
	   ----------                --------       ------       ------       ------
	    1 H(5,24)         =      1.870479    -0.060135    -0.010226     1.860253
	    2 R(1,2)          =      1.393534    -0.189804    -0.027924     1.365611
	    3 R(1,7)          =      1.356406     0.145113     0.017595     1.374001
	    4 R(1,12)         =      1.475639     0.066656     0.010087     1.485726
	    5 R(2,3)          =      1.404899    -0.009428    -0.003075     1.401824
	    6 R(2,5)          =      1.026378    -0.045424    -0.000924     1.025453
	    7 R(3,4)          =      1.401787     0.007750     0.001844     1.403631
	    8 R(3,6)          =      1.390385     0.092328     0.012097     1.402482
	    9 R(4,18)         =      1.404206    -0.100456    -0.013309     1.390896
	   10 R(4,21)         =      1.088983     0.000719     0.000391     1.089373
	   11 R(6,19)         =      1.406470    -0.093174    -0.012143     1.394327
	   12 R(6,22)         =      1.082538     0.011987     0.002061     1.084599
	   13 R(7,9)          =      1.478378    -0.169100    -0.030400     1.447978
	   14 R(7,10)         =      1.513902    -0.172201    -0.028138     1.485764
	   15 R(8,10)         =      1.380492    -0.015102    -0.000069     1.380423
	   16 R(8,11)         =      1.388842    -0.004166    -0.000106     1.388736
	   17 R(8,23)         =      1.008855     0.020305     0.002837     1.011691
	   18 R(9,11)         =      1.401384    -0.307745    -0.041722     1.359662
	   19 R(9,32)         =      1.032007     0.338689     0.048181     1.080189
	   20 R(10,24)        =      1.218477     0.305114     0.021341     1.239818
	   21 R(11,33)        =      1.031986     0.344098     0.048913     1.080899
	   22 R(12,13)        =      1.404570    -0.017000    -0.002593     1.401977
	   23 R(12,14)        =      1.401856    -0.010036    -0.001298     1.400557
	   24 R(13,15)        =      1.395874    -0.008629    -0.001067     1.394808
	   25 R(13,25)        =      1.087633     0.001853     0.000422     1.088056
	   26 R(14,16)        =      1.395830    -0.012330    -0.001565     1.394265
	   27 R(14,26)        =      1.087606     0.001147     0.000256     1.087862
	   28 R(15,17)        =      1.394590     0.007507     0.001163     1.395753
	   29 R(15,27)        =      1.087011     0.000161     0.000046     1.087056
	   30 R(16,17)        =      1.394832     0.004520     0.000759     1.395591
	   31 R(16,28)        =      1.086955     0.000036     0.000014     1.086969
	   32 R(17,29)        =      1.087364    -0.000919    -0.000147     1.087217
	   33 R(18,20)        =      1.396664    -0.004305    -0.001016     1.395648
	   34 R(18,30)        =      1.085485     0.010845     0.002385     1.087869
	   35 R(19,20)        =      1.402718    -0.056364    -0.007456     1.395262
	   36 R(19,31)        =      1.085971     0.008198     0.002285     1.088256
	   37 R(20,34)        =      1.031951     0.362939     0.051502     1.083453
	   38 B(1,2,3)        =    135.333085    -0.000445    -1.707626   133.625459
	   39 B(1,2,5)        =    112.394086     0.000137    -0.631823   111.762262
	   40 B(1,7,9)        =    133.751153    -0.000900    -2.673627   131.077526
	   41 B(1,7,10)       =    120.187092     0.000498     1.632323   121.819416
	   42 B(1,12,13)      =    120.513421    -0.000002     0.015700   120.529121
	   43 B(1,12,14)      =    120.151966    -0.000049    -0.163132   119.988834
	   44 B(2,1,7)        =    122.711718    -0.001089    -2.962042   119.749676
	   45 B(2,1,12)       =    118.901318     0.000731     1.643527   120.544845
	   46 B(2,3,4)        =    117.588066    -0.000735    -1.828739   115.759327
	   47 B(2,3,6)        =    125.766641     0.000248     0.167679   125.934320
	   48 B(3,2,5)        =    112.183916     0.000310     2.339514   114.523429
	   49 B(3,4,18)       =    122.096257    -0.000408    -1.181613   120.914644
	   50 B(3,4,21)       =    119.826996     0.000067     0.051278   119.878275
	   51 B(3,6,19)       =    121.572386    -0.000470    -1.293739   120.278648
	   52 B(3,6,22)       =    121.336321     0.000021    -0.207683   121.128638
	   53 B(4,3,6)        =    116.571986     0.000494     1.730764   118.302750
	   54 B(4,18,20)      =    121.320490    -0.000121    -0.512005   120.808485
	   55 B(4,18,30)      =    116.705159     0.000327     1.342022   118.047182
	   56 B(6,19,20)      =    121.869461    -0.000158    -0.546274   121.323188
	   57 B(6,19,31)      =    116.330705     0.000375     1.446645   117.777350
	   58 B(7,1,12)       =    118.288853     0.000358     1.315884   119.604737
	   59 B(7,9,11)       =    105.993996     0.000528     1.114095   107.108091
	   60 B(7,9,32)       =    127.003724    -0.000162    -0.083142   126.920582
	   61 B(7,10,8)       =    105.692346    -0.000641    -1.427085   104.265261
	   62 B(7,10,24)      =    127.316930     0.000765     2.206341   129.523270
	   63 B(8,10,24)      =    126.990244    -0.000124    -0.781125   126.209119
	   64 B(8,11,9)       =    110.930840    -0.000199    -0.860831   110.070008
	   65 B(8,11,33)      =    124.532983    -0.000520    -2.009750   122.523233
	   66 B(9,7,10)       =    106.061276     0.000402     1.041531   107.102807
	   67 B(9,11,33)      =    124.536177     0.000718     2.870094   127.406271
	   68 B(10,8,11)      =    111.288030    -0.000089     0.151666   111.439696
	   69 B(10,8,23)      =    122.771954     0.000011    -0.215812   122.556141
	   70 B(11,8,23)      =    125.912208     0.000078     0.059843   125.972051
	   71 B(11,9,32)      =    127.002280    -0.000366    -1.032730   125.969550
	   72 B(12,13,15)     =    120.256104    -0.000013    -0.080697   120.175408
	   73 B(12,13,25)     =    120.219770    -0.000171    -0.666709   119.553061
	   74 B(12,14,16)     =    120.232578     0.000001    -0.050278   120.182300
	   75 B(12,14,26)     =    120.108787    -0.000143    -0.547249   119.561538
	   76 B(13,12,14)     =    119.326708     0.000051     0.137737   119.464445
	   77 B(13,15,17)     =    119.968613     0.000037     0.139880   120.108492
	   78 B(13,15,27)     =    120.040752    -0.000057    -0.222321   119.818431
	   79 B(14,16,17)     =    120.053562     0.000030     0.111651   120.165213
	   80 B(14,16,28)     =    119.929741    -0.000041    -0.157091   119.772650
	   81 B(15,13,25)     =    119.523767     0.000184     0.747720   120.271486
	   82 B(15,17,16)     =    120.161276    -0.000106    -0.258353   119.902923
	   83 B(15,17,29)     =    119.925289     0.000054     0.131509   120.056798
	   84 B(16,14,26)     =    119.658631     0.000143     0.596926   120.255557
	   85 B(16,17,29)     =    119.911794     0.000052     0.127017   120.038812
	   86 B(17,15,27)     =    119.987708     0.000020     0.084280   120.071988
	   87 B(17,16,28)     =    120.015303     0.000011     0.046382   120.061685
	   88 B(18,4,21)      =    118.070538     0.000341     1.136425   119.206963
	   89 B(18,20,19)     =    116.562527     0.000664     1.806542   118.369068
	   90 B(18,20,34)     =    121.720289    -0.000320    -0.828890   120.891399
	   91 B(19,6,22)      =    117.061541     0.000449     1.503831   118.565372
	   92 B(19,20,34)     =    121.717184    -0.000344    -0.979213   120.737972
	   93 B(20,18,30)     =    121.926328    -0.000205    -0.811613   121.114715
	   94 B(20,19,31)     =    121.770576    -0.000215    -0.884114   120.886463
	   95 D(1,2,3,4)      =   -161.594903    -0.000016    -1.199659  -162.794563
	   96 D(1,2,3,6)      =     15.172982     0.000020     1.326380    16.499363
	   97 D(1,7,9,11)     =   -178.150224    -0.000008    -0.944600  -179.094824
	   98 D(1,7,9,32)     =      1.848106    -0.000005    -0.478482     1.369624
	   99 D(1,7,10,8)     =    177.935878     0.000009     0.763106   178.698984
	  100 D(1,7,10,24)    =     -2.303817     0.000006     0.463698    -1.840119
	  101 D(1,12,13,15)   =   -178.655148    -0.000007    -0.233507  -178.888655
	  102 D(1,12,13,25)   =      1.125740    -0.000003     0.062496     1.188235
	  103 D(1,12,14,16)   =    178.688270     0.000006     0.167969   178.856239
	  104 D(1,12,14,26)   =     -1.335995     0.000003    -0.089810    -1.425805
	  105 D(2,1,7,9)      =   -176.507234    -0.000003    -0.340860  -176.848094
	  106 D(2,1,7,10)     =      3.783479    -0.000003    -0.423976     3.359503
	  107 D(2,1,12,13)    =   -104.207117    -0.000016    -1.070968  -105.278085
	  108 D(2,1,12,14)    =     76.822552    -0.000016    -0.566468    76.256084
	  109 D(2,3,4,18)     =    177.885020     0.000030     1.992111   179.877131
	  110 D(2,3,4,21)     =     -1.190743     0.000018     1.193818     0.003075
	  111 D(2,3,6,19)     =   -177.554854    -0.000021    -1.858250  -179.413103
	  112 D(2,3,6,22)     =      4.487700    -0.000024    -1.971431     2.516269
	  113 D(3,2,1,7)      =   -175.181141    -0.000001     0.286416  -174.894725
	  114 D(3,2,1,12)     =      8.484701    -0.000003     0.284114     8.768815
	  115 D(3,4,18,20)    =     -0.202020    -0.000008    -0.511760    -0.713780
	  116 D(3,4,18,30)    =   -177.728264    -0.000015    -1.027693  -178.755957
	  117 D(3,6,19,20)    =      0.090181    -0.000001    -0.166171    -0.075991
	  118 D(3,6,19,31)    =   -177.974736    -0.000009    -0.800697  -178.775433
	  119 D(4,3,2,5)      =     22.209371    -0.000024    -1.214616    20.994755
	  120 D(4,3,6,19)     =     -0.757763     0.000007     0.622407    -0.135356
	  121 D(4,3,6,22)     =   -178.715209     0.000004     0.509225  -178.205984
	  122 D(4,18,20,19)   =     -0.480605     0.000013     0.967161     0.486556
	  123 D(4,18,20,34)   =    179.516777     0.000006     0.518501   180.035278
	  124 D(5,2,1,7)      =      1.008852     0.000009     0.384487     1.393339
	  125 D(5,2,1,12)     =   -175.325306     0.000006     0.382185  -174.943121
	  126 D(5,2,3,6)      =   -161.022744     0.000012     1.311424  -159.711320
	  127 D(6,3,4,18)     =      0.817023    -0.000002    -0.290570     0.526454
	  128 D(6,3,4,21)     =   -178.258740    -0.000014    -1.088862  -179.347602
	  129 D(6,19,20,18)   =      0.538154    -0.000009    -0.633472    -0.095317
	  130 D(6,19,20,34)   =   -179.459228    -0.000002    -0.185532  -179.644760
	  131 D(7,1,12,13)    =     79.295453    -0.000006    -0.915283    78.380171
	  132 D(7,1,12,14)    =    -99.674877    -0.000006    -0.410783  -100.085660
	  133 D(7,9,11,8)     =     -0.780396     0.000010     0.765277    -0.015119
	  134 D(7,9,11,33)    =    179.219995     0.000007     0.513732   179.733726
	  135 D(7,10,8,11)    =      1.433970    -0.000004    -0.268119     1.165850
	  136 D(7,10,8,23)    =    179.619066    -0.000006    -0.401410   179.217656
	  137 D(8,10,7,9)     =     -1.845595     0.000010     0.708311    -1.137285
	  138 D(8,11,9,32)    =    179.221274     0.000007     0.304817   179.526091
	  139 D(9,7,1,12)     =     -0.151749     0.000003    -0.325193    -0.476942
	  140 D(9,7,10,24)    =    177.914709     0.000006     0.408903   178.323612
	  141 D(9,11,8,10)    =     -0.446411    -0.000005    -0.323897    -0.770308
	  142 D(9,11,8,23)    =   -178.562206    -0.000003    -0.179085  -178.741291
	  143 D(10,7,1,12)    =   -179.861035     0.000002    -0.408310  -180.269345
	  144 D(10,7,9,11)    =      1.588280    -0.000008    -0.867664     0.720616
	  145 D(10,7,9,32)    =   -178.413390    -0.000004    -0.401545  -178.814935
	  146 D(10,8,11,33)   =    179.553199    -0.000002    -0.086895   179.466303
	  147 D(11,8,10,24)   =   -178.327368    -0.000001     0.008602  -178.318766
	  148 D(12,13,15,17)  =     -0.067129     0.000003     0.283061     0.215933
	  149 D(12,13,15,27)  =    179.310409     0.000007     0.526250   179.836660
	  150 D(12,14,16,17)  =      0.008710    -0.000001    -0.143070    -0.134360
	  151 D(12,14,16,28)  =   -179.561839    -0.000004    -0.328089  -179.889928
	  152 D(13,12,14,16)  =     -0.294263     0.000006     0.668298     0.374035
	  153 D(13,12,14,26)  =    179.681472     0.000003     0.410519   180.091991
	  154 D(13,15,17,16)  =     -0.222070     0.000003     0.248855     0.026785
	  155 D(13,15,17,29)  =    179.311589     0.000004     0.274728   179.586317
	  156 D(14,12,13,15)  =      0.323622    -0.000007    -0.738448    -0.414826
	  157 D(14,12,13,25)  =   -179.895490    -0.000003    -0.442445  -180.337935
	  158 D(14,16,17,15)  =      0.251542    -0.000004    -0.319227    -0.067686
	  159 D(14,16,17,29)  =   -179.282181    -0.000005    -0.345117  -179.627297
	  160 D(15,17,16,28)  =    179.821721    -0.000001    -0.134549   179.687172
	  161 D(16,17,15,27)  =   -179.599941    -0.000001     0.006967  -179.592974
	  162 D(17,15,13,25)  =   -179.849539    -0.000001    -0.011975  -179.861515
	  163 D(17,16,14,26)  =   -179.967134     0.000003     0.116790  -179.850344
	  164 D(18,20,19,31)  =    178.498130     0.000002     0.065707   178.563838
	  165 D(19,20,18,30)  =    176.915552     0.000023     1.552725   178.468276
	  166 D(20,18,4,21)   =    178.889286     0.000003     0.271823   179.161109
	  167 D(20,19,6,22)   =    178.131124    -0.000000    -0.087562   178.043562
	  168 D(21,4,18,30)   =      1.363042    -0.000004    -0.244110     1.118932
	  169 D(22,6,19,31)   =      0.066208    -0.000008    -0.722088    -0.655880
	  170 D(23,8,10,24)   =     -0.142272    -0.000003    -0.124688    -0.266960
	  171 D(23,8,11,33)   =      1.437403     0.000000     0.057917     1.495320
	  172 D(25,13,15,27)  =     -0.472002     0.000003     0.231214    -0.240787
	  173 D(26,14,16,28)  =      0.462317    -0.000001    -0.068229     0.394088
	  174 D(27,15,17,29)  =     -0.066282     0.000000     0.032839    -0.033442
	  175 D(28,16,17,29)  =      0.287998    -0.000002    -0.160438     0.127560
	  176 D(30,18,20,34)  =     -3.087066     0.000017     1.104065    -1.983001
	  177 D(31,19,20,34)  =     -1.499252     0.000009     0.513647    -0.985605
	  178 D(32,9,11,33)   =     -0.778335     0.000003     0.053272    -0.725063
	  179 R(2,24)         =      2.717365     0.079634     0.024881     2.742245
	  180 R(3,14)         =      3.627665    -0.018857    -0.016519     3.611146
	  181 R(6,12)         =      3.141259    -0.040959    -0.027665     3.113594
	  182 R(6,13)         =      3.597470    -0.010020    -0.017266     3.580204
	  183 R(6,14)         =      3.528533     0.005910    -0.012041     3.516492
	  184 R(9,13)         =      3.563221    -0.020954    -0.027814     3.535407
	 ---------------------------------------------------------------------------
	Successfully symmetrized geometry.

  ==> Convergence Check <==

  Measures of convergence in internal coordinates in au.
  Criteria marked as inactive (o), active & met (*), and active & unmet ( ).
  --------------------------------------------------------------------------------------------- ~
   Step     Total Energy     Delta E     MAX Force     RMS Force      MAX Disp      RMS Disp    ~
  --------------------------------------------------------------------------------------------- ~
    Convergence Criteria             o    4.50e-04 *    3.00e-04 *    1.80e-03 *    1.20e-03 *  ~
  --------------------------------------------------------------------------------------------- ~
      1    -838.40054388   -8.38e+02 o    4.41e-02      8.10e-03      9.73e-02      2.26e-02    ~
  ---------------------------------------------------------------------------------------------

	Writing optimization data to binary file.
	Structure for next step:
	Cartesian Geometry (in Angstrom)
	    C    -0.5656936424  -0.1461569852   0.3661093173
	    N     0.6741055961  -0.6849527033   0.5597322845
	    C     1.9322746729  -0.4460905545  -0.0104126337
	    C     2.8908639362  -1.4529472674   0.1833026362
	    H     0.6748930686  -1.3737701142   1.3193931991
	    C     2.2975643713   0.6856594980  -0.7538243623
	    C    -1.6097534958  -0.5308580136   1.1722250357
	    N    -2.6717663344  -1.5776984475   2.8751888844
	    C    -3.0123176585  -0.1718318192   1.1486944978
	    C    -1.4181148504  -1.4700298907   2.3074448466
	    C    -3.6086098772  -0.8202720718   2.1843791366
	    C    -0.8142353000   0.7911923478  -0.7594948513
	    C    -0.9540798006   2.1661008556  -0.5236784417
	    C    -0.9425638330   0.2995131665  -2.0646171631
	    C    -1.2102831693   3.0366222741  -1.5829426805
	    C    -1.1995317504   1.1729066779  -3.1206122978
	    C    -1.3330017232   2.5414780515  -2.8821337714
	    C     4.1740544865  -1.3278676666  -0.3385879541
	    C     3.5844177276   0.7965004949  -1.2790587858
	    C     4.5371095139  -0.2035547727  -1.0815170281
	    H     2.6314235323  -2.3479135618   0.7476257286
	    H     1.6025297491   1.5040387079  -0.9072439223
	    H    -2.8582427932  -2.1683388845   3.6751198742
	    O    -0.3907254629  -2.0524408041   2.6848254559
	    H    -0.8601483753   2.5489423238   0.4904589822
	    H    -0.8358415615  -0.7672533639  -2.2491786847
	    H    -1.3203094282   4.1013075174  -1.3931240356
	    H    -1.2996633381   0.7838938550  -4.1306339116
	    H    -1.5393850600   3.2199433392  -3.7062286069
	    H     4.8735111148  -2.1454441465  -0.1779982650
	    H     3.8303507238   1.7009732882  -1.8320019048
	    H    -3.5033793897   0.4804094303   0.4414129709
	    H    -4.6500910742  -0.7815241775   2.4710117273
	    H     5.5361051199  -0.1049985700  -1.4891491630
			--------------------------
			 OPTKING Finished Execution 
			--------------------------

    Structure for next step:
    Molecular point group: c1
    Full point group: C1

    Geometry (in Angstrom), charge = 0, multiplicity = 1:

    C           -0.569714049549    -0.143174806156     0.366746323270
    N            0.670085193821    -0.681970526432     0.560369291270
    C            1.928254275542    -0.443108376614    -0.009775629194
    C            2.886843542671    -1.449965093546     0.183939641444
    H            0.670872666367    -1.370787940016     1.320030208825
    C            2.293543975390     0.688641680290    -0.753187360668
    C           -1.613773907071    -0.527875836142     1.172862044848
    N           -2.675786749774    -1.574716274061     2.875825900280
    C           -3.016338075286    -0.168849640287     1.149331506837
    C           -1.422135260858    -1.467047716924     2.308081860202
    C           -3.612630296329    -0.817289895411     2.185016149779
    C           -0.818255708063     0.794174530539    -0.758857849711
    C           -0.958100209251     2.169083043705    -0.523041439209
    C           -0.946584241618     0.302495347240    -2.063980166702
    C           -1.214303578986     3.039604465585    -1.582305682129
    C           -1.203552159994     1.175888862101    -3.119975305474
    C           -1.337022133377     2.544460241036    -2.881496778165
    C            4.170034098042    -1.324885492198    -0.337950950852
    C            3.580397336766     0.799482677597    -1.278421786231
    C            4.533089126866    -0.200572593952    -1.080880027793
    H            2.627403137776    -2.344931391387     0.748262736113
    H            1.598509350465     1.507020893435    -0.906606921331
    H           -2.862263209359    -2.165356713464     3.675756893209
    O           -0.394745869343    -2.049458632556     2.685462471023
    H           -0.864168783622     2.551924513453     0.491095988676
    H           -0.839861969663    -0.764271187371    -2.248541688981
    H           -1.324329838296     4.104289713153    -1.392487036540
    H           -1.303683748107     0.786876037671    -4.129996923314
    H           -1.543405470929     3.222925531403    -3.705591616917
    H            4.869490729085    -2.142461975298    -0.177361261197
    H            3.826330333911     1.703955474524    -1.831364907433
    H           -3.507399808392     0.483391611787     0.442049977226
    H           -4.654111497401    -0.778542000989     2.471648741562
    H            5.532084736724    -0.102016390854    -1.488512164313


Scratch directory: /scratch/bdw2292/Psi4-1_16_Index_0-farH_in17/

Scratch directory: /scratch/bdw2292/Psi4-1_16_Index_0-farH_in17/
gradient() will perform analytic gradient computation.
    SCF Algorithm Type (re)set to DF.

*** tstart() called on node74.bme.utexas.edu
*** at Wed Jun  8 10:09:39 2022

   => Loading Basis Set <=

    Name: 6-31G*
    Role: ORBITAL
    Keyword: BASIS
    atoms 1, 3-4, 6-7, 9-20 entry C          line   111 file /home/bdw2292/miniconda3/envs/newamoebamdpoltype/share/psi4/basis/6-31gs.gbs 
    atoms 2, 8              entry N          line   128 file /home/bdw2292/miniconda3/envs/newamoebamdpoltype/share/psi4/basis/6-31gs.gbs 
    atoms 5, 21-23, 25-34   entry H          line    44 file /home/bdw2292/miniconda3/envs/newamoebamdpoltype/share/psi4/basis/6-31gs.gbs 
    atoms 24                entry O          line   145 file /home/bdw2292/miniconda3/envs/newamoebamdpoltype/share/psi4/basis/6-31gs.gbs 


         ---------------------------------------------------------
                                   SCF
               by Justin Turney, Rob Parrish, Andy Simmonett
                          and Daniel G. A. Smith
                              RHF Reference
                        2 Threads,   7788 MiB Core
         ---------------------------------------------------------

  ==> Geometry <==

    Molecular point group: c1
    Full point group: C1

    Geometry (in Angstrom), charge = 0, multiplicity = 1:

       Center              X                  Y                   Z               Mass       
    ------------   -----------------  -----------------  -----------------  -----------------
         C           -0.569714049549    -0.143174806156     0.366746323270    12.000000000000
         N            0.670085193821    -0.681970526432     0.560369291270    14.003074004430
         C            1.928254275542    -0.443108376614    -0.009775629194    12.000000000000
         C            2.886843542671    -1.449965093546     0.183939641444    12.000000000000
         H            0.670872666367    -1.370787940016     1.320030208825     1.007825032230
         C            2.293543975390     0.688641680290    -0.753187360668    12.000000000000
         C           -1.613773907071    -0.527875836142     1.172862044848    12.000000000000
         N           -2.675786749774    -1.574716274061     2.875825900280    14.003074004430
         C           -3.016338075286    -0.168849640287     1.149331506837    12.000000000000
         C           -1.422135260858    -1.467047716924     2.308081860202    12.000000000000
         C           -3.612630296329    -0.817289895411     2.185016149779    12.000000000000
         C           -0.818255708063     0.794174530539    -0.758857849711    12.000000000000
         C           -0.958100209251     2.169083043705    -0.523041439209    12.000000000000
         C           -0.946584241618     0.302495347240    -2.063980166702    12.000000000000
         C           -1.214303578986     3.039604465585    -1.582305682129    12.000000000000
         C           -1.203552159994     1.175888862101    -3.119975305474    12.000000000000
         C           -1.337022133377     2.544460241036    -2.881496778165    12.000000000000
         C            4.170034098042    -1.324885492198    -0.337950950852    12.000000000000
         C            3.580397336766     0.799482677597    -1.278421786231    12.000000000000
         C            4.533089126866    -0.200572593952    -1.080880027793    12.000000000000
         H            2.627403137776    -2.344931391387     0.748262736113     1.007825032230
         H            1.598509350465     1.507020893435    -0.906606921331     1.007825032230
         H           -2.862263209359    -2.165356713464     3.675756893209     1.007825032230
         O           -0.394745869343    -2.049458632556     2.685462471023    15.994914619570
         H           -0.864168783622     2.551924513453     0.491095988676     1.007825032230
         H           -0.839861969663    -0.764271187371    -2.248541688981     1.007825032230
         H           -1.324329838296     4.104289713153    -1.392487036540     1.007825032230
         H           -1.303683748107     0.786876037671    -4.129996923314     1.007825032230
         H           -1.543405470929     3.222925531403    -3.705591616917     1.007825032230
         H            4.869490729085    -2.142461975298    -0.177361261197     1.007825032230
         H            3.826330333911     1.703955474524    -1.831364907433     1.007825032230
         H           -3.507399808392     0.483391611787     0.442049977226     1.007825032230
         H           -4.654111497401    -0.778542000989     2.471648741562     1.007825032230
         H            5.532084736724    -0.102016390854    -1.488512164313     1.007825032230

  Running in c1 symmetry.

  Rotational constants: A =      0.01419  B =      0.00979  C =      0.00621 [cm^-1]
  Rotational constants: A =    425.28643  B =    293.43685  C =    186.30368 [MHz]
  Nuclear repulsion = 1418.017568940280853

  Charge       = 0
  Multiplicity = 1
  Electrons    = 138
  Nalpha       = 69
  Nbeta        = 69

  ==> Algorithm <==

  SCF Algorithm Type is DF.
  DIIS enabled.
  MOM disabled.
  Fractional occupation disabled.
  Guess Type is READ.
  Energy threshold   = 1.00e-10
  Density threshold  = 1.00e-10
  Integral threshold = 1.00e-12

  ==> Primary Basis <==

  Basis Set: 6-31G*
    Blend: 6-31G*
    Number of shells: 148
    Number of basis functions: 328
    Number of Cartesian functions: 328
    Spherical Harmonics?: false
    Max angular momentum: 2

   => Loading Basis Set <=

    Name: (6-31G* AUX)
    Role: JKFIT
    Keyword: DF_BASIS_SCF
    atoms 1, 3-4, 6-7, 9-20 entry C          line   121 file /home/bdw2292/miniconda3/envs/newamoebamdpoltype/share/psi4/basis/cc-pvdz-jkfit.gbs 
    atoms 2, 8              entry N          line   171 file /home/bdw2292/miniconda3/envs/newamoebamdpoltype/share/psi4/basis/cc-pvdz-jkfit.gbs 
    atoms 5, 21-23, 25-34   entry H          line    51 file /home/bdw2292/miniconda3/envs/newamoebamdpoltype/share/psi4/basis/cc-pvdz-jkfit.gbs 
    atoms 24                entry O          line   221 file /home/bdw2292/miniconda3/envs/newamoebamdpoltype/share/psi4/basis/cc-pvdz-jkfit.gbs 

   => Loading Basis Set <=

    Name: 6-31G*
    Role: ORBITAL
    Keyword: BASIS
    atoms 1, 3-4, 6-7, 9-20 entry C          line   111 file /home/bdw2292/miniconda3/envs/newamoebamdpoltype/share/psi4/basis/6-31gs.gbs 
    atoms 2, 8              entry N          line   128 file /home/bdw2292/miniconda3/envs/newamoebamdpoltype/share/psi4/basis/6-31gs.gbs 
    atoms 5, 21-23, 25-34   entry H          line    44 file /home/bdw2292/miniconda3/envs/newamoebamdpoltype/share/psi4/basis/6-31gs.gbs 
    atoms 24                entry O          line   145 file /home/bdw2292/miniconda3/envs/newamoebamdpoltype/share/psi4/basis/6-31gs.gbs 

  Reading orbitals from file /scratch/bdw2292/Psi4-1_16_Index_0-farH_in17/1_16_Index_0-opt_1.default.1078625.180.npy, no projection.

  ==> Integral Setup <==

  DFHelper Memory: AOs need 1.276 GiB; user supplied 5.704 GiB. Using in-core AOs.

  ==> MemDFJK: Density-Fitted J/K Matrices <==

    J tasked:                   Yes
    K tasked:                   Yes
    wK tasked:                   No
    OpenMP threads:               2
    Memory [MiB]:              5841
    Algorithm:                 Core
    Schwarz Cutoff:           1E-12
    Mask sparsity (%):      22.6428
    Fitting Condition:        1E-10

   => Auxiliary Basis Set <=

  Basis Set: (6-31G* AUX)
    Blend: CC-PVDZ-JKFIT
    Number of shells: 606
    Number of basis functions: 1970
    Number of Cartesian functions: 1970
    Spherical Harmonics?: false
    Max angular momentum: 3

  Minimum eigenvalue in the overlap matrix is 4.3848108897E-04.
  Reciprocal condition number of the overlap matrix is 5.6273177252E-05.
    Using symmetric orthogonalization.

  ==> Pre-Iterations <==

  SCF Guess: Orbitals guess was supplied from a previous computation.

   -------------------------------------------------------
    Irrep   Nso     Nmo     Nalpha   Nbeta   Ndocc  Nsocc
   -------------------------------------------------------
     A        328     328      69      69      69       0
   -------------------------------------------------------
    Total     328     328      69      69      69       0
   -------------------------------------------------------

  ==> Iterations <==

                           Total Energy        Delta E     RMS |[F,P]|

   @DF-RHF iter   0:  -835.65375544880635   -8.35654e+02   7.88741e-04 
   @DF-RHF iter   1:  -835.66171789455132   -7.96245e-03   1.15105e-04 DIIS
   @DF-RHF iter   2:  -835.66260097675161   -8.83082e-04   5.44622e-05 DIIS
   @DF-RHF iter   3:  -835.66278028327667   -1.79307e-04   1.94452e-05 DIIS
   @DF-RHF iter   4:  -835.66283114992655   -5.08666e-05   8.49427e-06 DIIS
   @DF-RHF iter   5:  -835.66284379570288   -1.26458e-05   4.21629e-06 DIIS
   @DF-RHF iter   6:  -835.66284829707661   -4.50137e-06   1.78430e-06 DIIS
   @DF-RHF iter   7:  -835.66284929569315   -9.98617e-07   6.25622e-07 DIIS
   @DF-RHF iter   8:  -835.66284937111391   -7.54208e-08   2.56357e-07 DIIS
   @DF-RHF iter   9:  -835.66284938261481   -1.15009e-08   9.65590e-08 DIIS
[...]
	   33 R(18,20)        =      1.395138     0.000159     0.000025     1.395163
	   34 R(18,30)        =      1.087012    -0.000031    -0.000002     1.087010
	   35 R(19,20)        =      1.395639    -0.000091    -0.000010     1.395629
	   36 R(19,31)        =      1.087170     0.000059     0.000011     1.087181
	   37 R(20,34)        =      1.086541     0.000080     0.000014     1.086555
	   38 B(1,2,3)        =    127.756354    -0.000000    -0.013010   127.743344
	   39 B(1,2,5)        =    113.112658    -0.000000    -0.004269   113.108389
	   40 B(1,7,9)        =    130.543648     0.000000    -0.000128   130.543520
	   41 B(1,7,10)       =    121.903611    -0.000000     0.001070   121.904681
	   42 B(1,12,13)      =    120.392130    -0.000002    -0.010053   120.382077
	   43 B(1,12,14)      =    119.840398     0.000002     0.010918   119.851317
	   44 B(2,1,7)        =    119.321721    -0.000000     0.001988   119.323709
	   45 B(2,1,12)       =    119.261824     0.000000     0.002379   119.264202
	   46 B(2,3,4)        =    117.588522     0.000000     0.001682   117.590204
	   47 B(2,3,6)        =    122.611568     0.000000    -0.000491   122.611077
	   48 B(3,2,5)        =    117.944925     0.000001    -0.002047   117.942878
	   49 B(3,4,18)       =    120.151836     0.000001     0.001008   120.152844
	   50 B(3,4,21)       =    119.146110    -0.000001    -0.002049   119.144062
	   51 B(3,6,19)       =    119.580198     0.000000     0.000709   119.580907
	   52 B(3,6,22)       =    120.098536    -0.000001    -0.000657   120.097879
	   53 B(4,3,6)        =    119.737994    -0.000001    -0.001052   119.736942
	   54 B(4,18,20)      =    120.252824    -0.000000    -0.000581   120.252243
	   55 B(4,18,30)      =    119.509446     0.000000     0.001324   119.510771
	   56 B(6,19,20)      =    120.763849    -0.000000    -0.000288   120.763561
	   57 B(6,19,31)      =    119.201940     0.000001     0.002945   119.204885
	   58 B(7,1,12)       =    121.241506    -0.000000    -0.006458   121.235048
	   59 B(7,9,11)       =    107.114745     0.000000    -0.000009   107.114735
	   60 B(7,9,32)       =    126.960116     0.000001     0.003248   126.963363
	   61 B(7,10,8)       =    104.734780     0.000000     0.000993   104.735773
	   62 B(7,10,24)      =    129.434536     0.000000     0.000410   129.434946
	   63 B(8,10,24)      =    125.825059    -0.000000    -0.001425   125.823634
	   64 B(8,11,9)       =    109.598528     0.000000     0.002389   109.600918
	   65 B(8,11,33)      =    120.466552    -0.000000    -0.001507   120.465046
	   66 B(9,7,10)       =    107.532475     0.000000    -0.000987   107.531488
	   67 B(9,11,33)      =    129.934783    -0.000000    -0.000933   129.933850
	   68 B(10,8,11)      =    110.972395    -0.000001    -0.003286   110.969109
	   69 B(10,8,23)      =    122.449877     0.000001    -0.000265   122.449612
	   70 B(11,8,23)      =    126.396048     0.000000    -0.004614   126.391434
	   71 B(11,9,32)      =    125.918906    -0.000001    -0.003183   125.915723
	   72 B(12,13,15)     =    119.969590    -0.000000     0.000035   119.969625
	   73 B(12,13,25)     =    119.372437    -0.000000    -0.000840   119.371597
	   74 B(12,14,16)     =    119.939972    -0.000000     0.000488   119.940460
	   75 B(12,14,26)     =    119.484500     0.000000    -0.000185   119.484316
	   76 B(13,12,14)     =    119.761837     0.000000    -0.000937   119.760899
	   77 B(13,15,17)     =    120.192767     0.000000     0.000549   120.193316
	   78 B(13,15,27)     =    119.750958    -0.000000    -0.000099   119.750859
	   79 B(14,16,17)     =    120.276824    -0.000000    -0.000084   120.276740
	   80 B(14,16,28)     =    119.723739     0.000000     0.000440   119.724179
	   81 B(15,13,25)     =    120.647927     0.000000     0.000696   120.648623
	   82 B(15,17,16)     =    119.857754     0.000000    -0.000052   119.857702
	   83 B(15,17,29)     =    120.082465    -0.000000     0.000438   120.082903
	   84 B(16,14,26)     =    120.573950    -0.000000    -0.000278   120.573672
	   85 B(16,17,29)     =    120.059776    -0.000000    -0.000389   120.059387
	   86 B(17,15,27)     =    120.055820    -0.000000    -0.000442   120.055378
	   87 B(17,16,28)     =    119.999410     0.000000    -0.000354   119.999056
	   88 B(18,4,21)      =    120.698209     0.000000     0.001029   120.699238
	   89 B(18,20,19)     =    119.481780     0.000000     0.000183   119.481963
	   90 B(18,20,34)     =    120.273551     0.000000     0.001848   120.275399
	   91 B(19,6,22)      =    120.317478     0.000000    -0.000060   120.317418
	   92 B(19,20,34)     =    120.243736    -0.000001    -0.002013   120.241722
	   93 B(20,18,30)     =    120.236313    -0.000000    -0.000728   120.235585
	   94 B(20,19,31)     =    120.017674    -0.000001    -0.002739   120.014935
	   95 D(1,2,3,4)      =   -151.075574    -0.000000    -0.058228  -151.133802
	   96 D(1,2,3,6)      =     31.796927     0.000000    -0.061444    31.735483
	   97 D(1,7,9,11)     =    179.698256    -0.000000    -0.000455   179.697801
	   98 D(1,7,9,32)     =      0.568620    -0.000000    -0.004317     0.564303
	   99 D(1,7,10,8)     =    179.378006     0.000000    -0.014175   179.363831
	  100 D(1,7,10,24)    =     -1.458491     0.000000    -0.015824    -1.474315
	  101 D(1,12,13,15)   =   -179.345948    -0.000000     0.003028  -179.342920
	  102 D(1,12,13,25)   =      1.799455    -0.000000     0.009231     1.808686
	  103 D(1,12,14,16)   =    179.035229     0.000000    -0.003843   179.031387
	  104 D(1,12,14,26)   =     -0.510444     0.000000    -0.007613    -0.518057
	  105 D(2,1,7,9)      =   -174.062947     0.000000     0.040471  -174.022476
	  106 D(2,1,7,10)     =      4.084262     0.000000     0.038419     4.122681
	  107 D(2,1,12,13)    =   -131.368997    -0.000000    -0.033868  -131.402865
	  108 D(2,1,12,14)    =     49.496534    -0.000000    -0.028315    49.468219
	  109 D(2,3,4,18)     =   -178.156831     0.000000    -0.004392  -178.161222
	  110 D(2,3,4,21)     =      2.551417     0.000000    -0.003298     2.548119
	  111 D(2,3,6,19)     =    179.102105    -0.000000     0.004544   179.106649
	  112 D(2,3,6,22)     =     -0.192223    -0.000000     0.005313    -0.186911
	  113 D(3,2,1,7)      =   -165.314425    -0.000000     0.070675  -165.243749
	  114 D(3,2,1,12)     =     19.431810     0.000000     0.099220    19.531030
	  115 D(3,4,18,20)    =     -0.526671     0.000000     0.001145    -0.525526
	  116 D(3,4,18,30)    =    179.905316     0.000000    -0.001180   179.904136
	  117 D(3,6,19,20)    =     -1.681265    -0.000000    -0.000988    -1.682253
	  118 D(3,6,19,31)    =    179.797769     0.000000     0.002729   179.800498
	  119 D(4,3,2,5)      =     42.302972    -0.000000     0.049230    42.352202
	  120 D(4,3,6,19)     =      2.034183     0.000000     0.001186     2.035369
	  121 D(4,3,6,22)     =   -177.260145     0.000000     0.001954  -177.258191
	  122 D(4,18,20,19)   =      0.892121     0.000000    -0.000915     0.891207
	  123 D(4,18,20,34)   =   -179.458384     0.000000     0.002354  -179.456030
	  124 D(5,2,1,7)      =      1.844808    -0.000000    -0.032141     1.812668
	  125 D(5,2,1,12)     =   -173.408957     0.000000    -0.003596  -173.412553
	  126 D(5,2,3,6)      =   -134.824527     0.000000     0.046014  -134.778512
	  127 D(6,3,4,18)     =     -0.943385    -0.000000    -0.001258    -0.944644
	  128 D(6,3,4,21)     =    179.764862    -0.000000    -0.000165   179.764698
	  129 D(6,19,20,18)   =      0.218264    -0.000000     0.000834     0.219099
	  130 D(6,19,20,34)   =   -179.431336    -0.000000    -0.002447  -179.433783
	  131 D(7,1,12,13)    =     53.471247     0.000000    -0.005183    53.466063
	  132 D(7,1,12,14)    =   -125.663222    -0.000000     0.000369  -125.662853
	  133 D(7,9,11,8)     =     -0.058125     0.000000     0.013828    -0.044296
	  134 D(7,9,11,33)    =    179.805302    -0.000000    -0.009252   179.796050
	  135 D(7,10,8,11)    =      2.117022     0.000000     0.024651     2.141673
	  136 D(7,10,8,23)    =    177.506793    -0.000000    -0.077814   177.428979
	  137 D(8,10,7,9)     =     -2.098447    -0.000000    -0.015805    -2.114252
	  138 D(8,11,9,32)    =    179.083113     0.000000     0.017709   179.100822
	  139 D(9,7,1,12)     =      1.093963     0.000000     0.011788     1.105751
	  140 D(9,7,10,24)    =    177.065056    -0.000000    -0.017454   177.047602
	  141 D(9,11,8,10)    =     -1.361776    -0.000000    -0.025187    -1.386963
	  142 D(9,11,8,23)    =   -176.528080     0.000000     0.081989  -176.446091
	  143 D(10,7,1,12)    =    179.241172     0.000000     0.009736   179.250908
	  144 D(10,7,9,11)    =      1.347729    -0.000000     0.001343     1.349072
	  145 D(10,7,9,32)    =   -177.781907    -0.000000    -0.002518  -177.784426
	  146 D(10,8,11,33)   =    178.759721    -0.000000    -0.004655   178.755065
	  147 D(11,8,10,24)   =   -177.086159     0.000000     0.026203  -177.059956
	  148 D(12,13,15,17)  =      0.284153    -0.000000     0.003255     0.287409
	  149 D(12,13,15,27)  =   -179.470566    -0.000000     0.001002  -179.469564
	  150 D(12,14,16,17)  =      0.348516     0.000000    -0.001926     0.346590
	  151 D(12,14,16,28)  =   -179.591377    -0.000000    -0.003582  -179.594958
	  152 D(13,12,14,16)  =     -0.104737    -0.000000     0.001756    -0.102981
	  153 D(13,12,14,26)  =   -179.650410    -0.000000    -0.002014  -179.652424
	  154 D(13,15,17,16)  =     -0.041579    -0.000000    -0.003411    -0.044990
	  155 D(13,15,17,29)  =    179.987321     0.000000     0.001503   179.988824
	  156 D(14,12,13,15)  =     -0.210799     0.000000    -0.002418    -0.213217
	  157 D(14,12,13,25)  =   -179.065397     0.000000     0.003786  -179.061611
	  158 D(14,16,17,15)  =     -0.275981     0.000000     0.002748    -0.273233
	  159 D(14,16,17,29)  =    179.695126    -0.000000    -0.002165   179.692962
	  160 D(15,17,16,28)  =    179.663745     0.000000     0.004408   179.668154
	  161 D(16,17,15,27)  =    179.712389    -0.000000    -0.001150   179.711239
	  162 D(17,15,13,25)  =    179.123925    -0.000000    -0.003047   179.120879
	  163 D(17,16,14,26)  =    179.889168     0.000000     0.001886   179.891054
	  164 D(18,20,19,31)  =    178.727212    -0.000000    -0.002828   178.724384
	  165 D(19,20,18,30)  =   -179.543024     0.000000     0.001436  -179.541588
	  166 D(20,18,4,21)   =    178.753951     0.000000     0.000012   178.753964
	  167 D(20,19,6,22)   =    177.611491    -0.000000    -0.001762   177.609729
	  168 D(21,4,18,30)   =     -0.814062     0.000000    -0.002313    -0.816375
	  169 D(22,6,19,31)   =     -0.909475     0.000000     0.001955    -0.907520
	  170 D(23,8,10,24)   =     -1.696388    -0.000000    -0.076262    -1.772650
	  171 D(23,8,11,33)   =      3.593417     0.000000     0.102521     3.695938
	  172 D(25,13,15,27)  =     -0.630794    -0.000000    -0.005300    -0.636094
	  173 D(26,14,16,28)  =     -0.050724    -0.000000     0.000230    -0.050494
	  174 D(27,15,17,29)  =     -0.258711     0.000000     0.003763    -0.254948
	  175 D(28,16,17,29)  =     -0.365148     0.000000    -0.000504    -0.365651
	  176 D(30,18,20,34)  =      0.106470     0.000000     0.004705     0.111175
	  177 D(31,19,20,34)  =     -0.922389    -0.000000    -0.006109    -0.928498
	  178 D(32,9,11,33)   =     -1.053461     0.000000    -0.005371    -1.058832
	  179 R(2,24)         =      2.724722     0.000029     0.000174     2.724896
	  180 R(3,14)         =      3.150662     0.000138     0.000635     3.151297
	  181 R(6,12)         =      3.026619    -0.000063    -0.000010     3.026609
	  182 R(6,13)         =      3.713180    -0.000022    -0.000264     3.712916
	  183 R(6,14)         =      3.229919     0.000023     0.000878     3.230797
	  184 R(9,13)         =      3.215664    -0.000049    -0.000346     3.215317
	 ---------------------------------------------------------------------------
	Successfully symmetrized geometry.

  ==> Convergence Check <==

  Measures of convergence in internal coordinates in au.
  Criteria marked as inactive (o), active & met (*), and active & unmet ( ).
  ---------------------------------------------------------------------------------------------
   Step     Total Energy     Delta E     MAX Force     RMS Force      MAX Disp      RMS Disp   
  ---------------------------------------------------------------------------------------------
    Convergence Criteria             o    4.50e-04 *    3.00e-04 *    1.80e-03 *    1.20e-03 *
  ---------------------------------------------------------------------------------------------
     14    -838.42124292   -7.23e-07 o    4.87e-05 *    7.64e-06 *    1.79e-03 *    3.72e-04 *  ~
  ---------------------------------------------------------------------------------------------


  **** Optimization is complete! (in 14 steps) ****

  ==> Optimization Summary <==

  Measures of convergence in internal coordinates in au.
  --------------------------------------------------------------------------------------------------------------- ~
   Step         Total Energy             Delta E       MAX Force       RMS Force        MAX Disp        RMS Disp  ~
  --------------------------------------------------------------------------------------------------------------- ~
      1    -838.400543877386   -838.400543877386      0.04405287      0.00809995      0.09732467      0.02263422  ~
      2    -838.416782930430     -0.016239053044      0.01098722      0.00156112      0.11996067      0.01959305  ~
      3    -838.418481126447     -0.001698196018      0.00322035      0.00048590      0.15339093      0.02369723  ~
      4    -838.419102296196     -0.000621169749      0.00403611      0.00080067      0.23795185      0.03701876  ~
      5    -838.419708653833     -0.000606357637      0.00438005      0.00119920      0.20895296      0.03046415  ~
      6    -838.420597528632     -0.000888874799      0.00459351      0.00081764      0.12641064      0.01837696  ~
      7    -838.421009124275     -0.000411595642      0.00266399      0.00040853      0.03847931      0.00922461  ~
      8    -838.421117737299     -0.000108613024      0.00096808      0.00031473      0.05870563      0.00921875  ~
      9    -838.421197049339     -0.000079312040      0.00054534      0.00012487      0.02038908      0.00461087  ~
     10    -838.421226055566     -0.000029006227      0.00068177      0.00011963      0.01042824      0.00230439  ~
     11    -838.421235904469     -0.000009848903      0.00029754      0.00004254      0.01333379      0.00230311  ~
     12    -838.421240402136     -0.000004497667      0.00020690      0.00004316      0.00576954      0.00115158  ~
     13    -838.421242196349     -0.000001794214      0.00007683      0.00001630      0.00636535      0.00115157  ~
     14    -838.421242919798     -0.000000723448      0.00004870      0.00000764      0.00178933      0.00037176  ~
  --------------------------------------------------------------------------------------------------------------- ~

	Writing optimization data to binary file.
	Final energy is   -838.4212429197978
	Final (previous) structure:
	Cartesian Geometry (in Angstrom)
	    C    -0.5637128476  -0.2264929399   0.3803910387
	    N     0.6127778462  -0.9062802407   0.4349552624
	    C     1.8384227659  -0.5577633685  -0.1640130466
	    C     2.7053043051  -1.5981577299  -0.5198151489
	    H     0.6184859247  -1.6490369429   1.1509118993
	    C     2.2338179576   0.7727215584  -0.3559282997
	    C    -1.5727270717  -0.5484773588   1.2670103045
	    N    -2.5904258769  -1.5742497667   2.9982332573
	    C    -2.9337650493  -0.0748540751   1.3519756381
	    C    -1.3845530005  -1.5439990991   2.3267223965
	    C    -3.5147538002  -0.7125277480   2.4045743566
	    C    -0.7742223824   0.7653736831  -0.6906811204
	    C    -1.2541746656   2.0457788026  -0.3865251335
	    C    -0.5098754352   0.4197138652  -2.0232345839
	    C    -1.4629146161   2.9721569606  -1.4076067841
	    C    -0.7269481529   1.3476898809  -3.0378658782
	    C    -1.2007055625   2.6259313775  -2.7335865662
	    C     3.9475036260  -1.3126766115  -1.0804027441
	    C     3.4690897516   1.0456585573  -0.9385566480
	    C     4.3317313193   0.0102108391  -1.3011931179
	    H     2.3900833016  -2.6274209330  -0.3630857264
	    H     1.5853973219   1.5837997290  -0.0414799909
	    H    -2.7674879805  -2.2065935263   3.7675884537
	    O    -0.3826680895  -2.2438531189   2.5899722258
	    H    -1.4425759566   2.3122502081   0.6506786610
	    H    -0.1428844246  -0.5772528095  -2.2547962420
	    H    -1.8273159894   3.9677408752  -1.1666308795
	    H    -0.5270877574   1.0736839651  -4.0707337638
	    H    -1.3642603582   3.3494252148  -3.5281755230
	    H     4.6128990445  -2.1284319749  -1.3513049030
	    H     3.7682691447   2.0801723864  -1.0875944261
	    H    -3.4153829320   0.6394375937   0.6989148365
	    H    -4.5195335356  -0.6314023278   2.7968795833
	    H     5.2973524513   0.2330664621  -1.7467064470
	Saving final (previous) structure.
	Cleaning optimization helper files.
			--------------------------
			 OPTKING Finished Execution 
			--------------------------

    Final optimized geometry and variables:
    Molecular point group: c1
    Full point group: C1

    Geometry (in Angstrom), charge = 0, multiplicity = 1:

    C           -0.563712849828    -0.226492940823     0.380391040200
    N            0.612777848601    -0.906280244297     0.434955264092
    C            1.838422773126    -0.557763370741    -0.164013047210
    C            2.705304315703    -1.598157736206    -0.519815150991
    H            0.618485927171    -1.649036949364     1.150911903830
    C            2.233817966371     0.772721561398    -0.355928301122
    C           -1.572727077891    -0.548477361001     1.267010309433
    N           -2.590425887101    -1.574249772932     2.998233269102
    C           -2.933765060844    -0.074854075383     1.351975643454
    C           -1.384553005968    -1.543999105186     2.326722405601
    C           -3.514753814059    -0.712527750839     2.404574366053
    C           -0.774222385430     0.765373686117    -0.690681123152
    C           -1.254174670507     2.045778810611    -0.386525135040
    C           -0.509875437222     0.419713866858    -2.023234591879
    C           -1.462914621891     2.972156972317    -1.407606789620
    C           -0.726948155727     1.347689886183    -3.037865890116
    C           -1.200705567233     2.625931387797    -2.733586576907
    C            3.947503641537    -1.312676616611    -1.080402748329
    C            3.469089765274     1.045658561372    -0.938556651698
    C            4.331731336313     0.010210839099    -1.301193122969
    H            2.390083310976    -2.627420943336    -0.363085727852
    H            1.585397328148     1.583799735206    -0.041479991065
    H           -2.767487991396    -2.206593535014     3.767588468517
    O           -0.382668090957    -2.243853127674     2.589972236012
    H           -1.442575962317     2.312250217225     0.650678663512
    H           -0.142884425176    -0.577252811762    -2.254796250865
    H           -1.827315996583     3.967740890843    -1.166630884098
    H           -0.527087759433     1.073683969345    -4.070733779827
    H           -1.364260363602     3.349425227969    -3.528175536900
    H            4.612899062605    -2.128431983304    -1.351304908323
    H            3.768269159493     2.080172394605    -1.087594430332
    H           -3.415382945437     0.639437596205     0.698914839281
    H           -4.519533553330    -0.631402330319     2.796879594285
    H            5.297352472089     0.233066463053    -1.746706453842

	Removing binary optimization data file.
	Cleaning optimization helper files.

    Psi4 stopped on: Wednesday, 08 June 2022 11:07AM
    Psi4 wall time for execution: 1:02:45.56

*** Psi4 exiting successfully. Buy a developer a beer!
