
    -----------------------------------------------------------------------
          Psi4: An Open-Source Ab Initio Electronic Structure Package
                               Psi4 1.3.2 release

                         Git: Rev {HEAD} ecbda83 


    R. M. Parrish, L. A. Burns, D. G. A. Smith, A. C. Simmonett,
    A. E. DePrince III, E. G. Hohenstein, U. Bozkaya, A. Yu. Sokolov,
    R. Di Remigio, R. M. Richard, J. F. Gonthier, A. M. James,
    H. R. McAlexander, A. Kumar, M. Saitow, X. Wang, B. P. Pritchard,
    P. Verma, H. F. Schaefer III, K. Patkowski, R. A. King, E. F. Valeev,
    F. A. Evangelista, J. M. Turney, T. D. Crawford, and C. D. Sherrill,
    J. Chem. Theory Comput. 13(7) pp 3185--3197 (2017).
    (doi: 10.1021/acs.jctc.7b00174)


                         Additional Contributions by
    P. Kraus, H. Kruse, M. H. Lechner, M. C. Schieber, R. A. Shaw,
    A. Alenaizan, R. Galvelis, Z. L. Glick, S. Lehtola, and J. P. Misiewicz

    -----------------------------------------------------------------------


    Psi4 started on: Thursday, 04 November 2021 04:19PM

    Process ID: 54866
    Host:       node44.bme.utexas.edu
    PSIDATADIR: /home/bdw2292/miniconda3/envs/amoebamdpoltype/share/psi4
    Memory:     500.0 MiB
    Threads:    1
    
  ==> Input File <==

--------------------------------------------------------------------------
molecule { 
0 1
N -0.061396793219 -0.027509561709 -0.270982448909
C 1.105860424227 -0.888105009225 -0.126723930169
C -1.249738753629 -0.482064998325 0.415196355605
C 0.191766972760 1.389748453589 -0.084706317292
H 1.904439940159 -0.420456196781 0.465595958488
H 1.533731968244 -1.127934481656 -1.107346990338
H -1.471602235935 -1.513216634107 0.130481303244
H -1.173815671184 -0.431335788012 1.517890494946
H -0.097591988087 1.743573494522 0.919660199315
H -0.392126469504 1.977474855274 -0.802986958117
H 0.831948459998 -1.829341186551 0.357016973599
H -2.098846331625 0.137231972527 0.111137197480
H 1.246729005843 1.613114247989 -0.252531258439
}
memory 8.333333333333334GB
set_num_threads(1)
psi4_io.set_default_path("/scratch/bdw2292/Psi4-4_Index_0-farH_in17")
set maxiter 500
set freeze_core True
set PROPERTIES_ORIGIN ["COM"]
set cubeprop_tasks ['esp']
E, wfn = properties('mp2/aug-cc-pVTZ',properties=['dipole'],return_wfn=True)
cubeprop(wfn)
fchk(wfn, "4_Index_0-esp.fchk")
oeprop(wfn,"GRID_ESP","WIBERG_LOWDIN_INDICES","MULLIKEN_CHARGES")
clean()
--------------------------------------------------------------------------

  Memory set to   7.761 GiB by Python driver.
  Threads set to 1 by Python driver.
    SCF Algorithm Type (re)set to DF.

*** tstart() called on node44.bme.utexas.edu
*** at Thu Nov  4 16:19:00 2021

   => Loading Basis Set <=

    Name: AUG-CC-PVTZ
    Role: ORBITAL
    Keyword: BASIS
    atoms 1    entry N          line   281 file /home/bdw2292/miniconda3/envs/amoebamdpoltype/share/psi4/basis/aug-cc-pvtz.gbs 
    atoms 2-4  entry C          line   235 file /home/bdw2292/miniconda3/envs/amoebamdpoltype/share/psi4/basis/aug-cc-pvtz.gbs 
    atoms 5-13 entry H          line    36 file /home/bdw2292/miniconda3/envs/amoebamdpoltype/share/psi4/basis/aug-cc-pvtz.gbs 


         ---------------------------------------------------------
                                   SCF
               by Justin Turney, Rob Parrish, Andy Simmonett
                          and Daniel G. A. Smith
                              RHF Reference
                        1 Threads,   7947 MiB Core
         ---------------------------------------------------------

  ==> Geometry <==

    Molecular point group: c1
    Full point group: C1

    Geometry (in Angstrom), charge = 0, multiplicity = 1:

       Center              X                  Y                   Z               Mass       
    ------------   -----------------  -----------------  -----------------  -----------------
         N           -0.061396793219    -0.027509561709    -0.270982448909    14.003074004430
         C            1.105860424227    -0.888105009225    -0.126723930169    12.000000000000
         C           -1.249738753629    -0.482064998325     0.415196355605    12.000000000000
         C            0.191766972760     1.389748453589    -0.084706317292    12.000000000000
         H            1.904439940159    -0.420456196781     0.465595958488     1.007825032230
         H            1.533731968244    -1.127934481656    -1.107346990338     1.007825032230
         H           -1.471602235935    -1.513216634107     0.130481303244     1.007825032230
         H           -1.173815671184    -0.431335788012     1.517890494946     1.007825032230
         H           -0.097591988087     1.743573494522     0.919660199315     1.007825032230
         H           -0.392126469504     1.977474855274    -0.802986958117     1.007825032230
         H            0.831948459998    -1.829341186551     0.357016973599     1.007825032230
         H           -2.098846331625     0.137231972527     0.111137197480     1.007825032230
         H            1.246729005843     1.613114247989    -0.252531258439     1.007825032230

  Running in c1 symmetry.

  Rotational constants: A =      0.29187  B =      0.28134  C =      0.15954 [cm^-1]
  Rotational constants: A =   8749.99281  B =   8434.45645  C =   4782.99470 [MHz]
  Nuclear repulsion =  137.866375817036555

  Charge       = 0
  Multiplicity = 1
  Electrons    = 34
  Nalpha       = 17
  Nbeta        = 17

  ==> Algorithm <==

  SCF Algorithm Type is DF.
  DIIS enabled.
  MOM disabled.
  Fractional occupation disabled.
  Guess Type is SAD.
  Energy threshold   = 1.00e-10
  Density threshold  = 1.00e-10
  Integral threshold = 0.00e+00

  ==> Primary Basis <==

  Basis Set: AUG-CC-PVTZ
    Blend: AUG-CC-PVTZ
    Number of shells: 137
    Number of basis function: 391
    Number of Cartesian functions: 445
    Spherical Harmonics?: true
    Max angular momentum: 3

   => Loading Basis Set <=

    Name: (AUG-CC-PVTZ AUX)
    Role: JKFIT
    Keyword: DF_BASIS_SCF
    atoms 1    entry N          line   224 file /home/bdw2292/miniconda3/envs/amoebamdpoltype/share/psi4/basis/aug-cc-pvtz-jkfit.gbs 
    atoms 2-4  entry C          line   162 file /home/bdw2292/miniconda3/envs/amoebamdpoltype/share/psi4/basis/aug-cc-pvtz-jkfit.gbs 
    atoms 5-13 entry H          line    70 file /home/bdw2292/miniconda3/envs/amoebamdpoltype/share/psi4/basis/aug-cc-pvtz-jkfit.gbs 

  ==> Pre-Iterations <==

   -------------------------------------------------------
    Irrep   Nso     Nmo     Nalpha   Nbeta   Ndocc  Nsocc
   -------------------------------------------------------
     A        391     391       0       0       0       0
   -------------------------------------------------------
    Total     391     391      17      17      17       0
   -------------------------------------------------------

  ==> Integral Setup <==

  DFHelper Memory: AOs need 0.977 GiB; user supplied 5.821 GiB. Using in-core AOs.

  ==> MemDFJK: Density-Fitted J/K Matrices <==

    J tasked:                   Yes
    K tasked:                   Yes
    wK tasked:                   No
    OpenMP threads:               1
    Memory [MiB]:              5960
    Algorithm:                 Core
    Schwarz Cutoff:           1E-12
    Mask sparsity (%):       0.5481
    Fitting Condition:        1E-10

   => Auxiliary Basis Set <=

  Basis Set: (AUG-CC-PVTZ AUX)
    Blend: AUG-CC-PVTZ-JKFIT
    Number of shells: 246
    Number of basis function: 830
    Number of Cartesian functions: 1019
    Spherical Harmonics?: true
    Max angular momentum: 4

  Minimum eigenvalue in the overlap matrix is 1.9153284550E-05.
  Using Symmetric Orthogonalization.

  SCF Guess: Superposition of Atomic Densities via on-the-fly atomic UHF.

  ==> Iterations <==

                           Total Energy        Delta E     RMS |[F,P]|

   @DF-RHF iter SAD:  -172.79388251981885   -1.72794e+02   0.00000e+00 
   @DF-RHF iter   1:  -173.15077588881485   -3.56893e-01   1.34502e-03 DIIS
   @DF-RHF iter   2:  -173.29005881362792   -1.39283e-01   6.70473e-04 DIIS
   @DF-RHF iter   3:  -173.32349939989010   -3.34406e-02   1.52993e-04 DIIS
   @DF-RHF iter   4:  -173.32591812778125   -2.41873e-03   5.04422e-05 DIIS
   @DF-RHF iter   5:  -173.32615508477701   -2.36957e-04   7.48019e-06 DIIS
   @DF-RHF iter   6:  -173.32616368292449   -8.59815e-06   1.47451e-06 DIIS
   @DF-RHF iter   7:  -173.32616404924457   -3.66320e-07   3.62332e-07 DIIS
   @DF-RHF iter   8:  -173.32616407184136   -2.25968e-08   7.16100e-08 DIIS
   @DF-RHF iter   9:  -173.32616407291457   -1.07320e-09   2.15984e-08 DIIS
   @DF-RHF iter  10:  -173.32616407300210   -8.75389e-11   7.67174e-09 DIIS
   @DF-RHF iter  11:  -173.32616407301421   -1.21076e-11   1.73004e-09 DIIS
   @DF-RHF iter  12:  -173.32616407301276    1.44951e-12   2.80828e-10 DIIS
   @DF-RHF iter  13:  -173.32616407301401   -1.25056e-12   6.40276e-11 DIIS
  Energy and wave function converged.


  ==> Post-Iterations <==

    Orbital Energies [Eh]
    ---------------------

    Doubly Occupied:                                                      

       1A    -15.537629     2A    -11.239909     3A    -11.239874  
       4A    -11.239428     5A     -1.216155     6A     -0.949738  
       7A     -0.947812     8A     -0.802955     9A     -0.632475  
      10A     -0.627066    11A     -0.626120    12A     -0.550610  
      13A     -0.541421    14A     -0.513535    15A     -0.501838  
      16A     -0.500960    17A     -0.337171  

    Virtual:                                                              

      18A      0.030249    19A      0.040013    20A      0.040988  
      21A      0.042040    22A      0.058469    23A      0.059360  
      24A      0.062411    25A      0.065177    26A      0.079615  
      27A      0.102371    28A      0.122261    29A      0.126066  
      30A      0.130873    31A      0.133321    32A      0.136672  
      33A      0.141238    34A      0.142887    35A      0.145482  
      36A      0.157487    37A      0.176563    38A      0.182202  
      39A      0.191566    40A      0.203805    41A      0.208170  
      42A      0.221785    43A      0.245428    44A      0.256851  
      45A      0.263480    46A      0.271539    47A      0.282676  
      48A      0.290693    49A      0.318241    50A      0.318753  
      51A      0.324995    52A      0.330698    53A      0.339159  
      54A      0.344923    55A      0.346092    56A      0.351770  
      57A      0.358105    58A      0.359433    59A      0.363779  
      60A      0.367218    61A      0.374319    62A      0.391884  
      63A      0.401649    64A      0.409538    65A      0.411243  
      66A      0.415083    67A      0.423733    68A      0.436447  
      69A      0.438005    70A      0.444867    71A      0.451174  
      72A      0.454136    73A      0.460768    74A      0.463700  
      75A      0.465863    76A      0.472555    77A      0.488564  
      78A      0.492175    79A      0.493496    80A      0.499236  
      81A      0.502618    82A      0.515037    83A      0.536289  
      84A      0.538775    85A      0.547296    86A      0.557418  
      87A      0.563246    88A      0.571316    89A      0.575597  
      90A      0.579741    91A      0.595124    92A      0.614002  
      93A      0.617345    94A      0.627422    95A      0.634722  
      96A      0.640948    97A      0.685199    98A      0.692262  
      99A      0.706353   100A      0.726621   101A      0.766849  
     102A      0.781125   103A      0.801335   104A      0.802984  
     105A      0.813009   106A      0.818598   107A      0.824268  
     108A      0.832242   109A      0.843052   110A      0.862184  
     111A      0.871937   112A      0.887420   113A      0.891480  
     114A      0.897648   115A      0.908585   116A      0.917152  
     117A      0.921368   118A      0.925332   119A      0.937669  
     120A      0.943824   121A      0.954806   122A      0.964795  
     123A      0.971331   124A      0.974221   125A      0.981879  
     126A      1.000899   127A      1.013379   128A      1.015682  
     129A      1.018857   130A      1.044719   131A      1.057153  
     132A      1.063417   133A      1.065731   134A      1.081507  
     135A      1.087308   136A      1.106384   137A      1.109264  
     138A      1.122439   139A      1.141673   140A      1.145894  
     141A      1.151706   142A      1.158764   143A      1.170097  
     144A      1.189480   145A      1.206665   146A      1.207476  
     147A      1.219701   148A      1.226649   149A      1.237419  
     150A      1.246456   151A      1.255326   152A      1.267936  
     153A      1.283922   154A      1.286419   155A      1.299996  
     156A      1.326782   157A      1.331412   158A      1.342260  
     159A      1.364235   160A      1.381393   161A      1.389035  
     162A      1.391360   163A      1.401383   164A      1.414293  
     165A      1.428469   166A      1.439599   167A      1.463022  
     168A      1.479433   169A      1.494259   170A      1.513019  
     171A      1.518195   172A      1.556584   173A      1.559316  
     174A      1.575620   175A      1.592831   176A      1.599565  
     177A      1.610515   178A      1.617885   179A      1.623826  
     180A      1.645522   181A      1.653188   182A      1.666753  
     183A      1.667766   184A      1.689273   185A      1.699769  
     186A      1.713070   187A      1.727037   188A      1.733840  
     189A      1.741418   190A      1.754034   191A      1.763305  
     192A      1.774683   193A      1.796036   194A      1.820273  
     195A      1.825245   196A      1.832177   197A      1.843529  
     198A      1.858163   199A      1.877026   200A      1.885920  
     201A      1.914355   202A      1.926108   203A      1.931721  
     204A      1.945508   205A      1.960599   206A      1.970907  
     207A      2.005603   208A      2.026353   209A      2.039889  
     210A      2.055271   211A      2.094454   212A      2.117331  
     213A      2.150738   214A      2.159852   215A      2.168610  
     216A      2.175334   217A      2.206301   218A      2.213096  
     219A      2.217773   220A      2.228785   221A      2.239150  
     222A      2.248216   223A      2.285081   224A      2.297685  
     225A      2.300898   226A      2.327117   227A      2.340583  
     228A      2.370747   229A      2.416700   230A      2.453220  
     231A      2.473296   232A      2.482260   233A      2.523574  
     234A      2.541452   235A      2.587206   236A      2.641267  
     237A      2.662843   238A      2.706479   239A      2.749142  
     240A      2.765147   241A      2.791094   242A      2.860896  
     243A      2.961646   244A      3.000729   245A      3.045019  
     246A      3.189948   247A      3.234544   248A      3.237870  
     249A      3.319017   250A      3.412553   251A      3.438433  
     252A      3.479399   253A      3.506573   254A      3.513554  
     255A      3.565105   256A      3.574474   257A      3.617088  
     258A      3.623771   259A      3.629733   260A      3.657362  
     261A      3.673134   262A      3.687204   263A      3.716098  
     264A      3.718770   265A      3.754386   266A      3.778463  
     267A      3.785642   268A      3.802828   269A      3.821234  
     270A      3.827211   271A      3.839927   272A      3.853449  
     273A      3.881024   274A      3.881505   275A      3.911120  
     276A      3.918374   277A      3.933233   278A      3.943111  
     279A      3.974934   280A      3.981322   281A      3.994935  
     282A      4.033302   283A      4.042783   284A      4.064695  
     285A      4.072178   286A      4.115078   287A      4.118156  
     288A      4.134899   289A      4.164502   290A      4.169898  
     291A      4.194992   292A      4.202515   293A      4.208823  
     294A      4.224367   295A      4.233264   296A      4.268894  
     297A      4.280732   298A      4.296554   299A      4.315723  
     300A      4.332845   301A      4.361207   302A      4.374937  
     303A      4.412631   304A      4.424198   305A      4.443160  
     306A      4.506728   307A      4.522447   308A      4.583079  
     309A      4.592372   310A      4.607582   311A      4.648675  
     312A      4.658407   313A      4.689110   314A      4.699696  
     315A      4.729144   316A      4.742574   317A      4.767908  
     318A      4.773849   319A      4.799377   320A      4.829649  
     321A      4.857356   322A      4.866880   323A      4.878989  
     324A      4.894363   325A      4.913542   326A      4.943506  
     327A      4.966045   328A      5.008493   329A      5.039549  
     330A      5.070209   331A      5.080476   332A      5.112322  
     333A      5.139487   334A      5.160809   335A      5.183177  
     336A      5.185470   337A      5.225098   338A      5.235825  
     339A      5.249821   340A      5.283199   341A      5.310541  
     342A      5.327029   343A      5.357256   344A      5.381022  
     345A      5.441626   346A      5.455850   347A      5.500154  
     348A      5.522438   349A      5.559788   350A      5.575064  
     351A      5.593130   352A      5.605191   353A      5.618978  
     354A      5.644431   355A      5.675289   356A      5.724332  
     357A      5.726052   358A      5.754714   359A      5.827020  
     360A      5.861568   361A      5.896871   362A      5.975216  
     363A      6.007554   364A      6.016992   365A      6.075194  
     366A      6.117339   367A      6.126695   368A      6.155150  
     369A      6.204914   370A      6.226277   371A      6.250393  
     372A      6.265022   373A      6.305046   374A      6.416605  
     375A      6.484289   376A      6.565286   377A      6.741354  
     378A      6.761187   379A      6.781177   380A      6.789326  
     381A      6.825992   382A      6.836431   383A      6.877631  
     384A      6.903287   385A      6.947314   386A      6.968581  
     387A      6.987639   388A     16.981301   389A     18.069427  
     390A     18.376877   391A     18.933504  

    Final Occupation by Irrep:
              A 
    DOCC [    17 ]

  @DF-RHF Final Energy:  -173.32616407301401

   => Energetics <=

    Nuclear Repulsion Energy =            137.8663758170365554
    One-Electron Energy =                -506.3756866669173178
    Two-Electron Energy =                 195.1831467768667494
    Total Energy =                       -173.3261640730140130

Computation Completed

*** tstop() called on node44.bme.utexas.edu at Thu Nov  4 16:19:23 2021
Module time:
	user time   =      22.41 seconds =       0.37 minutes
	system time =       0.57 seconds =       0.01 minutes
	total time  =         23 seconds =       0.38 minutes
Total time:
	user time   =      22.41 seconds =       0.37 minutes
	system time =       0.57 seconds =       0.01 minutes
	total time  =         23 seconds =       0.38 minutes
   => Loading Basis Set <=

    Name: (AUG-CC-PVTZ AUX)
    Role: RIFIT
    Keyword: DF_BASIS_MP2
    atoms 1    entry N          line   206 file /home/bdw2292/miniconda3/envs/amoebamdpoltype/share/psi4/basis/aug-cc-pvtz-ri.gbs 
    atoms 2-4  entry C          line   148 file /home/bdw2292/miniconda3/envs/amoebamdpoltype/share/psi4/basis/aug-cc-pvtz-ri.gbs 
    atoms 5-13 entry H          line    30 file /home/bdw2292/miniconda3/envs/amoebamdpoltype/share/psi4/basis/aug-cc-pvtz-ri.gbs 


*** tstart() called on node44.bme.utexas.edu
*** at Thu Nov  4 16:19:24 2021


  //>>>>>>>>>>>>>>>>>>>>>>>>>>>>>>>>>>>//
  //               DFMP2               //
  //<<<<<<<<<<<<<<<<<<<<<<<<<<<<<<<<<<<//

	 --------------------------------------------------------
	                          DF-MP2                         
	      2nd-Order Density-Fitted Moller-Plesset Theory     
	              RMP2 Wavefunction,   1 Threads             
	                                                         
	        Rob Parrish, Justin Turney, Andy Simmonett,      
	           Ed Hohenstein, and C. David Sherrill          
	 --------------------------------------------------------

   => Auxiliary Basis Set <=

  Basis Set: (AUG-CC-PVTZ AUX)
    Blend: AUG-CC-PVTZ-RI
    Number of shells: 238
    Number of basis function: 838
    Number of Cartesian functions: 1039
    Spherical Harmonics?: true
    Max angular momentum: 4

	 --------------------------------------------------------
	                 NBF =   391, NAUX =   838
	 --------------------------------------------------------
	   CLASS    FOCC     OCC    AOCC    AVIR     VIR    FVIR
	   PAIRS       4      17      13     374     374       0
	 --------------------------------------------------------

  DFHelper Memory: AOs need 0.977 GiB; user supplied 5.821 GiB. Using in-core AOs.


         ------------------------------------------------------------
                                     CPHF                           
                                  Rob Parrish                       
         ------------------------------------------------------------

  ==> Geometry <==

    Molecular point group: c1
    Full point group: C1

    Geometry (in Angstrom), charge = 0, multiplicity = 1:

       Center              X                  Y                   Z               Mass       
    ------------   -----------------  -----------------  -----------------  -----------------
         N           -0.061396793219    -0.027509561709    -0.270982448909    14.003074004430
         C            1.105860424227    -0.888105009225    -0.126723930169    12.000000000000
         C           -1.249738753629    -0.482064998325     0.415196355605    12.000000000000
         C            0.191766972760     1.389748453589    -0.084706317292    12.000000000000
         H            1.904439940159    -0.420456196781     0.465595958488     1.007825032230
         H            1.533731968244    -1.127934481656    -1.107346990338     1.007825032230
         H           -1.471602235935    -1.513216634107     0.130481303244     1.007825032230
         H           -1.173815671184    -0.431335788012     1.517890494946     1.007825032230
         H           -0.097591988087     1.743573494522     0.919660199315     1.007825032230
         H           -0.392126469504     1.977474855274    -0.802986958117     1.007825032230
         H            0.831948459998    -1.829341186551     0.357016973599     1.007825032230
         H           -2.098846331625     0.137231972527     0.111137197480     1.007825032230
         H            1.246729005843     1.613114247989    -0.252531258439     1.007825032230

  Nuclear repulsion =  137.866375817036555
  Reference energy  = -173.326164073014013

  ==> Basis Set <==

  Basis Set: AUG-CC-PVTZ
    Blend: AUG-CC-PVTZ
    Number of shells: 137
    Number of basis function: 391
    Number of Cartesian functions: 445
    Spherical Harmonics?: true
    Max angular momentum: 3

  ==> CGRSolver (by Rob Parrish) <==

   Number of roots    =         1
   Preconditioning    =    JACOBI
   Convergence cutoff =     1E-06
   Maximum iterations =       100

  ==> CPHFRHamiltonian (by Rob Parrish) <== 

  ==> MemDFJK: Density-Fitted J/K Matrices <==

    J tasked:                   Yes
    K tasked:                   Yes
    wK tasked:                   No
    OpenMP threads:               1
    Memory [MiB]:              5960
    Algorithm:                 Core
    Schwarz Cutoff:           1E-12
    Mask sparsity (%):       0.5481
    Fitting Condition:        1E-10

   => Auxiliary Basis Set <=

  Basis Set: (AUG-CC-PVTZ AUX)
    Blend: AUG-CC-PVTZ-JKFIT
    Number of shells: 246
    Number of basis function: 830
    Number of Cartesian functions: 1019
    Spherical Harmonics?: true
    Max angular momentum: 4

  ==> CPHF Iterations <==

  => Iterations <=

             Iter  Converged  Remaining    Residual
  CGR           1          0          1   7.810E-02
  CGR           2          0          1   1.556E-02
  CGR           3          0          1   6.307E-03
  CGR           4          0          1   1.783E-03
  CGR           5          0          1   4.170E-04
  CGR           6          0          1   9.985E-05
  CGR           7          0          1   2.631E-05
  CGR           8          0          1   6.781E-06
  CGR           9          0          1   2.190E-06
  CGR          10          1          0   5.508E-07

    CGRSolver converged.

	-----------------------------------------------------------
	 ==================> DF-MP2 Energies <==================== 
	-----------------------------------------------------------
	 Reference Energy          =    -173.3261640730140130 [Eh]
	 Singles Energy            =      -0.0000000000000000 [Eh]
	 Same-Spin Energy          =      -0.1683619941207648 [Eh]
	 Opposite-Spin Energy      =      -0.5957086857103426 [Eh]
	 Correlation Energy        =      -0.7640706798311074 [Eh]
	 Total Energy              =    -174.0902347528451344 [Eh]
	-----------------------------------------------------------
	 ================> DF-SCS-MP2 Energies <================== 
	-----------------------------------------------------------
	 SCS Same-Spin Scale       =       0.3333333333333333 [-]
	 SCS Opposite-Spin Scale   =       1.2000000000000000 [-]
	 SCS Same-Spin Energy      =      -0.0561206647069216 [Eh]
	 SCS Opposite-Spin Energy  =      -0.7148504228524112 [Eh]
	 SCS Correlation Energy    =      -0.7709710875593327 [Eh]
	 SCS Total Energy          =    -174.0971351605733446 [Eh]
	-----------------------------------------------------------



Properties will be evaluated at   0.000000,   0.000000,  -0.000000 [a0]

Properties computed using the MP2 density matrix

  Nuclear Dipole Moment: [e a0]
     X:     0.2654      Y:     0.1399      Z:     1.2560

  Electronic Dipole Moment: [e a0]
     X:    -0.1885      Y:    -0.1405      Z:    -1.0392

  Dipole Moment: [e a0]
     X:     0.0769      Y:    -0.0007      Z:     0.2168     Total:     0.2301

  Dipole Moment: [D]
     X:     0.1955      Y:    -0.0017      Z:     0.5511     Total:     0.5847


*** tstop() called on node44.bme.utexas.edu at Thu Nov  4 16:20:49 2021
Module time:
	user time   =      83.61 seconds =       1.39 minutes
	system time =       2.03 seconds =       0.03 minutes
	total time  =         85 seconds =       1.42 minutes
Total time:
	user time   =     106.15 seconds =       1.77 minutes
	system time =       2.60 seconds =       0.04 minutes
	total time  =        109 seconds =       1.82 minutes
  ==> One Electron Grid Properties (v2.0) <==

  ==> CubicScalarGrid <==

    Filepath     = .
    Total Points =           401478
    XYZ Blocking =               10
    X Points     =               79
    Y Points     =               77
    Z Points     =               66
    X Spacing    =        2.000E-01
    Y Spacing    =        2.000E-01
    Z Spacing    =        2.000E-01
    X Minimum    =       -7.984E+00
    Y Minimum    =       -7.460E+00
    Z Minimum    =       -6.112E+00
    X Maximum    =        7.616E+00
    Y Maximum    =        7.740E+00
    Z Maximum    =        6.888E+00

  Basis Set: AUG-CC-PVTZ
    Blend: AUG-CC-PVTZ
    Number of shells: 137
    Number of basis function: 391
    Number of Cartesian functions: 445
    Spherical Harmonics?: true
    Max angular momentum: 3



Properties will be evaluated at   0.000000,   0.000000,  -0.000000 [a0]
OEProp: No title given, name of density matrix used for the following properties is 'DF-MP2 relaxed density'
  Mulliken Charges: (a.u.)
   Center  Symbol    Alpha    Beta     Spin     Total
       1     N     3.52832  3.52832  0.00000 -0.05664
       2     C     3.46641  3.46641  0.00000 -0.93282
       3     C     3.52841  3.52841  0.00000 -1.05683
       4     C     3.50759  3.50759  0.00000 -1.01517
       5     H     0.32439  0.32439  0.00000  0.35123
       6     H     0.33937  0.33937  0.00000  0.32126
       7     H     0.31282  0.31282  0.00000  0.37436
       8     H     0.33339  0.33339  0.00000  0.33323
       9     H     0.34095  0.34095  0.00000  0.31810
      10     H     0.33008  0.33008  0.00000  0.33984
      11     H     0.32757  0.32757  0.00000  0.34485
      12     H     0.34036  0.34036  0.00000  0.31928
      13     H     0.32034  0.32034  0.00000  0.35931

   Total alpha = 17.00000, Total beta = 17.00000, Total charge = -0.00000



  Wiberg Bond Indices using Orthogonal Lowdin Orbitals:

  Irrep: 1 Size: 13 x 13

                 1                   2                   3                   4                   5

    1     0.00000000000000     1.25441998921266     1.28316996657744     1.26515891036413     0.24390270583470
    2     1.25441998921266     0.00000000000000     0.32060529245670     0.31795748174639     0.82980467026539
    3     1.28316996657744     0.32060529245670     0.00000000000000     0.33600838860447     0.04417972716908
    4     1.26515891036413     0.31795748174639     0.33600838860447     0.00000000000000     0.08228095270975
    5     0.24390270583470     0.82980467026539     0.04417972716908     0.08228095270975     0.00000000000000
    6     0.26099649263703     0.85164912154946     0.04444254731821     0.04865932841122     0.26130432869209
    7     0.26130751185801     0.07280458166681     0.83689523446228     0.04428207956533     0.00705671756951
    8     0.24489747605173     0.05343227816943     0.82467933686382     0.06333465660729     0.00569994459643
    9     0.24503382692909     0.04544601222855     0.07950132623192     0.82453281979931     0.01179485832250
   10     0.26183503567915     0.04291708602338     0.05865988957641     0.84567097088015     0.00891300601023
   11     0.24999784408388     0.83120679754957     0.08855757126987     0.04183726538594     0.25507512357003
   12     0.26196771591454     0.04210377492971     0.83609609471220     0.07353085711697     0.00332474569045
   13     0.25341222301677     0.08746310604927     0.04412114128893     0.83084517280420     0.04024038120468

                 6                   7                   8                   9                  10

    1     0.26099649263703     0.26130751185801     0.24489747605173     0.24503382692909     0.26183503567915
    2     0.85164912154946     0.07280458166681     0.05343227816943     0.04544601222855     0.04291708602338
    3     0.04444254731821     0.83689523446228     0.82467933686382     0.07950132623192     0.05865988957641
    4     0.04865932841122     0.04428207956533     0.06333465660729     0.82453281979931     0.84567097088015
    5     0.26130432869209     0.00705671756951     0.00569994459643     0.01179485832250     0.00891300601023
    6     0.00000000000000     0.00795208521899     0.00418752744443     0.00351208148251     0.00359540415396
    7     0.00795208521899     0.00000000000000     0.25219749910667     0.00754180583014     0.00434180204414
    8     0.00418752744443     0.25219749910667     0.00000000000000     0.02368527805298     0.00734817095332
    9     0.00351208148251     0.00754180583014     0.02368527805298     0.00000000000000     0.25916950669100
   10     0.00359540415396     0.00434180204414     0.00734817095332     0.25916950669100     0.00000000000000
   11     0.26052832575747     0.03354965101733     0.01745329922000     0.00332751799094     0.00333609069188
   12     0.00306686597774     0.25846899916845     0.25378495472865     0.01840161778389     0.01574344138722
   13     0.01347908740259     0.00367516436600     0.00548083813430     0.25073542326596     0.25988086290147

                11                  12                  13

    1     0.24999784408388     0.26196771591454     0.25341222301677
    2     0.83120679754957     0.04210377492971     0.08746310604927
    3     0.08855757126987     0.83609609471220     0.04412114128893
    4     0.04183726538594     0.07353085711697     0.83084517280420
    5     0.25507512357003     0.00332474569045     0.04024038120468
    6     0.26052832575747     0.00306686597774     0.01347908740259
    7     0.03354965101733     0.25846899916845     0.00367516436600
    8     0.01745329922000     0.25378495472865     0.00548083813430
    9     0.00332751799094     0.01840161778389     0.25073542326596
   10     0.00333609069188     0.01574344138722     0.25988086290147
   11     0.00000000000000     0.00939104724656     0.00936073791541
   12     0.00939104724656     0.00000000000000     0.00602279203168
   13     0.00936073791541     0.00602279203168     0.00000000000000



  Atomic Valences: 

 #  #
 Irrep: 1
      1:  6.0860997
      2:  4.7498102
      3:  4.7969165
      4:  4.7740989
      5:  1.7935772
      6:  1.7633732
      7:  1.7900731
      8:  1.7561813
      9:  1.7726821
     10:  1.7714113
     11:  1.8036213
     12:  1.7819029
     13:  1.8047169


 Electrostatic potential computed on the grid and written to grid_esp.dat

    Psi4 stopped on: Thursday, 04 November 2021 04:26PM
    Psi4 wall time for execution: 0:07:11.57

*** Psi4 exiting successfully. Buy a developer a beer!
