methanol Gaussian SP Calculation on node37.bme.utexas.edu               
SP        RMP2-FC                                                     6-311G(d,p)         
Number of atoms                            I                6
Info1-9                                    I   N=           9
          20          18           0           0           0         110
           1           2           1
Charge                                     I                0
Multiplicity                               I                1
Number of electrons                        I               18
Number of alpha electrons                  I                9
Number of beta electrons                   I                9
Number of basis functions                  I               60
Number of independent functions            I               60
Number of point charges in /Mol/           I                0
Number of translation vectors              I                0
Atomic numbers                             I   N=           6
           8           6           1           1           1           1
Nuclear charges                            R   N=           6
  8.00000000E+00  6.00000000E+00  1.00000000E+00  1.00000000E+00  1.00000000E+00
  1.00000000E+00
Current cartesian coordinates              R   N=          18
  1.41640832E+00  2.31659637E-01 -3.77945227E-06 -1.25562286E+00 -3.71198904E-02
  3.14954355E-07 -1.95445870E+00 -1.02571500E+00  1.68444518E+00 -1.95445681E+00
 -1.02578492E+00 -1.68440172E+00 -2.03411255E+00  1.87035455E+00 -3.77945227E-05
  2.14550434E+00 -1.44941239E+00  1.88972613E-05
Force Field                                I                0
Int Atom Types                             I   N=           6
           0           0           0           0           0           0
MM charges                                 R   N=           6
  0.00000000E+00  0.00000000E+00  0.00000000E+00  0.00000000E+00  0.00000000E+00
  0.00000000E+00
Integer atomic weights                     I   N=           6
          16          12           1           1           1           1
Real atomic weights                        R   N=           6
  1.59949146E+01  1.20000000E+01  1.00782504E+00  1.00782504E+00  1.00782504E+00
  1.00782504E+00
Atom fragment info                         I   N=           6
           0           0           0           0           0           0
Atom residue num                           I   N=           6
           0           0           0           0           0           0
Nuclear spins                              I   N=           6
           0           0           1           1           1           1
Nuclear ZEff                               R   N=           6
 -5.60000000E+00 -3.60000000E+00 -1.00000000E+00 -1.00000000E+00 -1.00000000E+00
 -1.00000000E+00
Nuclear QMom                               R   N=           6
  0.00000000E+00  0.00000000E+00  0.00000000E+00  0.00000000E+00  0.00000000E+00
  0.00000000E+00
Nuclear GFac                               R   N=           6
  0.00000000E+00  0.00000000E+00  2.79284600E+00  2.79284600E+00  2.79284600E+00
  2.79284600E+00
MicOpt                                     I   N=           6
          -1          -1          -1          -1          -1          -1
Number of contracted shells                I               26
Number of primitive shells                 I               48
Pure/Cartesian d shells                    I                0
Pure/Cartesian f shells                    I                0
Highest angular momentum                   I                2
Largest degree of contraction              I                6
Shell types                                I   N=          26
           0          -1          -1          -1          -2           0
          -1          -1          -1          -2           0           0
           0           1           0           0           0           1
           0           0           0           1           0           0
           0           1
Number of primitives per shell             I   N=          26
           6           3           1           1           1           6
           3           1           1           1           3           1
           1           1           3           1           1           1
           3           1           1           1           3           1
           1           1
Shell to atom map                          I   N=          26
           1           1           1           1           1           2
           2           2           2           2           3           3
           3           3           4           4           4           4
           5           5           5           5           6           6
           6           6
Primitive exponents                        R   N=          48
  8.58850000E+03  1.29723000E+03  2.99296000E+02  8.73771000E+01  2.56789000E+01
  3.74004000E+00  4.21175000E+01  9.62837000E+00  2.85332000E+00  9.05661000E-01
  2.55611000E-01  1.29200000E+00  4.56324000E+03  6.82024000E+02  1.54973000E+02
  4.44553000E+01  1.30290000E+01  1.82773000E+00  2.09642000E+01  4.80331000E+00
  1.45933000E+00  4.83456000E-01  1.45585000E-01  6.26000000E-01  3.38650000E+01
  5.09479000E+00  1.15879000E+00  3.25840000E-01  1.02741000E-01  7.50000000E-01
  3.38650000E+01  5.09479000E+00  1.15879000E+00  3.25840000E-01  1.02741000E-01
  7.50000000E-01  3.38650000E+01  5.09479000E+00  1.15879000E+00  3.25840000E-01
  1.02741000E-01  7.50000000E-01  3.38650000E+01  5.09479000E+00  1.15879000E+00
  3.25840000E-01  1.02741000E-01  7.50000000E-01
Contraction coefficients                   R   N=          48
  1.89515008E-03  1.43859006E-02  7.07320031E-02  2.40001011E-01  5.94797026E-01
  2.80802012E-01  1.13889012E-01  9.20811101E-01 -3.27447036E-03  1.00000000E+00
  1.00000000E+00  1.00000000E+00  1.96665025E-03  1.52306019E-02  7.61269097E-02
  2.60801033E-01  6.16462078E-01  2.21006028E-01  1.14660081E-01  9.19999648E-01
 -3.03068213E-03  1.00000000E+00  1.00000000E+00  1.00000000E+00  2.54938145E-02
  1.90373109E-01  8.52161486E-01  1.00000000E+00  1.00000000E+00  1.00000000E+00
  2.54938145E-02  1.90373109E-01  8.52161486E-01  1.00000000E+00  1.00000000E+00
  1.00000000E+00  2.54938145E-02  1.90373109E-01  8.52161486E-01  1.00000000E+00
  1.00000000E+00  1.00000000E+00  2.54938145E-02  1.90373109E-01  8.52161486E-01
  1.00000000E+00  1.00000000E+00  1.00000000E+00
P(S=P) Contraction coefficients            R   N=          48
  0.00000000E+00  0.00000000E+00  0.00000000E+00  0.00000000E+00  0.00000000E+00
  0.00000000E+00  3.65113974E-02  2.37152983E-01  8.19701941E-01  1.00000000E+00
  1.00000000E+00  0.00000000E+00  0.00000000E+00  0.00000000E+00  0.00000000E+00
  0.00000000E+00  0.00000000E+00  0.00000000E+00  4.02486927E-02  2.37593957E-01
  8.15853851E-01  1.00000000E+00  1.00000000E+00  0.00000000E+00  0.00000000E+00
  0.00000000E+00  0.00000000E+00  0.00000000E+00  0.00000000E+00  0.00000000E+00
  0.00000000E+00  0.00000000E+00  0.00000000E+00  0.00000000E+00  0.00000000E+00
  0.00000000E+00  0.00000000E+00  0.00000000E+00  0.00000000E+00  0.00000000E+00
  0.00000000E+00  0.00000000E+00  0.00000000E+00  0.00000000E+00  0.00000000E+00
  0.00000000E+00  0.00000000E+00  0.00000000E+00
Coordinates of each shell                  R   N=          78
  1.41640791E+00  2.31660212E-01 -4.09440662E-06  1.41640791E+00  2.31660212E-01
 -4.09440662E-06  1.41640791E+00  2.31660212E-01 -4.09440662E-06  1.41640791E+00
  2.31660212E-01 -4.09440662E-06  1.41640791E+00  2.31660212E-01 -4.09440662E-06
 -1.25562316E+00 -3.71204005E-02  0.00000000E+00 -1.25562316E+00 -3.71204005E-02
  0.00000000E+00 -1.25562316E+00 -3.71204005E-02  0.00000000E+00 -1.25562316E+00
 -3.71204005E-02  0.00000000E+00 -1.25562316E+00 -3.71204005E-02  0.00000000E+00
 -1.95445860E+00 -1.02571579E+00  1.68444487E+00 -1.95445860E+00 -1.02571579E+00
  1.68444487E+00 -1.95445860E+00 -1.02571579E+00  1.68444487E+00 -1.95445860E+00
 -1.02571579E+00  1.68444487E+00 -1.95445671E+00 -1.02578571E+00 -1.68440203E+00
 -1.95445671E+00 -1.02578571E+00 -1.68440203E+00 -1.95445671E+00 -1.02578571E+00
 -1.68440203E+00 -1.95445671E+00 -1.02578571E+00 -1.68440203E+00 -2.03411362E+00
  1.87035372E+00 -3.81094770E-05 -2.03411362E+00  1.87035372E+00 -3.81094770E-05
 -2.03411362E+00  1.87035372E+00 -3.81094770E-05 -2.03411362E+00  1.87035372E+00
 -3.81094770E-05  2.14550462E+00 -1.44941151E+00  1.85823070E-05  2.14550462E+00
 -1.44941151E+00  1.85823070E-05  2.14550462E+00 -1.44941151E+00  1.85823070E-05
  2.14550462E+00 -1.44941151E+00  1.85823070E-05
Constraint Structure                       R   N=          18
  1.41640791E+00  2.31660212E-01 -4.09440662E-06 -1.25562316E+00 -3.71204005E-02
  0.00000000E+00 -1.95445860E+00 -1.02571579E+00  1.68444487E+00 -1.95445671E+00
 -1.02578571E+00 -1.68440203E+00 -2.03411362E+00  1.87035372E+00 -3.81094770E-05
  2.14550462E+00 -1.44941151E+00  1.85823070E-05
Num ILSW                                   I              100
ILSW                                       I   N=         100
           0           0           0           0           2           0
           0           0           0           0           0 26843545600
           0           0           0           0           0           0
           0           0           0           0           0           0
           1           0           0           0           0           0
           0           0      100000           0          -1           0
           0           0           0           0           0           0
           0           0           0           1           0           0
           0           0           1           0           0           0
           0           0           4          40           0           0
           0           0           0           0           0           0
           0           0           0           0           0           0
           0           0           0           0           0           0
           0           0           0           0           0           0
           0           0           0           0           0           0
           0           0           0           0           0           0
           0           0           0           0
Num RLSW                                   I               40
RLSW                                       R   N=          40
  1.00000000E+00  1.00000000E+00  1.00000000E+00  1.00000000E+00  1.00000000E+00
  0.00000000E+00  0.00000000E+00  1.00000000E+00  0.00000000E+00  0.00000000E+00
  0.00000000E+00  0.00000000E+00  1.00000000E+00  0.00000000E+00  0.00000000E+00
  0.00000000E+00  0.00000000E+00  1.00000000E+00  0.00000000E+00  0.00000000E+00
  0.00000000E+00  0.00000000E+00  1.00000000E+00  0.00000000E+00  0.00000000E+00
  0.00000000E+00  0.00000000E+00  1.00000000E+00  0.00000000E+00  0.00000000E+00
  0.00000000E+00  0.00000000E+00  0.00000000E+00  0.00000000E+00  0.00000000E+00
  0.00000000E+00  0.00000000E+00  0.00000000E+00  1.00000000E+00  1.00000000E+00
MxBond                                     I                4
NBond                                      I   N=           6
           2           4           1           1           1           1
IBond                                      I   N=          24
           2           6           0           0           1           3
           4           5           2           0           0           0
           2           0           0           0           2           0
           0           0           1           0           0           0
RBond                                      R   N=          24
  1.00000000E+00  1.00000000E+00  0.00000000E+00  0.00000000E+00  1.00000000E+00
  1.00000000E+00  1.00000000E+00  1.00000000E+00  1.00000000E+00  0.00000000E+00
  0.00000000E+00  0.00000000E+00  1.00000000E+00  0.00000000E+00  0.00000000E+00
  0.00000000E+00  1.00000000E+00  0.00000000E+00  0.00000000E+00  0.00000000E+00
  1.00000000E+00  0.00000000E+00  0.00000000E+00  0.00000000E+00
Virial Ratio                               R      2.000866006345619E+00
SCF Energy                                 R     -1.150742723224840E+02
MP2 Energy                                 R     -1.154362034602005E+02
Total Energy                               R     -1.154362034602005E+02
Post-SCF wavefunction norm                 R      1.048640452196894E+00
RMS Density                                R      3.408733601314862E-09
External E-field                           R   N=          35
  0.00000000E+00  0.00000000E+00  0.00000000E+00  0.00000000E+00  0.00000000E+00
  0.00000000E+00  0.00000000E+00  0.00000000E+00  0.00000000E+00  0.00000000E+00
  0.00000000E+00  0.00000000E+00  0.00000000E+00  0.00000000E+00  0.00000000E+00
  0.00000000E+00  0.00000000E+00  0.00000000E+00  0.00000000E+00  0.00000000E+00
  0.00000000E+00  0.00000000E+00  0.00000000E+00  0.00000000E+00  0.00000000E+00
  0.00000000E+00  0.00000000E+00  0.00000000E+00  0.00000000E+00  0.00000000E+00
  0.00000000E+00  0.00000000E+00  0.00000000E+00  0.00000000E+00  0.00000000E+00
IOpCl                                      I                0
IROHF                                      I                0
Alpha Orbital Energies                     R   N=          60
 -2.05460941E+01 -1.12707739E+01 -1.34900852E+00 -9.21308404E-01 -6.84142613E-01
 -6.15266321E-01 -5.87326264E-01 -4.99236939E-01 -4.46445591E-01  1.53351167E-01
  1.87205085E-01  2.25498420E-01  2.31421788E-01  3.42203079E-01  4.54462580E-01
  4.79029600E-01  5.78604573E-01  6.80396802E-01  7.25879008E-01  7.83922280E-01
  7.96778537E-01  8.99351367E-01  1.02379720E+00  1.05274682E+00  1.11304290E+00
  1.31327839E+00  1.38912105E+00  1.59570352E+00  1.61933037E+00  1.71313946E+00
  1.71849137E+00  1.73837489E+00  1.74186564E+00  1.86940289E+00  1.93679440E+00
  2.03777797E+00  2.25447897E+00  2.29492640E+00  2.39392131E+00  2.47186453E+00
  2.61099126E+00  2.64645768E+00  2.70725767E+00  2.79824567E+00  2.81646610E+00
  2.89861656E+00  3.09522199E+00  3.30531280E+00  3.46762945E+00  3.59363659E+00
  3.67501696E+00  4.06164883E+00  4.15694612E+00  4.29901600E+00  4.36720603E+00
  5.40590461E+00  5.78492488E+00  6.18772509E+00  2.50139172E+01  5.15735807E+01
Alpha MO coefficients                      R   N=        3600
  5.51467257E-01  4.71677768E-01 -8.79672938E-04 -1.54260750E-03  2.14168098E-08
  5.53613472E-03  3.10788956E-04  5.95108988E-04 -8.28076160E-09 -7.82831341E-04
  1.57016805E-04 -1.20920238E-04  1.63631710E-09  1.68398375E-04 -4.91205915E-10
  3.07015108E-09 -6.86334936E-05  4.34698676E-05 -2.79847984E-06 -3.09227375E-05
  2.22877118E-05  1.60349611E-05 -2.82366203E-10  8.24771719E-05  2.62420885E-04
 -2.30332439E-05  6.45543678E-10  4.98523061E-04  1.87888678E-04  1.54939418E-04
 -2.29692887E-09 -5.67114502E-05 -5.77857732E-11  3.05093938E-10  1.26750974E-04
 -7.01496650E-06  9.50545803E-06 -4.75509667E-05  4.61394542E-08 -2.32777375E-05
 -1.14370568E-05 -1.86684804E-05  9.50556873E-06 -4.75499988E-05  4.59893278E-08
 -2.32778331E-05 -1.14361039E-05  1.86691421E-05  2.93269427E-05 -1.20661036E-04
 -4.60203665E-05  1.57275018E-06 -1.62360810E-05  2.63261274E-10  2.00941069E-04
  1.16139578E-04  6.10867054E-05 -8.77540296E-05  7.15411030E-05 -9.24178346E-10
 -6.73384680E-05 -1.20924198E-04 -9.65692529E-05 -1.75690354E-05  2.57435068E-10
  2.72584984E-04 -5.32539933E-04 -4.18060992E-05  6.12189433E-10  3.73008520E-04
 -1.59518798E-04 -3.60008209E-05  7.31172618E-10 -1.04362809E-04 -9.78264947E-10
  7.69286120E-11  1.90929985E-04  6.46485409E-05  5.63474832E-01  4.66569361E-01
  9.31068642E-04 -1.33346079E-05  7.15101697E-10  3.98555063E-03 -7.33041585E-04
  1.73445471E-05 -2.67869392E-09 -1.21109160E-03  1.29161915E-04 -3.38883267E-05
  3.46127803E-10  1.09307861E-04  1.57386766E-09  4.27256774E-10 -2.51112563E-04
 -5.21358505E-05  3.39989865E-04  1.06667600E-04  2.40375881E-04  3.94889126E-05
 -1.09342019E-06  5.48347977E-06  3.39990557E-04  1.06663920E-04  2.40377440E-04
  3.94882622E-05 -1.09418558E-06 -5.48468133E-06  3.37110866E-04  7.66091781E-05
  2.75564046E-04  2.79992712E-05  2.69168845E-05 -6.77915631E-10 -1.45132922E-05
  8.15815629E-06 -2.38666125E-05 -1.58014086E-05  3.58142834E-05 -4.92805104E-10
 -1.09793082E-01 -1.83449722E-01 -1.87540069E-02 -2.76145794E-02  3.75107292E-07
  5.21368302E-01 -3.48445942E-02 -4.80768624E-02  6.53763800E-07  3.96485507E-01
 -2.86305122E-02 -1.83963289E-02  2.55731561E-07 -7.66671030E-03  1.47628427E-08
 -1.61076638E-07  1.33752715E-03 -1.26897154E-03 -3.70325693E-02 -6.05771357E-02
  3.94707948E-02  2.28941270E-03 -4.86577939E-08  1.51628783E-01  7.91835591E-02
  3.60302710E-03 -7.24237754E-08  4.39706721E-03 -3.96105156E-03 -5.04894544E-03
  5.37106976E-08 -1.42638415E-02 -2.99296004E-08 -2.03221486E-08  2.35280573E-02
  2.01060888E-03  1.45376066E-02  2.95957907E-02 -1.08815062E-03  4.03134972E-03
  4.11611728E-03 -6.53457762E-03  1.45376622E-02  2.95958202E-02 -1.08817088E-03
  4.03134933E-03  4.11638945E-03  6.53440873E-03  1.49970305E-02  3.15105414E-02
  1.22639434E-03  3.74572817E-03 -7.55469140E-03  1.54438409E-07  8.62025250E-02
  7.30250367E-02 -4.32981849E-04 -1.28717530E-02  2.27289175E-02 -3.05874726E-07
  3.18163462E-02  5.34904836E-02 -8.02422471E-02  2.66723722E-02 -3.65819707E-07
 -1.55197435E-01 -1.28243201E-01  4.35637002E-02 -5.97396458E-07 -1.49421997E-01
 -7.12214353E-02  1.52229719E-02 -2.13681162E-07 -1.35937499E-03 -9.59468948E-08
  1.26380787E-07  1.16711965E-02  7.10282997E-03 -9.47177195E-02 -1.57469089E-01
 -3.17898409E-02  3.91950862E-03 -1.55155542E-07  4.10644043E-01 -2.94523788E-02
  7.20535063E-03 -2.16030979E-07  2.48131571E-01 -2.49956145E-02 -8.20217400E-03
  1.00753130E-07 -1.28930064E-04 -1.53113457E-08 -1.45817091E-08 -2.56514973E-03
  1.61248435E-03  8.33425527E-02  1.16395388E-01  3.99702048E-03  5.13963416E-03
  1.00755773E-02 -1.64585832E-02  8.33427667E-02  1.16395594E-01  3.99702103E-03
  5.13963814E-03  1.00762806E-02  1.64581744E-02  8.69838498E-02  1.25439861E-01
  7.56742801E-03  5.66512598E-03 -1.99259608E-02  3.94663101E-07 -6.82425274E-02
 -8.26038613E-02 -1.32618590E-02  2.63201184E-03 -1.63708169E-02  2.17591248E-07
 -2.10509854E-02 -3.58442327E-02 -9.77044481E-02  1.64559938E-01 -2.03892792E-06
  1.10176732E-01 -1.54684909E-01  2.52849593E-01 -3.12837448E-06  1.59845822E-01
 -9.23551825E-02  1.73299135E-01 -2.09549992E-06  4.89992340E-03 -4.81835042E-08
  3.66661311E-07  1.93249569E-02  2.03476068E-03  1.07611977E-02  1.73458490E-02
  7.41662691E-02  9.46125781E-02 -9.60282192E-07 -4.08797732E-02  1.28440460E-01
  1.58440876E-01 -1.66553833E-06 -5.68251363E-02  4.87830661E-02  9.41583138E-02
 -1.13638991E-06 -2.36546208E-02 -1.59253252E-07 -6.82376140E-07  1.52014594E-02
  1.12802268E-02 -6.60866558E-02 -8.95146587E-02 -2.43959850E-02  5.39278260E-04
 -1.21382701E-04  8.11787583E-03 -6.60879618E-02 -8.95164888E-02 -2.43965883E-02
  5.39225421E-04 -1.21809218E-04 -8.11796010E-03  3.26638474E-02  3.90795827E-02
  1.27285813E-02  2.93926916E-03 -1.38685462E-03  7.54116681E-08 -1.33708209E-01
 -2.05494294E-01 -4.09782643E-02  1.42134169E-02 -2.47845259E-02  3.53807952E-07
  1.78796208E-08  3.04749732E-08  6.84292355E-07  1.83667068E-06  1.54319393E-01
 -9.33508100E-08  1.06363419E-06  2.86440179E-06  2.40190178E-01 -1.74832435E-07
  7.95664954E-07  2.59679978E-06  2.09410491E-01  2.04320343E-07 -1.13940002E-02
 -8.36147606E-03  4.92530254E-08 -2.17132235E-07 -4.24292607E-08 -7.03401641E-08
 -5.09700050E-07  2.58999438E-06  1.62451468E-01  1.60673474E-07 -9.16625454E-07
  4.13235267E-06  2.63278859E-01  5.10258271E-07 -4.74786335E-07  2.22432354E-06
  1.51722202E-01  9.86395917E-07  1.25135261E-03 -2.27516161E-02  3.91850546E-07
 -4.63847222E-08  1.09081700E-01  1.63723575E-01  6.54398758E-02  4.64430283E-03
  8.56853979E-03 -7.37324484E-03 -1.09080765E-01 -1.63722322E-01 -6.54394409E-02
 -4.64432402E-03 -8.56887406E-03 -7.37276100E-03 -3.00868987E-07 -4.13738347E-07
 -1.57162546E-07 -2.10770323E-08  1.91158150E-07  8.86785665E-03  4.19704699E-07
  6.13400608E-07  2.29825106E-07  2.63182956E-08  3.08406395E-07  1.59625804E-02
 -1.42699987E-02 -2.41633739E-02  1.75941065E-01  6.65778681E-02 -1.61348736E-06
  7.30129492E-02  2.72747207E-01  1.02163262E-01 -2.48852558E-06  1.06138508E-01
  2.22594615E-01  9.41209376E-02 -2.25428728E-06  6.58284106E-03  2.92193021E-07
  7.92693531E-08 -8.15737727E-03 -1.79388586E-02  6.01374620E-04  1.85767055E-03
 -1.28583553E-01  9.99362965E-02 -1.87598603E-06 -7.74264166E-03 -2.27213283E-01
  1.61937214E-01 -3.03584326E-06  1.83465376E-02 -1.08969404E-01  1.25068941E-01
 -2.32501383E-06  6.76590964E-03  1.13125867E-07 -6.64839679E-07 -4.20777187E-02
 -8.67028232E-03 -3.57030113E-03 -5.03258528E-03 -1.02493954E-03 -5.61488084E-03
  3.16940788E-03  2.06235069E-03 -3.57067564E-03 -5.03310403E-03 -1.02516482E-03
 -5.61491392E-03  3.16931527E-03 -2.06250961E-03  1.23952793E-01  1.71186349E-01
  6.30075866E-02 -7.42069171E-04 -1.04393823E-02  2.12501788E-07  3.03837954E-02
  3.76662498E-02  4.17151931E-02  1.63825815E-02  1.16767289E-02 -2.26658254E-07
 -2.51862537E-02 -4.28086107E-02  7.30799242E-02  1.71626741E-01 -1.55792772E-06
  1.29601392E-01  1.08622587E-01  2.55111095E-01 -2.28587692E-06  2.18021039E-01
  1.30312273E-01  2.40193501E-01 -2.07581598E-06  1.01606524E-02 -1.63461870E-08
  2.90075401E-07  5.47068188E-03 -4.22379559E-04  4.60413609E-03  7.99235610E-03
 -3.53216261E-02 -1.39275529E-01  1.82481353E-06 -2.48188692E-02 -6.78219796E-02
 -2.16047991E-01  2.91307102E-06  1.64796494E-02 -8.50838367E-03 -1.14945277E-01
  1.69171356E-06  2.32498431E-02 -3.36535704E-07  8.91157743E-07 -4.43071866E-03
  3.02466178E-02  7.19685120E-02  1.21915950E-01  6.37019205E-02  1.27747452E-03
 -4.79069699E-03 -9.95691990E-03  7.19702573E-02  1.21919278E-01  6.37031967E-02
  1.27758018E-03 -4.79012614E-03  9.95726398E-03 -1.14707219E-01 -2.19594555E-01
 -8.02216487E-02 -9.65099879E-03  1.37345250E-02 -3.44949514E-07 -8.44636490E-02
 -1.59481649E-01 -3.58212115E-02  1.99162777E-02 -1.09167314E-02  2.11061921E-07
  4.90894285E-08  8.32514693E-08 -3.84402594E-08  3.07870660E-06  2.48932929E-01
 -2.38643697E-07 -5.25823388E-08  4.64161682E-06  3.73567261E-01 -5.50253287E-07
 -1.22536596E-07  5.25774447E-06  4.15005554E-01  2.30470785E-07 -3.28626001E-03
 -1.08751461E-02  1.31618939E-07 -5.86784145E-08 -1.26547000E-08 -1.87701453E-08
  1.25238456E-08 -1.01376369E-06 -1.04228508E-01  4.35163057E-08  7.97634459E-08
 -1.48931952E-06 -1.60422502E-01 -1.28157025E-07 -3.51363644E-08 -6.13878990E-07
 -8.04800677E-02 -7.84228969E-07  3.66051827E-02  1.79119549E-02 -4.18339318E-07
  4.07823089E-07 -9.29629480E-02 -1.89076579E-01 -8.30123119E-02 -5.20741930E-03
 -8.13783399E-03  6.84669688E-03  9.29617956E-02  1.89074364E-01  8.30110553E-02
  5.20737813E-03  8.13821494E-03  6.84615948E-03  1.07440412E-06  2.07480650E-06
  9.78296908E-07  6.38195224E-08 -2.75315333E-07 -8.21510855E-03  1.87255795E-07
  5.14060848E-07  1.15489806E-07 -5.78957100E-08  3.86223667E-07  2.56658052E-02
 -1.98314152E-02 -3.30324021E-02  3.44125447E-02 -5.04558935E-02  6.77596183E-07
  8.29407474E-02  2.78762658E-02 -7.08521972E-02  9.35271185E-07  3.60857306E-01
  2.15309368E-01 -1.28824407E-01  1.81004804E-06 -4.50458551E-04 -1.75232862E-08
 -4.91751597E-08 -2.24565258E-03  1.55132437E-03 -2.96241018E-02 -4.70911637E-02
 -5.89263914E-02 -2.30426816E-02  2.11671249E-07  1.64208907E-02 -6.40421044E-02
 -1.75207002E-02  2.61558752E-07  1.66921092E+00 -2.32767950E-01 -1.64580680E-01
  1.10221679E-06 -4.94738753E-03  6.00500357E-08 -6.11228914E-08  6.89457123E-03
 -6.00775070E-03 -3.38357847E-03 -1.28441224E-02 -7.82014406E-01 -6.83637900E-03
  1.64119961E-03 -3.17084776E-04 -3.38358153E-03 -1.28437425E-02 -7.82021648E-01
 -6.83634664E-03  1.64128718E-03  3.17151058E-04 -1.99472751E-03 -4.68592427E-02
 -4.29193132E-01 -9.08048984E-03  4.94099719E-03 -9.87118548E-08 -3.23194984E-02
  9.91226109E-02 -9.35469137E-01 -8.96766873E-03  1.01231952E-02 -1.30093477E-07
  2.30243862E-02  3.79835271E-02  3.56315612E-03  6.36103570E-02 -9.60809453E-07
 -7.93076575E-02  2.75327670E-02  8.91365058E-02 -1.30347468E-06 -5.70191843E-01
 -3.36980749E-02  2.03606097E-01 -3.25415905E-06  4.60297516E-04  2.38668442E-08
  1.04758409E-07  5.95803418E-03 -3.24111438E-03 -3.65974977E-02 -5.94421711E-02
 -8.28225057E-03  2.25187616E-02  8.98338857E-08  8.84999641E-02  1.82648048E-02
  1.22971847E-02  1.48775187E-07  1.28340904E+00 -1.74422493E-01  2.42138912E-01
 -3.96213390E-07  5.25109437E-04 -4.32843191E-08 -3.21064976E-08 -5.86093928E-03
  5.27549316E-03 -1.30828176E-02  7.71840820E-02 -6.09494099E-01  8.13549591E-03
 -1.59271641E-03 -3.86707605E-03 -1.30826927E-02  7.71838551E-02 -6.09484067E-01
  8.13546066E-03 -1.59262740E-03  3.86701653E-03 -1.35083437E-02  7.08229358E-02
 -1.04895189E+00  8.81432135E-03 -6.32158221E-03  1.33187453E-07  3.93745613E-02
 -8.35701481E-02  1.19597437E+00  1.04546937E-02 -5.38189121E-04 -2.40634064E-08
 -1.68875674E-07 -2.80111958E-07 -9.73021614E-08 -5.85894806E-07 -1.56380302E-02
  6.08028380E-07 -2.36049361E-07 -5.66077820E-07 -9.17839199E-03  4.30987744E-06
 -1.25103624E-07 -3.40062561E-06 -1.12205992E-01 -1.01660404E-07 -7.00677359E-03
  2.31233971E-03 -7.28761514E-08 -1.54276739E-07  9.35558318E-08  1.45139691E-07
 -2.89686360E-07  3.10829215E-06  1.43056890E-01 -1.64649388E-07 -5.39987312E-07
  1.59429009E-06  8.58871110E-02 -3.10634341E-06 -1.74341663E-06  2.45878309E-05
  1.10921931E+00 -8.59084559E-07  1.87205453E-02  2.52129777E-02 -4.63614161E-07
  4.58426778E-07 -1.37305028E-02  1.84191735E-01 -1.90520429E+00  8.87343122E-03
  1.67982144E-02 -2.42263177E-02  1.37304884E-02 -1.84193282E-01  1.90521224E+00
 -8.87361464E-03 -1.67993402E-02 -2.42257921E-02  1.26716226E-08 -8.08290389E-08
 -2.69628326E-06 -2.59130004E-08 -1.65294284E-09  4.03416796E-03 -6.02563277E-08
  9.77233522E-07 -7.74359517E-06 -3.75100626E-08 -1.56223112E-07 -7.07801207E-03
  9.32203173E-03  1.55029553E-02  1.15413252E-02  2.78934115E-02 -5.99625891E-07
 -3.52852395E-02  2.04398764E-02  3.24146248E-02 -6.70319019E-07 -2.28149583E-01
  3.54625835E-02  1.30969297E-01 -2.90163980E-06 -7.19077209E-04 -1.57310254E-07
 -5.95566549E-08 -1.23820920E-03  6.48820821E-03 -4.05757363E-03 -6.86373037E-03
  2.40402574E-02 -1.36598746E-01  3.25389227E-06  1.48425118E-02  2.85570201E-02
 -7.95982186E-02  2.16552307E-06  6.24008495E-02  1.95669855E-01 -1.08554874E+00
  2.51649297E-05 -2.07134619E-02  4.33783472E-07 -1.01255673E-06 -1.66042912E-02
 -2.05760748E-02 -1.24510621E-02  1.04075038E-01 -1.09586608E+00  8.38865527E-03
  4.51204486E-03 -1.57190545E-02 -1.24508486E-02  1.04074561E-01 -1.09585793E+00
  8.38864158E-03  4.51263481E-03  1.57188580E-02  1.92347461E-02 -1.51906996E-01
  2.13358605E+00 -9.98995815E-03  3.24609565E-02 -6.14617847E-07  1.87472162E-03
 -4.95863203E-02  2.88427892E-01  1.42783095E-03 -3.09263830E-03  4.07217309E-08
  2.45195192E-02  4.01865115E-02  1.33207180E-01 -2.22607117E-02  3.10677940E-07
 -6.77813169E-02  1.55525199E-01 -1.59954358E-02  2.34770238E-07 -1.02821391E+00
  8.10405556E-01 -6.04922457E-02  8.07908675E-07  4.39063905E-03  3.22010921E-08
  1.02525298E-07 -8.83389625E-04 -2.38637481E-03 -1.49305964E-02 -2.46592282E-02
  9.67958234E-02  1.78341821E-02 -2.07190934E-07  2.11316954E-02  9.68900927E-02
  1.73363540E-02 -1.73110371E-07  6.23065885E-01  1.79253155E+00  2.97806762E-01
 -4.37557563E-06  8.57546866E-03  1.06723107E-07  3.22375820E-08 -1.43213291E-02
 -6.21220295E-03  1.18888687E-02  1.95015418E-01  3.46300897E-01  6.18207183E-03
  2.03922793E-03  1.07393401E-03  1.18888200E-02  1.95014589E-01  3.46307567E-01
  6.18208362E-03  2.03915856E-03 -1.07406267E-03  1.48709021E-02  1.78448491E-01
 -1.81306720E-01  9.31380800E-04 -1.51784111E-03  4.31309073E-08 -2.58147984E-03
  9.02845504E-02 -8.95797938E-01 -8.11315514E-03  1.59148912E-02 -2.70061376E-07
  4.94217167E-03  8.97609845E-03 -2.16896333E-02 -5.22199502E-02  1.77065788E-06
 -5.16292110E-02 -4.14391333E-02 -5.64334855E-02  2.01168452E-06  1.23134643E-01
  7.60066015E-02 -5.92123634E-01  1.37588712E-05 -3.61951193E-03  2.63388350E-07
 -1.52711847E-07 -5.39601246E-03 -1.27156861E-02 -1.65285640E-03 -4.00385499E-03
  1.42162214E-03  9.01552601E-03 -5.56091404E-07  4.30090790E-02  4.85793436E-03
  7.04614401E-02 -1.74356131E-06 -1.17170990E-01 -1.96365756E-01  1.87169193E+00
 -5.05628323E-05 -2.25617433E-02  1.09399173E-06 -1.02455414E-06 -9.18217871E-03
 -3.54478423E-02  2.56290173E-02  7.07499577E-01 -4.55044824E-02  2.25998688E-02
  3.12105193E-02 -2.28692758E-02  2.56280934E-02  7.07481113E-01 -4.55010315E-02
  2.25994848E-02  3.12115659E-02  2.28673015E-02 -5.12286918E-02 -1.40415311E+00
  9.38509209E-03 -4.75160296E-02  6.50668042E-02 -1.46155821E-06  2.56103784E-02
 -4.50651215E-01  4.56321152E-01  4.53141875E-02 -3.20215608E-02  1.93190592E-07
  1.12635880E-07  1.95834493E-07 -4.43884968E-07 -1.63127359E-06 -7.45126426E-02
 -5.94908902E-07 -8.74184349E-07 -1.70227912E-06 -9.14761247E-02 -2.36323401E-06
 -2.05128455E-07 -9.74228039E-06 -3.79801544E-01 -2.63823176E-07 -8.82348756E-03
  8.06996617E-03 -1.88833476E-07 -3.19715798E-07  1.10563473E-09  9.06704711E-09
 -1.21434140E-07  7.32726807E-07  3.15112215E-02  1.37890230E-07  3.20347192E-07
  2.93407832E-06  8.63405193E-02 -4.22775746E-06 -1.22528944E-06  5.53933316E-05
  1.80006117E+00  1.38327968E-07 -4.55220622E-02 -1.57463024E-02  3.88652474E-07
 -1.30215874E-06 -4.93021888E-02 -1.20635255E+00 -2.22962188E-02 -2.60346897E-02
 -1.39596732E-02  5.21949932E-02  4.93027872E-02  1.20636772E+00  2.22990236E-02
  2.60350117E-02  1.39626496E-02  5.21951558E-02 -4.68511998E-07 -1.28864007E-05
 -1.06148928E-06 -3.23297447E-07  1.17537878E-06  2.54320980E-02  5.90693120E-07
  3.21215578E-06  1.28452614E-06  5.90121211E-08 -1.60816598E-08 -5.97432369E-03