methanol Gaussian SP Calculation on node37.bme.utexas.edu               
SP        RMP2-FC                                                     Aug-CC-pVTZ         
Number of atoms                            I                6
Info1-9                                    I   N=           9
          20          18           0           0           0         110
           1           2           1
Charge                                     I                0
Multiplicity                               I                1
Number of electrons                        I               18
Number of alpha electrons                  I                9
Number of beta electrons                   I                9
Number of basis functions                  I              184
Number of independent functions            I              184
Number of point charges in /Mol/           I                0
Number of translation vectors              I                0
Atomic numbers                             I   N=           6
           8           6           1           1           1           1
Nuclear charges                            R   N=           6
  8.00000000E+00  6.00000000E+00  1.00000000E+00  1.00000000E+00  1.00000000E+00
  1.00000000E+00
Current cartesian coordinates              R   N=          18
  1.41640832E+00  2.31659637E-01 -3.77945227E-06 -1.25562286E+00 -3.71198904E-02
  3.14954355E-07 -1.95445870E+00 -1.02571500E+00  1.68444518E+00 -1.95445681E+00
 -1.02578492E+00 -1.68440172E+00 -2.03411255E+00  1.87035455E+00 -3.77945227E-05
  2.14550434E+00 -1.44941239E+00  1.88972613E-05
Force Field                                I                0
Int Atom Types                             I   N=           6
           0           0           0           0           0           0
MM charges                                 R   N=           6
  0.00000000E+00  0.00000000E+00  0.00000000E+00  0.00000000E+00  0.00000000E+00
  0.00000000E+00
Integer atomic weights                     I   N=           6
          16          12           1           1           1           1
Real atomic weights                        R   N=           6
  1.59949146E+01  1.20000000E+01  1.00782504E+00  1.00782504E+00  1.00782504E+00
  1.00782504E+00
Atom fragment info                         I   N=           6
           0           0           0           0           0           0
Atom residue num                           I   N=           6
           0           0           0           0           0           0
Nuclear spins                              I   N=           6
           0           0           1           1           1           1
Nuclear ZEff                               R   N=           6
 -5.60000000E+00 -3.60000000E+00 -1.00000000E+00 -1.00000000E+00 -1.00000000E+00
 -1.00000000E+00
Nuclear QMom                               R   N=           6
  0.00000000E+00  0.00000000E+00  0.00000000E+00  0.00000000E+00  0.00000000E+00
  0.00000000E+00
Nuclear GFac                               R   N=           6
  0.00000000E+00  0.00000000E+00  2.79284600E+00  2.79284600E+00  2.79284600E+00
  2.79284600E+00
MicOpt                                     I   N=           6
          -1          -1          -1          -1          -1          -1
Number of contracted shells                I               64
Number of primitive shells                 I               98
Pure/Cartesian d shells                    I                0
Pure/Cartesian f shells                    I                0
Highest angular momentum                   I                3
Largest degree of contraction              I                7
Shell types                                I   N=          64
           0           0           0           0           0           1
           1           1           1          -2          -2          -2
          -3          -3           0           0           0           0
           0           1           1           1           1          -2
          -2          -2          -3          -3           0           0
           0           0           1           1           1          -2
          -2           0           0           0           0           1
           1           1          -2          -2           0           0
           0           0           1           1           1          -2
          -2           0           0           0           0           1
           1           1          -2          -2
Number of primitives per shell             I   N=          64
           7           6           1           1           1           3
           1           1           1           1           1           1
           1           1           7           6           1           1
           1           3           1           1           1           1
           1           1           1           1           3           1
           1           1           1           1           1           1
           1           3           1           1           1           1
           1           1           1           1           3           1
           1           1           1           1           1           1
           1           3           1           1           1           1
           1           1           1           1
Shell to atom map                          I   N=          64
           1           1           1           1           1           1
           1           1           1           1           1           1
           1           1           2           2           2           2
           2           2           2           2           2           2
           2           2           2           2           3           3
           3           3           3           3           3           3
           3           4           4           4           4           4
           4           4           4           4           5           5
           5           5           5           5           5           5
           5           6           6           6           6           6
           6           6           6           6
Primitive exponents                        R   N=          98
  1.53300000E+04  2.29900000E+03  5.22400000E+02  1.47300000E+02  4.75500000E+01
  1.67600000E+01  6.20700000E+00  5.22400000E+02  1.47300000E+02  4.75500000E+01
  1.67600000E+01  6.20700000E+00  6.88200000E-01  1.75200000E+00  2.38400000E-01
  7.37600000E-02  3.44600000E+01  7.74900000E+00  2.28000000E+00  7.15600000E-01
  2.14000000E-01  5.97400000E-02  2.31400000E+00  6.45000000E-01  2.14000000E-01
  1.42800000E+00  5.00000000E-01  8.23600000E+03  1.23500000E+03  2.80800000E+02
  7.92700000E+01  2.55900000E+01  8.99700000E+00  3.31900000E+00  2.80800000E+02
  7.92700000E+01  2.55900000E+01  8.99700000E+00  3.31900000E+00  3.64300000E-01
  9.05900000E-01  1.28500000E-01  4.40200000E-02  1.87100000E+01  4.13300000E+00
  1.20000000E+00  3.82700000E-01  1.20900000E-01  3.56900000E-02  1.09700000E+00
  3.18000000E-01  1.00000000E-01  7.61000000E-01  2.68000000E-01  3.38700000E+01
  5.09500000E+00  1.15900000E+00  3.25800000E-01  1.02700000E-01  2.52600000E-02
  1.40700000E+00  3.88000000E-01  1.02000000E-01  1.05700000E+00  2.47000000E-01
  3.38700000E+01  5.09500000E+00  1.15900000E+00  3.25800000E-01  1.02700000E-01
  2.52600000E-02  1.40700000E+00  3.88000000E-01  1.02000000E-01  1.05700000E+00
  2.47000000E-01  3.38700000E+01  5.09500000E+00  1.15900000E+00  3.25800000E-01
  1.02700000E-01  2.52600000E-02  1.40700000E+00  3.88000000E-01  1.02000000E-01
  1.05700000E+00  2.47000000E-01  3.38700000E+01  5.09500000E+00  1.15900000E+00
  3.25800000E-01  1.02700000E-01  2.52600000E-02  1.40700000E+00  3.88000000E-01
  1.02000000E-01  1.05700000E+00  2.47000000E-01
Contraction coefficients                   R   N=          98
  5.19808943E-04  4.02025621E-03  2.07128267E-02  8.10105536E-02  2.35962985E-01
  4.42653446E-01  3.57064423E-01 -4.42115008E-05 -1.22591041E-03 -1.05517725E-02
 -6.74452633E-02 -1.71198607E-01  1.07329856E+00  1.00000000E+00  1.00000000E+00
  1.00000000E+00  4.11634896E-02  2.57762836E-01  8.02419274E-01  1.00000000E+00
  1.00000000E+00  1.00000000E+00  1.00000000E+00  1.00000000E+00  1.00000000E+00
  1.00000000E+00  1.00000000E+00  5.41978320E-04  4.19287382E-03  2.15221621E-02
  8.35343220E-02  2.39582846E-01  4.42852842E-01  3.51799562E-01 -5.94922494E-05
 -1.14815831E-03 -1.00191374E-02 -6.12194923E-02 -1.73269854E-01  1.07291519E+00
  1.00000000E+00  1.00000000E+00  1.00000000E+00  3.94263872E-02  2.44088985E-01
  8.15492009E-01  1.00000000E+00  1.00000000E+00  1.00000000E+00  1.00000000E+00
  1.00000000E+00  1.00000000E+00  1.00000000E+00  1.00000000E+00  2.54948632E-02
  1.90362766E-01  8.52162022E-01  1.00000000E+00  1.00000000E+00  1.00000000E+00
  1.00000000E+00  1.00000000E+00  1.00000000E+00  1.00000000E+00  1.00000000E+00
  2.54948632E-02  1.90362766E-01  8.52162022E-01  1.00000000E+00  1.00000000E+00
  1.00000000E+00  1.00000000E+00  1.00000000E+00  1.00000000E+00  1.00000000E+00
  1.00000000E+00  2.54948632E-02  1.90362766E-01  8.52162022E-01  1.00000000E+00
  1.00000000E+00  1.00000000E+00  1.00000000E+00  1.00000000E+00  1.00000000E+00
  1.00000000E+00  1.00000000E+00  2.54948632E-02  1.90362766E-01  8.52162022E-01
  1.00000000E+00  1.00000000E+00  1.00000000E+00  1.00000000E+00  1.00000000E+00
  1.00000000E+00  1.00000000E+00  1.00000000E+00
Coordinates of each shell                  R   N=         192
  1.41640791E+00  2.31660212E-01 -4.09440662E-06  1.41640791E+00  2.31660212E-01
 -4.09440662E-06  1.41640791E+00  2.31660212E-01 -4.09440662E-06  1.41640791E+00
  2.31660212E-01 -4.09440662E-06  1.41640791E+00  2.31660212E-01 -4.09440662E-06
  1.41640791E+00  2.31660212E-01 -4.09440662E-06  1.41640791E+00  2.31660212E-01
 -4.09440662E-06  1.41640791E+00  2.31660212E-01 -4.09440662E-06  1.41640791E+00
  2.31660212E-01 -4.09440662E-06  1.41640791E+00  2.31660212E-01 -4.09440662E-06
  1.41640791E+00  2.31660212E-01 -4.09440662E-06  1.41640791E+00  2.31660212E-01
 -4.09440662E-06  1.41640791E+00  2.31660212E-01 -4.09440662E-06  1.41640791E+00
  2.31660212E-01 -4.09440662E-06 -1.25562316E+00 -3.71204005E-02  0.00000000E+00
 -1.25562316E+00 -3.71204005E-02  0.00000000E+00 -1.25562316E+00 -3.71204005E-02
  0.00000000E+00 -1.25562316E+00 -3.71204005E-02  0.00000000E+00 -1.25562316E+00
 -3.71204005E-02  0.00000000E+00 -1.25562316E+00 -3.71204005E-02  0.00000000E+00
 -1.25562316E+00 -3.71204005E-02  0.00000000E+00 -1.25562316E+00 -3.71204005E-02
  0.00000000E+00 -1.25562316E+00 -3.71204005E-02  0.00000000E+00 -1.25562316E+00
 -3.71204005E-02  0.00000000E+00 -1.25562316E+00 -3.71204005E-02  0.00000000E+00
 -1.25562316E+00 -3.71204005E-02  0.00000000E+00 -1.25562316E+00 -3.71204005E-02
  0.00000000E+00 -1.25562316E+00 -3.71204005E-02  0.00000000E+00 -1.95445860E+00
 -1.02571579E+00  1.68444487E+00 -1.95445860E+00 -1.02571579E+00  1.68444487E+00
 -1.95445860E+00 -1.02571579E+00  1.68444487E+00 -1.95445860E+00 -1.02571579E+00
  1.68444487E+00 -1.95445860E+00 -1.02571579E+00  1.68444487E+00 -1.95445860E+00
 -1.02571579E+00  1.68444487E+00 -1.95445860E+00 -1.02571579E+00  1.68444487E+00
 -1.95445860E+00 -1.02571579E+00  1.68444487E+00 -1.95445860E+00 -1.02571579E+00
  1.68444487E+00 -1.95445671E+00 -1.02578571E+00 -1.68440203E+00 -1.95445671E+00
 -1.02578571E+00 -1.68440203E+00 -1.95445671E+00 -1.02578571E+00 -1.68440203E+00
 -1.95445671E+00 -1.02578571E+00 -1.68440203E+00 -1.95445671E+00 -1.02578571E+00
 -1.68440203E+00 -1.95445671E+00 -1.02578571E+00 -1.68440203E+00 -1.95445671E+00
 -1.02578571E+00 -1.68440203E+00 -1.95445671E+00 -1.02578571E+00 -1.68440203E+00
 -1.95445671E+00 -1.02578571E+00 -1.68440203E+00 -2.03411362E+00  1.87035372E+00
 -3.81094770E-05 -2.03411362E+00  1.87035372E+00 -3.81094770E-05 -2.03411362E+00
  1.87035372E+00 -3.81094770E-05 -2.03411362E+00  1.87035372E+00 -3.81094770E-05
 -2.03411362E+00  1.87035372E+00 -3.81094770E-05 -2.03411362E+00  1.87035372E+00
 -3.81094770E-05 -2.03411362E+00  1.87035372E+00 -3.81094770E-05 -2.03411362E+00
  1.87035372E+00 -3.81094770E-05 -2.03411362E+00  1.87035372E+00 -3.81094770E-05
  2.14550462E+00 -1.44941151E+00  1.85823070E-05  2.14550462E+00 -1.44941151E+00
  1.85823070E-05  2.14550462E+00 -1.44941151E+00  1.85823070E-05  2.14550462E+00
 -1.44941151E+00  1.85823070E-05  2.14550462E+00 -1.44941151E+00  1.85823070E-05
  2.14550462E+00 -1.44941151E+00  1.85823070E-05  2.14550462E+00 -1.44941151E+00
  1.85823070E-05  2.14550462E+00 -1.44941151E+00  1.85823070E-05  2.14550462E+00
 -1.44941151E+00  1.85823070E-05
Constraint Structure                       R   N=          18
  1.41640791E+00  2.31660212E-01 -4.09440662E-06 -1.25562316E+00 -3.71204005E-02
  0.00000000E+00 -1.95445860E+00 -1.02571579E+00  1.68444487E+00 -1.95445671E+00
 -1.02578571E+00 -1.68440203E+00 -2.03411362E+00  1.87035372E+00 -3.81094770E-05
  2.14550462E+00 -1.44941151E+00  1.85823070E-05
Num ILSW                                   I              100
ILSW                                       I   N=         100
           0           0           0           0           2           0
           0           0           0           0           0 26843545600
           0           0           0           0           0           0
           0           0           0           0           0           0
           1           0           0           0           0           0
           0           0      100000           0          -1           0
           0           0           0           0           0           0
           0           0           0           1           0           0
           0           0           1           0           0           0
           0           0           4          40           0           0
           0           0           0           0           0           0
           0           0           0           0           0           0
           0           0           0           0           0           0
           0           0           0           0           0           0
           0           0           0           0           0           0
           0           0           0           0           0           0
           0           0           0           0
Num RLSW                                   I               40
RLSW                                       R   N=          40
  1.00000000E+00  1.00000000E+00  1.00000000E+00  1.00000000E+00  1.00000000E+00
  0.00000000E+00  0.00000000E+00  1.00000000E+00  0.00000000E+00  0.00000000E+00
  0.00000000E+00  0.00000000E+00  1.00000000E+00  0.00000000E+00  0.00000000E+00
  0.00000000E+00  0.00000000E+00  1.00000000E+00  0.00000000E+00  0.00000000E+00
  0.00000000E+00  0.00000000E+00  1.00000000E+00  0.00000000E+00  0.00000000E+00
  0.00000000E+00  0.00000000E+00  1.00000000E+00  0.00000000E+00  0.00000000E+00
  0.00000000E+00  0.00000000E+00  0.00000000E+00  0.00000000E+00  0.00000000E+00
  0.00000000E+00  0.00000000E+00  0.00000000E+00  1.00000000E+00  1.00000000E+00
MxBond                                     I                4
NBond                                      I   N=           6
           2           4           1           1           1           1
IBond                                      I   N=          24
           2           6           0           0           1           3
           4           5           2           0           0           0
           2           0           0           0           2           0
           0           0           1           0           0           0
RBond                                      R   N=          24
  1.00000000E+00  1.00000000E+00  0.00000000E+00  0.00000000E+00  1.00000000E+00
  1.00000000E+00  1.00000000E+00  1.00000000E+00  1.00000000E+00  0.00000000E+00
  0.00000000E+00  0.00000000E+00  1.00000000E+00  0.00000000E+00  0.00000000E+00
  0.00000000E+00  1.00000000E+00  0.00000000E+00  0.00000000E+00  0.00000000E+00
  1.00000000E+00  0.00000000E+00  0.00000000E+00  0.00000000E+00
Virial Ratio                               R      2.001831541231371E+00
SCF Energy                                 R     -1.150913432974782E+02
MP2 Energy                                 R     -1.155288513560967E+02
Total Energy                               R     -1.155288513560967E+02
Post-SCF wavefunction norm                 R      1.055974129999214E+00
RMS Density                                R      7.609445004016127E-09
External E-field                           R   N=          35
  0.00000000E+00  0.00000000E+00  0.00000000E+00  0.00000000E+00  0.00000000E+00
  0.00000000E+00  0.00000000E+00  0.00000000E+00  0.00000000E+00  0.00000000E+00
  0.00000000E+00  0.00000000E+00  0.00000000E+00  0.00000000E+00  0.00000000E+00
  0.00000000E+00  0.00000000E+00  0.00000000E+00  0.00000000E+00  0.00000000E+00
  0.00000000E+00  0.00000000E+00  0.00000000E+00  0.00000000E+00  0.00000000E+00
  0.00000000E+00  0.00000000E+00  0.00000000E+00  0.00000000E+00  0.00000000E+00
  0.00000000E+00  0.00000000E+00  0.00000000E+00  0.00000000E+00  0.00000000E+00
IOpCl                                      I                0
IROHF                                      I                0
Alpha Orbital Energies                     R   N=         184
 -2.05611183E+01 -1.12727549E+01 -1.35608970E+00 -9.23765363E-01 -6.89620258E-01
 -6.18789996E-01 -5.92286175E-01 -5.04026045E-01 -4.51587798E-01  2.84406653E-02
  4.29193546E-02  4.66758980E-02  5.30142218E-02  9.90703303E-02  1.16446124E-01
  1.29190212E-01  1.39971233E-01  1.65306280E-01  1.72888171E-01  1.82882899E-01
  2.10808763E-01  2.15388823E-01  2.68229166E-01  2.68883824E-01  2.93030587E-01
  3.00106890E-01  3.20874752E-01  3.21613842E-01  3.32933236E-01  3.43295933E-01
  3.51352153E-01  3.69335056E-01  3.91277201E-01  4.08562133E-01  4.32716825E-01
  4.36640020E-01  4.45489156E-01  4.53700968E-01  4.60778402E-01  4.79256525E-01
  5.05201612E-01  5.13341035E-01  5.25233731E-01  6.64318056E-01  6.67669524E-01
  6.80344403E-01  7.52791913E-01  7.70205168E-01  7.80046543E-01  7.91590521E-01
  8.05750682E-01  8.49872045E-01  8.56795946E-01  8.86304444E-01  8.99944100E-01
  9.32031938E-01  9.34507547E-01  9.37331824E-01  9.48646733E-01  9.73770428E-01
  9.77528144E-01  9.83325827E-01  1.01552920E+00  1.04329908E+00  1.07082983E+00
  1.07174564E+00  1.09316629E+00  1.10881835E+00  1.12301017E+00  1.13871430E+00
  1.14424674E+00  1.17741410E+00  1.19888982E+00  1.20148370E+00  1.25052448E+00
  1.29585129E+00  1.31477765E+00  1.37138351E+00  1.40737770E+00  1.43591376E+00
  1.53163350E+00  1.55190649E+00  1.55851888E+00  1.59236928E+00  1.60045046E+00
  1.61210353E+00  1.64718876E+00  1.65728548E+00  1.66973210E+00  1.70081511E+00
  1.73215349E+00  1.75270718E+00  1.88623780E+00  1.93183080E+00  1.95719136E+00
  1.97409844E+00  2.03254482E+00  2.03687025E+00  2.06920253E+00  2.07509457E+00
  2.16216075E+00  2.17468477E+00  2.37591032E+00  2.47341832E+00  2.47954015E+00
  2.51250162E+00  2.54898080E+00  2.58416984E+00  2.73081821E+00  2.75503104E+00
  2.78253916E+00  2.84071232E+00  2.88740533E+00  2.94083037E+00  2.97633706E+00
  3.04944033E+00  3.18880718E+00  3.31714558E+00  3.37938443E+00  3.52547509E+00
  3.54800043E+00  3.57594755E+00  3.62306150E+00  3.63400163E+00  3.70401626E+00
  3.76929633E+00  3.85190013E+00  3.88370556E+00  3.93108616E+00  3.93978773E+00
  3.98498533E+00  4.05762039E+00  4.07939025E+00  4.09594987E+00  4.16376806E+00
  4.19672339E+00  4.22183952E+00  4.22424659E+00  4.27512013E+00  4.46825897E+00
  4.49216900E+00  4.51259581E+00  4.53891270E+00  4.59573103E+00  4.63153309E+00
  4.75148903E+00  4.75239271E+00  4.75609161E+00  4.90332534E+00  4.95815270E+00
  5.01120081E+00  5.02197187E+00  5.05191840E+00  5.11966034E+00  5.22818090E+00
  5.24074844E+00  5.36497402E+00  5.45843275E+00  5.51023827E+00  5.57545011E+00
  5.57716112E+00  5.61956568E+00  5.69723764E+00  6.08670585E+00  6.09052867E+00
  6.11087889E+00  6.15248936E+00  6.55744963E+00  6.61000435E+00  6.62434132E+00
  6.87618803E+00  6.88937585E+00  7.05864884E+00  7.25355644E+00  7.28843202E+00
  7.36702939E+00  7.45641058E+00  7.52034194E+00  7.72362396E+00  7.83439444E+00
  8.13052860E+00  8.48286325E+00  1.53989334E+01  1.75740066E+01
Alpha MO coefficients                      R   N=       33856
  9.76657709E-01 -9.29301886E-03  4.37254244E-02 -3.39399994E-04 -1.59383454E-03
 -1.02182461E-03 -1.61502796E-03  2.24251583E-08  1.44828798E-03  1.36752175E-03
 -1.90696229E-08 -2.56511851E-04  9.19507806E-04 -1.35755236E-08  2.87025305E-04
  6.80950332E-06 -1.35416759E-09 -4.59176158E-05  6.65416896E-10 -1.30906671E-09
 -1.44739500E-05 -4.96853688E-05  7.06689870E-04 -2.97424294E-09  1.14986431E-08
 -4.05470629E-04  2.49126025E-04  8.22406176E-05 -2.67908686E-09  2.60254459E-09
  1.93643318E-05  1.77196543E-04 -9.12152821E-10 -3.61044558E-05  2.10734786E-05
 -8.25761183E-10 -8.86125621E-10 -8.22428548E-06  1.24724448E-05  7.68517390E-09
 -1.60163853E-05 -1.95267078E-04  4.26025924E-09  6.09786326E-09  3.86118915E-04
  4.18110976E-05  8.66783156E-05  7.20534006E-04 -1.58020391E-04 -8.44840195E-03
  1.94106217E-04 -1.31255031E-04 -1.57669164E-05  7.50385220E-11  1.96545667E-03
  3.41776299E-04 -1.66665616E-09  1.38153032E-03 -8.69765419E-04  1.96396130E-08
  1.22205818E-04 -1.75529481E-05  2.62509144E-09 -1.27720794E-04 -9.53309619E-10
 -7.64011996E-10  1.89688577E-04  6.11289186E-05 -1.25834478E-03 -4.61180093E-09
  1.30107856E-09  2.36752906E-03  3.05593787E-04  3.00681873E-05  6.32724473E-09
  1.53444979E-08  5.98581707E-04 -4.43523817E-04 -2.03657360E-09 -2.11197654E-04
  4.08323461E-05 -3.57751297E-09 -1.29419949E-10  2.71114449E-04  9.98954966E-05
 -5.03952117E-08 -3.30175897E-04  1.03567426E-03 -3.82962432E-08 -5.86978509E-09
  2.92032306E-04  2.55571416E-04  7.47833775E-06  2.13197487E-03  1.77277030E-03
  5.05378650E-05 -1.81450828E-06  1.25278439E-05 -1.99718364E-05  8.04913397E-04
  1.07175974E-04 -2.24768604E-04  4.03880295E-04  3.81046577E-05 -5.05823660E-04
 -1.37609087E-05 -4.31834733E-05  6.40289139E-06  2.42728309E-05  1.56255745E-05
 -9.11451233E-05 -1.06982880E-04  6.47474771E-06  2.25243391E-04  4.75527065E-05
  7.47842379E-06  2.13198214E-03  1.77277934E-03  5.05423997E-05 -1.81444142E-06
  1.25285483E-05  1.99715979E-05  8.04917239E-04  1.07190969E-04  2.24762979E-04
  4.03879435E-04  3.81287895E-05  5.05821996E-04 -1.37607235E-05  4.31829320E-05
 -6.40257060E-06  2.42729423E-05  1.56278501E-05 -9.11454920E-05  1.06980632E-04
 -6.47122968E-06  2.25244142E-04  4.75572946E-05  2.03974748E-05  2.35393669E-03
  3.11761201E-03  2.97204601E-05  1.16449479E-05 -2.28864580E-05  4.88472650E-10
  6.74896328E-04 -1.66645098E-04  3.20799382E-09  9.16305786E-04 -5.56195117E-04
  9.04345260E-09  2.56865154E-06  7.30647937E-10  6.55038222E-10  2.39892111E-05
 -3.19074655E-05 -7.92392662E-05  8.56810581E-10  1.31400372E-09  1.94498343E-04
 -6.50472829E-06  5.46832260E-04  2.05395483E-03 -2.59084144E-04 -1.09597324E-04
 -9.12359239E-05  1.91761981E-04 -2.15130433E-09 -8.88353496E-05  1.00323667E-03
 -1.35106667E-08  3.41021150E-04  2.22819298E-04 -2.49550709E-09  6.72923574E-05
 -1.28693432E-09  2.77502909E-09  7.14122277E-05  1.00614954E-04 -1.19115098E-04
  2.93578968E-09 -7.50775309E-09 -3.50884857E-04 -1.70169481E-04 -1.29183028E-04
  2.06921263E-04  1.06994621E-04  6.04586112E-03  3.29677907E-03 -2.34350518E-04
  8.50159485E-06 -6.07102835E-11 -4.91862312E-04 -3.47761242E-04  4.78551199E-09
 -3.10319607E-03 -1.37259886E-03  2.23628144E-08 -8.66625793E-04 -1.16274191E-04
  4.29687581E-09 -3.68130375E-05 -2.75942805E-10  7.17325279E-10  1.09324268E-04
  1.71918950E-05 -5.39501196E-05  8.35524804E-10 -7.73960904E-09 -4.33430615E-04
 -5.36817749E-05 -3.75365539E-04 -1.01325832E-08 -1.56386832E-08 -2.54391914E-04
  5.77504310E-04 -1.41549582E-09 -7.07515333E-05  3.32799182E-05 -1.47392181E-09
 -2.00582227E-09 -3.18730719E-06  3.38151736E-05  3.26292984E-09 -7.82292688E-05
 -5.90348677E-05 -4.28980808E-09  8.25828340E-09  4.91426782E-04  3.69232465E-04
  9.79181526E-01 -4.77352128E-03  4.17403793E-02 -4.13464338E-03 -1.26389922E-03
  1.10556180E-03 -1.33339672E-05  6.09084479E-10 -1.99183441E-03  3.19075671E-04
 -1.05915851E-08 -2.47474549E-03  2.58635663E-04 -4.87435230E-09 -3.01038991E-04
 -2.27085422E-05 -1.96420828E-09  1.76569482E-06  2.77283623E-10  7.60542883E-10
 -7.34440555E-05  1.76886325E-05  6.05338802E-04  8.09209183E-09  1.54968069E-09
 -7.89854128E-04 -4.69543876E-04  3.73641300E-04  3.62716830E-09 -6.37312697E-09
 -6.62373049E-04  4.19897617E-05  3.69878231E-08 -3.32002692E-04 -7.37484762E-04
  2.66025705E-08  3.26634494E-09  6.06438403E-04 -7.07950008E-05 -6.20544950E-08
  8.67748601E-04  1.32881202E-03 -4.57833735E-08  7.15886639E-09 -9.39725924E-04
  6.89165695E-05  1.33357615E-04  1.85497624E-03 -1.21469408E-03 -1.36290074E-04
 -9.54381670E-05 -1.21391269E-04  2.18389664E-04 -1.91990934E-04 -3.13489918E-04
  3.87234923E-04 -5.23285754E-04 -3.85850375E-04  5.55945603E-04 -1.21555728E-04
  1.37358458E-04  1.65679681E-04  3.04176089E-05 -8.32335113E-05 -1.54495712E-04
  2.58119644E-04  2.88909347E-04  2.53858296E-05 -2.06360071E-04  1.33356966E-04
  1.85497931E-03 -1.21469161E-03 -1.36296009E-04 -9.54379595E-05 -1.21400926E-04
 -2.18385186E-04 -1.91992980E-04 -3.13506136E-04 -3.87228092E-04 -5.23282580E-04
 -3.85878864E-04 -5.55929656E-04 -1.21543519E-04 -1.37354317E-04 -1.65686721E-04
  3.04245249E-05 -8.32386668E-05 -1.54473967E-04 -2.58113058E-04 -2.88921909E-04
  2.53975963E-05 -2.06369463E-04  9.10591357E-05  1.22555863E-03 -1.39794979E-03
  4.56635375E-05 -9.52968291E-05  2.68137813E-04 -5.53249449E-09 -8.58370396E-05
  7.97612860E-04 -1.19768036E-08 -6.11411847E-04  6.75825842E-04 -8.79123525E-09
  1.12623365E-04 -2.24090432E-09  7.90523705E-09  2.18802494E-04  1.32817451E-04
  1.64523069E-04 -8.36742182E-09  1.15674850E-08  3.66037886E-04  3.74880157E-04
  4.58201431E-05 -1.48938322E-03  7.65728575E-04  3.36175426E-04  1.20989605E-04
 -6.47276651E-05  1.68223687E-09  1.13014539E-03 -1.59190190E-04  1.31902298E-10
 -6.38593379E-05  3.86953542E-04 -9.49065072E-09  3.46698914E-05 -1.93543422E-09
 -3.59684188E-10 -8.38056841E-05  1.56483846E-04  7.06025215E-05  7.95066775E-10
  5.67053908E-11 -1.37227972E-04  1.45297696E-04 -1.94617900E-01  4.70815120E-01
  1.26471938E-01  2.89236538E-01  2.49752101E-02 -2.26125767E-02 -3.40030692E-02
  4.62154561E-07 -3.51627514E-02 -4.90941751E-02  6.68620245E-07 -1.12258179E-02
 -1.08752448E-02  1.56326966E-07  3.21039694E-03 -2.53323150E-03  2.65315917E-08
 -3.14987701E-03  1.32083673E-08 -7.06593325E-08  2.25597619E-04 -1.03803906E-03
 -9.89162472E-03  1.63032214E-08 -1.66053863E-07  4.83119641E-03 -1.47933913E-03
  2.00035112E-03 -4.33624383E-09  5.87153737E-08  9.73244480E-04 -1.05458817E-04
 -4.48518923E-08  1.22377811E-03  1.30158206E-03 -2.53119309E-08 -2.30546790E-08
 -2.96728236E-03 -1.42526595E-04 -3.55622290E-09  1.44841477E-03  1.95912475E-04
  3.22638855E-08  7.65522651E-10 -1.98880146E-03 -1.95444750E-03 -6.29442698E-02
  1.51605761E-01  3.25659265E-02 -2.23244011E-02 -7.77412464E-03  5.10867330E-02
  2.90476350E-03 -6.34103368E-08  5.92745711E-02  3.11755207E-03 -6.45697601E-08
  9.85651995E-03  1.58194258E-04 -6.83247323E-08  2.98926701E-04  1.63837803E-03
 -1.58720824E-08 -5.24433448E-03 -1.87486910E-08  1.88830151E-09  8.90705660E-03
  1.15779246E-03 -9.42523313E-03 -1.77648433E-08 -6.11173821E-10  1.49892678E-02
  1.29786335E-03  6.59017310E-04  4.48186314E-08  8.92760761E-08  8.66378750E-04
 -3.41738043E-03  8.77201584E-08 -3.39762539E-03 -1.75072413E-03  5.04684444E-08
 -4.59618117E-09  4.06797997E-03  4.26759281E-04 -1.97000664E-07  3.05771040E-04
  4.03953884E-03 -1.64535080E-07  6.34746056E-09  5.91630819E-04  1.47162832E-03
  1.28745373E-02  2.27780315E-02  1.02480822E-02  1.96908496E-03  1.11063870E-03
  5.65336858E-04 -9.49740948E-04  2.00098186E-03 -3.13307181E-05  4.12999043E-04
 -1.55033134E-03 -7.53107422E-04 -1.03847001E-03 -1.87543491E-04 -4.20078350E-04
 -2.43106701E-06  2.89481258E-04  2.23809637E-04 -1.05957280E-03  1.42025226E-03
  1.63474648E-03  5.59314943E-06 -1.00069073E-03  1.28745798E-02  2.27780072E-02
  1.02479052E-02  1.96911989E-03  1.11064457E-03  5.65378140E-04  9.49724069E-04
  2.00098086E-03 -3.13316180E-05 -4.13034544E-04 -1.55038863E-03 -7.53029302E-04
  1.03844507E-03 -1.87543616E-04  4.20071042E-04  2.43269258E-06  2.89481255E-04
  2.23829433E-04 -1.05946389E-03 -1.42021805E-03 -1.63482091E-03  5.65268182E-06
 -1.00074536E-03  1.34561247E-02  2.21919386E-02  6.91628995E-03 -1.44431236E-03
  1.26615258E-03 -1.26394639E-03  2.64662393E-08  2.42559002E-03  9.50492983E-04
 -2.99237761E-08  1.35154205E-03  1.18134347E-03 -5.44532256E-08 -2.13100122E-04
  1.28126591E-08 -1.76862936E-09  3.11658372E-04 -6.14694370E-04  1.52139264E-03
 -3.22381691E-08  8.50630587E-08  1.32673670E-03  1.79403347E-03  8.24769730E-02
  7.11523412E-02 -1.72785908E-02 -2.72587406E-03 -6.05958873E-03  1.08343327E-02
 -1.44567579E-07 -8.76914328E-03  6.73559735E-03 -8.97356651E-08  1.53255906E-03
 -7.05022283E-03  9.93202959E-08 -1.00766233E-03  2.76401538E-08 -3.14083895E-08
 -6.45142413E-04 -2.04867977E-03 -4.96030502E-05  7.81844085E-09  2.74381129E-08
  2.16259841E-03 -4.20101243E-04  5.57678342E-02 -1.39003970E-01 -4.00528192E-02
 -9.92511848E-02  1.57125688E-03 -1.02304183E-01  3.38342332E-02 -4.63665481E-07
 -1.27717877E-01  4.25650751E-02 -5.84510607E-07 -6.35134600E-02  1.34119297E-02
 -1.69952265E-07 -4.40508031E-03  2.62453886E-03 -4.78983884E-08 -3.81839384E-04
 -4.05456866E-08  5.54164852E-08  4.74989794E-03  3.00433285E-03 -1.32563181E-03
 -8.84570557E-08  1.45703704E-07  1.30028230E-02  6.35894192E-03 -1.85571924E-03
 -9.82606576E-09  3.42032844E-08  5.29031868E-03  1.13067706E-04  2.25641670E-08
  1.49345756E-03 -6.56846423E-04  1.31403970E-08  2.94460462E-08 -1.69255128E-04