 Entering Gaussian System, Link 0=/opt/g09gh/gaussian/g09/g09
 Input=methanol-esp.com
 Output=methanol-esp.log
 Initial command:
 /opt/g09gh/gaussian/g09/l1.exe /scratch/bdw2292/Gau-methanol/Gau-26709.inp -scrdir=/scratch/bdw2292/Gau-methanol/
 Entering Link 1 = /opt/g09gh/gaussian/g09/l1.exe PID=     26710.
  
 Copyright (c) 1988,1990,1992,1993,1995,1998,2003,2009, Gaussian, Inc.
                  All Rights Reserved.
  
 This is part of the Gaussian(R) 09 program.  It is based on
 the Gaussian(R) 03 system (copyright 2003, Gaussian, Inc.),
 the Gaussian(R) 98 system (copyright 1998, Gaussian, Inc.),
 the Gaussian(R) 94 system (copyright 1995, Gaussian, Inc.),
 the Gaussian 92(TM) system (copyright 1992, Gaussian, Inc.),
 the Gaussian 90(TM) system (copyright 1990, Gaussian, Inc.),
 the Gaussian 88(TM) system (copyright 1988, Gaussian, Inc.),
 the Gaussian 86(TM) system (copyright 1986, Carnegie Mellon
 University), and the Gaussian 82(TM) system (copyright 1983,
 Carnegie Mellon University). Gaussian is a federally registered
 trademark of Gaussian, Inc.
  
 This software contains proprietary and confidential information,
 including trade secrets, belonging to Gaussian, Inc.
  
 This software is provided under written license and may be
 used, copied, transmitted, or stored only in accord with that
 written license.
  
 The following legend is applicable only to US Government
 contracts under FAR:
  
                    RESTRICTED RIGHTS LEGEND
  
 Use, reproduction and disclosure by the US Government is
 subject to restrictions as set forth in subparagraphs (a)
 and (c) of the Commercial Computer Software - Restricted
 Rights clause in FAR 52.227-19.
  
 Gaussian, Inc.
 340 Quinnipiac St., Bldg. 40, Wallingford CT 06492
  
  
 ---------------------------------------------------------------
 Warning -- This program may not be used in any manner that
 competes with the business of Gaussian, Inc. or will provide
 assistance to any competitor of Gaussian, Inc.  The licensee
 of this program is prohibited from giving any competitor of
 Gaussian, Inc. access to this program.  By using this program,
 the user acknowledges that Gaussian, Inc. is engaged in the
 business of creating and licensing software in the field of
 computational chemistry and represents and warrants to the
 licensee that it is not a competitor of Gaussian, Inc. and that
 it will not use this program in any manner prohibited above.
 ---------------------------------------------------------------
  

 Cite this work as:
 Gaussian 09, Revision A.02,
 M. J. Frisch, G. W. Trucks, H. B. Schlegel, G. E. Scuseria, 
 M. A. Robb, J. R. Cheeseman, G. Scalmani, V. Barone, B. Mennucci, 
 G. A. Petersson, H. Nakatsuji, M. Caricato, X. Li, H. P. Hratchian, 
 A. F. Izmaylov, J. Bloino, G. Zheng, J. L. Sonnenberg, M. Hada, 
 M. Ehara, K. Toyota, R. Fukuda, J. Hasegawa, M. Ishida, T. Nakajima, 
 Y. Honda, O. Kitao, H. Nakai, T. Vreven, J. A. Montgomery, Jr., 
 J. E. Peralta, F. Ogliaro, M. Bearpark, J. J. Heyd, E. Brothers, 
 K. N. Kudin, V. N. Staroverov, R. Kobayashi, J. Normand, 
 K. Raghavachari, A. Rendell, J. C. Burant, S. S. Iyengar, J. Tomasi, 
 M. Cossi, N. Rega, J. M. Millam, M. Klene, J. E. Knox, J. B. Cross, 
 V. Bakken, C. Adamo, J. Jaramillo, R. Gomperts, R. E. Stratmann, 
 O. Yazyev, A. J. Austin, R. Cammi, C. Pomelli, J. W. Ochterski, 
 R. L. Martin, K. Morokuma, V. G. Zakrzewski, G. A. Voth, 
 P. Salvador, J. J. Dannenberg, S. Dapprich, A. D. Daniels, 
 O. Farkas, J. B. Foresman, J. V. Ortiz, J. Cioslowski, 
 and D. J. Fox, Gaussian, Inc., Wallingford CT, 2009.
 
 ******************************************
 Gaussian 09:  EM64L-G09RevA.02 11-Jun-2009
                 8-Jan-2021 
 ******************************************
 %RWF=/scratch/bdw2292/Gau-methanol/,200GB
 %Nosave
 %Chk=methanol-esp.chk
 %Mem=100GB
 %Nproc=8
 Will use up to    8 processors via shared memory.
 ----------------------------------------------------------------------
 #P MP2/aug-cc-pVTZ Sp Density=MP2 SCF=Save MaxDisk=200GB MaxDisk=200GB
 ----------------------------------------------------------------------
 1/30=1,38=1/1;
 2/12=2,17=6,18=5,40=1/2;
 3/5=16,6=1,7=10,11=9,16=1,25=1,30=1,71=1/1,2,3;
 4//1;
 5/5=2,36=1,38=5/2;
 8/6=4,10=1/1;
 9/15=1,16=-3/6;
 10/5=1,13=10/2;
 6/7=2,8=2,9=2,10=2,22=2/1;
 99/5=1,9=1/99;
 Leave Link    1 at Fri Jan  8 10:46:56 2021, MaxMem=13421772800 cpu:       0.3
 (Enter /opt/g09gh/gaussian/g09/l101.exe)
 ---------------------------------------------------------
 methanol Gaussian SP Calculation on node37.bme.utexas.edu
 ---------------------------------------------------------
 Symbolic Z-matrix:
 Charge =  0 Multiplicity = 1
 O                     0.74953   0.12259  0. 
 C                    -0.66445  -0.01964   0. 
 H                    -1.03425  -0.54279   0.89137 
 H                    -1.03425  -0.54282  -0.89135 
 H                    -1.07641   0.98975  -0.00002 
 H                     1.13535  -0.767     0.00001 
 
 NAtoms=      6 NQM=      6 NQMF=      0 NMic=      0 NMicF=      0 NTot=      6.
                    Isotopes and Nuclear Properties:
 (Nuclear quadrupole moments (NQMom) in fm**2, nuclear magnetic moments (NMagM)
  in nuclear magnetons)

  Atom         1           2           3           4           5           6
 IAtWgt=          16          12           1           1           1           1
 AtmWgt=  15.9949146  12.0000000   1.0078250   1.0078250   1.0078250   1.0078250
 NucSpn=           0           0           1           1           1           1
 AtZEff=   0.0000000   0.0000000   0.0000000   0.0000000   0.0000000   0.0000000
 NQMom=    0.0000000   0.0000000   0.0000000   0.0000000   0.0000000   0.0000000
 NMagM=    0.0000000   0.0000000   2.7928460   2.7928460   2.7928460   2.7928460
 Leave Link  101 at Fri Jan  8 10:46:56 2021, MaxMem=13421772800 cpu:       0.7
 (Enter /opt/g09gh/gaussian/g09/l202.exe)
                          Input orientation:                          
 ---------------------------------------------------------------------
 Center     Atomic      Atomic             Coordinates (Angstroms)
 Number     Number       Type             X           Y           Z
 ---------------------------------------------------------------------
      1          8           0        0.749531    0.122589   -0.000002
      2          6           0       -0.664447   -0.019643    0.000001
      3          1           0       -1.034255   -0.542785    0.891370
      4          1           0       -1.034254   -0.542822   -0.891347
      5          1           0       -1.076406    0.989749   -0.000020
      6          1           0        1.135352   -0.766996    0.000010
 ---------------------------------------------------------------------
                    Distance matrix (angstroms):
                    1          2          3          4          5
     1  O    0.000000
     2  C    1.421114   0.000000
     3  H    2.102180   1.097713   0.000000
     4  H    2.102179   1.097713   1.782717   0.000000
     5  H    2.021389   1.090221   1.773419   1.773419   0.000000
     6  H    0.969649   1.948798   2.356266   2.356260   2.824540
                    6
     6  H    0.000000
 Stoichiometry    CH4O
 Framework group  C1[X(CH4O)]
 Deg. of freedom    12
 Full point group                 C1      NOp   1
 Largest Abelian subgroup         C1      NOp   1
 Largest concise Abelian subgroup C1      NOp   1
                         Standard orientation:                         
 ---------------------------------------------------------------------
 Center     Atomic      Atomic             Coordinates (Angstroms)
 Number     Number       Type             X           Y           Z
 ---------------------------------------------------------------------
      1          8           0        0.749531    0.122589   -0.000002
      2          6           0       -0.664447   -0.019643    0.000000
      3          1           0       -1.034255   -0.542785    0.891370
      4          1           0       -1.034254   -0.542822   -0.891347
      5          1           0       -1.076407    0.989749   -0.000020
      6          1           0        1.135352   -0.766996    0.000010
 ---------------------------------------------------------------------
 Rotational constants (GHZ):    127.5211928     24.7503272     23.8620064
 Leave Link  202 at Fri Jan  8 10:46:56 2021, MaxMem=13421772800 cpu:       0.0
 (Enter /opt/g09gh/gaussian/g09/l301.exe)
 Standard basis: Aug-CC-pVTZ (5D, 7F)
 Ernie: Thresh=  0.10000D-02 Tol=  0.10000D-05 Strict=F.
 Ernie:  6 primitive shells out of 104 were deleted.
 There are   184 symmetry adapted basis functions of A   symmetry.
 Integral buffers will be    131072 words long.
 Raffenetti 1 integral format.
 Two-electron integral symmetry is turned on.
   184 basis functions,   252 primitive gaussians,   210 cartesian basis functions
     9 alpha electrons        9 beta electrons
       nuclear repulsion energy        40.2181120529 Hartrees.
 IExCor=    0 DFT=F Ex=HF Corr=None ExCW=0 ScaHFX=  1.000000
 ScaDFX=  1.000000  1.000000  1.000000  1.000000 ScalE2=  1.000000  1.000000
 IRadAn=      0 IRanWt=     -1 IRanGd=            0 ICorTp=0
 NAtoms=    6 NActive=    6 NUniq=    6 SFac= 7.50D-01 NAtFMM=   80 NAOKFM=F Big=F
 Leave Link  301 at Fri Jan  8 10:46:56 2021, MaxMem=13421772800 cpu:       0.4
 (Enter /opt/g09gh/gaussian/g09/l302.exe)
 NPDir=0 NMtPBC=     1 NCelOv=     1 NCel=       1 NClECP=     1 NCelD=      1
         NCelK=      1 NCelE2=     1 NClLst=     1 CellRange=     0.0.
 One-electron integrals computed using PRISM.
 NBasis=   184 RedAO= T  NBF=   184
 NBsUse=   184 1.00D-06 NBFU=   184
 Leave Link  302 at Fri Jan  8 10:46:56 2021, MaxMem=13421772800 cpu:       1.4
 (Enter /opt/g09gh/gaussian/g09/l303.exe)
 DipDrv:  MaxL=1.
 Leave Link  303 at Fri Jan  8 10:46:56 2021, MaxMem=13421772800 cpu:       0.3
 (Enter /opt/g09gh/gaussian/g09/l401.exe)
 Harris functional with IExCor=  205 diagonalized for initial guess.
 ExpMin= 2.53D-02 ExpMax= 1.53D+04 ExpMxC= 5.22D+02 IAcc=3 IRadAn=         0 AccDes= 0.00D+00
 HarFok:  IExCor=  205 AccDes= 0.00D+00 IRadAn=         0 IDoV= 1
 ScaDFX=  1.000000  1.000000  1.000000  1.000000
 FoFCou: FMM=F IPFlag=           0 FMFlag=      100000 FMFlg1=           0
         NFxFlg=           0 DoJE=T BraDBF=F KetDBF=T FulRan=T
         Omega=  0.000000  0.000000  1.000000  0.000000  0.000000 ICntrl=     500 IOpCl=  0
         NMat0=    1 NMatS0=    1 NMatT0=    0 NMatD0=    1 NMtDS0=    0 NMtDT0=    0
         I1Cent=           4 NGrid=           0.
 Petite list used in FoFCou.
 Harris En= -115.272921716786    
 Initial guess orbital symmetries:
       Occupied  (A) (A) (A) (A) (A) (A) (A) (A) (A)
       Virtual   (A) (A) (A) (A) (A) (A) (A) (A) (A) (A) (A) (A)
                 (A) (A) (A) (A) (A) (A) (A) (A) (A) (A) (A) (A)
                 (A) (A) (A) (A) (A) (A) (A) (A) (A) (A) (A) (A)
                 (A) (A) (A) (A) (A) (A) (A) (A) (A) (A) (A) (A)
                 (A) (A) (A) (A) (A) (A) (A) (A) (A) (A) (A) (A)
                 (A) (A) (A) (A) (A) (A) (A) (A) (A) (A) (A) (A)
                 (A) (A) (A) (A) (A) (A) (A) (A) (A) (A) (A) (A)
                 (A) (A) (A) (A) (A) (A) (A) (A) (A) (A) (A) (A)
                 (A) (A) (A) (A) (A) (A) (A) (A) (A) (A) (A) (A)
                 (A) (A) (A) (A) (A) (A) (A) (A) (A) (A) (A) (A)
                 (A) (A) (A) (A) (A) (A) (A) (A) (A) (A) (A) (A)
                 (A) (A) (A) (A) (A) (A) (A) (A) (A) (A) (A) (A)
                 (A) (A) (A) (A) (A) (A) (A) (A) (A) (A) (A) (A)
                 (A) (A) (A) (A) (A) (A) (A) (A) (A) (A) (A) (A)
                 (A) (A) (A) (A) (A) (A) (A)
 The electronic state of the initial guess is 1-A.
 Leave Link  401 at Fri Jan  8 10:46:57 2021, MaxMem=13421772800 cpu:       2.3
 (Enter /opt/g09gh/gaussian/g09/l502.exe)
 Closed shell SCF:
 Requested convergence on RMS density matrix=1.00D-08 within 128 cycles.
 Requested convergence on MAX density matrix=1.00D-06.
 Requested convergence on             energy=1.00D-06.
 No special actions if energy rises.
 Using DIIS extrapolation, IDIIS=  1040.
 Integral symmetry usage will be decided dynamically.
 Keep R1 ints in memory in canonical form, NReq=250283610.
 IEnd=      153646 IEndB=      153646 NGot= 13421772800 MDV= 13176246987
 LenX= 13176246987 LenY= 13176202446
 Symmetry not used in FoFDir.
 MinBra= 0 MaxBra= 3 Meth= 1.
 IRaf=       0 NMat=   1 IRICut=       1 DoRegI=T DoRafI=F ISym2E= 0 JSym2E=0.

 Cycle   1  Pass 1  IDiag  1:
 E= -114.970514063647    
 DIIS: error= 2.84D-02 at cycle   1 NSaved=   1.
 NSaved= 1 IEnMin= 1 EnMin= -114.970514063647     IErMin= 1 ErrMin= 2.84D-02
 ErrMax= 2.84D-02 EMaxC= 1.00D-01 BMatC= 2.52D-01 BMatP= 2.52D-01
 IDIUse=3 WtCom= 7.16D-01 WtEn= 2.84D-01
 Coeff-Com:  0.100D+01
 Coeff-En:   0.100D+01
 Coeff:      0.100D+01
 Gap=     0.502 Goal=   None    Shift=    0.000
 GapD=    0.502 DampG=2.000 DampE=0.500 DampFc=1.0000 IDamp=-1.
 RMSDP=1.55D-03 MaxDP=5.29D-02              OVMax= 1.03D-01

 Cycle   2  Pass 1  IDiag  1:
 E= -115.065164392308     Delta-E=       -0.094650328660 Rises=F Damp=F
 DIIS: error= 1.23D-02 at cycle   2 NSaved=   2.
 NSaved= 2 IEnMin= 2 EnMin= -115.065164392308     IErMin= 2 ErrMin= 1.23D-02
 ErrMax= 1.23D-02 EMaxC= 1.00D-01 BMatC= 3.79D-02 BMatP= 2.52D-01
 IDIUse=3 WtCom= 8.77D-01 WtEn= 1.23D-01
 Coeff-Com:  0.217D+00 0.783D+00
 Coeff-En:   0.000D+00 0.100D+01
 Coeff:      0.190D+00 0.810D+00
 Gap=     0.514 Goal=   None    Shift=    0.000
 RMSDP=6.97D-04 MaxDP=2.97D-02 DE=-9.47D-02 OVMax= 4.79D-02

 Cycle   3  Pass 1  IDiag  1:
 E= -115.088783844915     Delta-E=       -0.023619452607 Rises=F Damp=F
 DIIS: error= 4.18D-03 at cycle   3 NSaved=   3.
 NSaved= 3 IEnMin= 3 EnMin= -115.088783844915     IErMin= 3 ErrMin= 4.18D-03
 ErrMax= 4.18D-03 EMaxC= 1.00D-01 BMatC= 3.91D-03 BMatP= 3.79D-02
 IDIUse=3 WtCom= 9.58D-01 WtEn= 4.18D-02
 Coeff-Com: -0.185D-01 0.215D+00 0.804D+00
 Coeff-En:   0.000D+00 0.000D+00 0.100D+01
 Coeff:     -0.177D-01 0.206D+00 0.812D+00
 Gap=     0.481 Goal=   None    Shift=    0.000
 RMSDP=1.71D-04 MaxDP=6.69D-03 DE=-2.36D-02 OVMax= 1.27D-02

 Cycle   4  Pass 1  IDiag  1:
 E= -115.091243287304     Delta-E=       -0.002459442389 Rises=F Damp=F
 DIIS: error= 6.33D-04 at cycle   4 NSaved=   4.
 NSaved= 4 IEnMin= 4 EnMin= -115.091243287304     IErMin= 4 ErrMin= 6.33D-04
 ErrMax= 6.33D-04 EMaxC= 1.00D-01 BMatC= 1.01D-04 BMatP= 3.91D-03
 IDIUse=3 WtCom= 9.94D-01 WtEn= 6.33D-03
 Coeff-Com: -0.826D-02 0.314D-01 0.197D+00 0.779D+00
 Coeff-En:   0.000D+00 0.000D+00 0.000D+00 0.100D+01
 Coeff:     -0.821D-02 0.312D-01 0.196D+00 0.781D+00
 Gap=     0.480 Goal=   None    Shift=    0.000
 RMSDP=2.88D-05 MaxDP=8.41D-04 DE=-2.46D-03 OVMax= 2.84D-03

 Cycle   5  Pass 1  IDiag  1:
 E= -115.091333207668     Delta-E=       -0.000089920364 Rises=F Damp=F
 DIIS: error= 1.82D-04 at cycle   5 NSaved=   5.
 NSaved= 5 IEnMin= 5 EnMin= -115.091333207668     IErMin= 5 ErrMin= 1.82D-04
 ErrMax= 1.82D-04 EMaxC= 1.00D-01 BMatC= 5.71D-06 BMatP= 1.01D-04
 IDIUse=3 WtCom= 9.98D-01 WtEn= 1.82D-03
 Coeff-Com:  0.155D-02-0.180D-01-0.711D-01-0.880D-02 0.110D+01
 Coeff-En:   0.000D+00 0.000D+00 0.000D+00 0.000D+00 0.100D+01
 Coeff:      0.155D-02-0.179D-01-0.710D-01-0.878D-02 0.110D+01
 Gap=     0.480 Goal=   None    Shift=    0.000
 RMSDP=1.53D-05 MaxDP=5.17D-04 DE=-8.99D-05 OVMax= 9.79D-04

 Cycle   6  Pass 1  IDiag  1:
 E= -115.091342622204     Delta-E=       -0.000009414537 Rises=F Damp=F
 DIIS: error= 3.75D-05 at cycle   6 NSaved=   6.
 NSaved= 6 IEnMin= 6 EnMin= -115.091342622204     IErMin= 6 ErrMin= 3.75D-05
 ErrMax= 3.75D-05 EMaxC= 1.00D-01 BMatC= 2.41D-07 BMatP= 5.71D-06
 IDIUse=1 WtCom= 1.00D+00 WtEn= 0.00D+00
 Coeff-Com:  0.432D-03-0.161D-02-0.823D-02-0.445D-01-0.946D-01 0.115D+01
 Coeff:      0.432D-03-0.161D-02-0.823D-02-0.445D-01-0.946D-01 0.115D+01
 Gap=     0.480 Goal=   None    Shift=    0.000
 RMSDP=4.53D-06 MaxDP=1.39D-04 DE=-9.41D-06 OVMax= 3.37D-04

 Cycle   7  Pass 1  IDiag  1:
 E= -115.091343261183     Delta-E=       -0.000000638978 Rises=F Damp=F
 DIIS: error= 8.60D-06 at cycle   7 NSaved=   7.
 NSaved= 7 IEnMin= 7 EnMin= -115.091343261183     IErMin= 7 ErrMin= 8.60D-06
 ErrMax= 8.60D-06 EMaxC= 1.00D-01 BMatC= 1.24D-08 BMatP= 2.41D-07
 IDIUse=1 WtCom= 1.00D+00 WtEn= 0.00D+00
 Coeff-Com: -0.196D-03 0.130D-02 0.607D-02 0.123D-01-0.185D-01-0.354D+00
 Coeff-Com:  0.135D+01
 Coeff:     -0.196D-03 0.130D-02 0.607D-02 0.123D-01-0.185D-01-0.354D+00
 Coeff:      0.135D+01
 Gap=     0.480 Goal=   None    Shift=    0.000
 RMSDP=1.12D-06 MaxDP=4.07D-05 DE=-6.39D-07 OVMax= 1.02D-04

 Cycle   8  Pass 1  IDiag  1:
 E= -115.091343296332     Delta-E=       -0.000000035149 Rises=F Damp=F
 DIIS: error= 1.72D-06 at cycle   8 NSaved=   8.
 NSaved= 8 IEnMin= 8 EnMin= -115.091343296332     IErMin= 8 ErrMin= 1.72D-06
 ErrMax= 1.72D-06 EMaxC= 1.00D-01 BMatC= 3.94D-10 BMatP= 1.24D-08
 IDIUse=1 WtCom= 1.00D+00 WtEn= 0.00D+00
 Coeff-Com:  0.276D-04-0.229D-03-0.118D-02-0.175D-02 0.661D-02 0.616D-01
 Coeff-Com: -0.382D+00 0.132D+01
 Coeff:      0.276D-04-0.229D-03-0.118D-02-0.175D-02 0.661D-02 0.616D-01
 Coeff:     -0.382D+00 0.132D+01
 Gap=     0.480 Goal=   None    Shift=    0.000
 RMSDP=2.35D-07 MaxDP=6.13D-06 DE=-3.51D-08 OVMax= 1.91D-05

 Cycle   9  Pass 1  IDiag  1:
 E= -115.091343297447     Delta-E=       -0.000000001115 Rises=F Damp=F
 DIIS: error= 2.56D-07 at cycle   9 NSaved=   9.
 NSaved= 9 IEnMin= 9 EnMin= -115.091343297447     IErMin= 9 ErrMin= 2.56D-07
 ErrMax= 2.56D-07 EMaxC= 1.00D-01 BMatC= 1.19D-11 BMatP= 3.94D-10
 IDIUse=1 WtCom= 1.00D+00 WtEn= 0.00D+00
 Coeff-Com: -0.159D-05 0.230D-04 0.153D-03 0.365D-04-0.170D-02-0.331D-02
 Coeff-Com:  0.547D-01-0.333D+00 0.128D+01
 Coeff:     -0.159D-05 0.230D-04 0.153D-03 0.365D-04-0.170D-02-0.331D-02
 Coeff:      0.547D-01-0.333D+00 0.128D+01
 Gap=     0.480 Goal=   None    Shift=    0.000
 RMSDP=3.40D-08 MaxDP=7.85D-07 DE=-1.11D-09 OVMax= 2.69D-06

 Cycle  10  Pass 1  IDiag  1:
 E= -115.091343297478     Delta-E=       -0.000000000032 Rises=F Damp=F
 DIIS: error= 5.26D-08 at cycle  10 NSaved=  10.
 NSaved=10 IEnMin=10 EnMin= -115.091343297478     IErMin=10 ErrMin= 5.26D-08
 ErrMax= 5.26D-08 EMaxC= 1.00D-01 BMatC= 4.70D-13 BMatP= 1.19D-11
 IDIUse=1 WtCom= 1.00D+00 WtEn= 0.00D+00
 Coeff-Com: -0.593D-06 0.417D-05 0.149D-04 0.533D-04-0.370D-05-0.126D-02
 Coeff-Com:  0.480D-02-0.186D-02-0.171D+00 0.117D+01
 Coeff:     -0.593D-06 0.417D-05 0.149D-04 0.533D-04-0.370D-05-0.126D-02
 Coeff:      0.480D-02-0.186D-02-0.171D+00 0.117D+01
 Gap=     0.480 Goal=   None    Shift=    0.000
 RMSDP=7.61D-09 MaxDP=2.04D-07 DE=-3.16D-11 OVMax= 5.58D-07

 SCF Done:  E(RHF) =  -115.091343297     A.U. after   10 cycles
             Convg  =    0.7609D-08             -V/T =  2.0018
 KE= 1.148809341299D+02 PE=-3.515597683074D+02 EE= 8.136937882713D+01
 Leave Link  502 at Fri Jan  8 10:47:04 2021, MaxMem=13421772800 cpu:      56.4
 (Enter /opt/g09gh/gaussian/g09/l801.exe)
 ExpMin= 2.53D-02 ExpMax= 1.53D+04 ExpMxC= 5.22D+02 IAcc=3 IRadAn=         5 AccDes= 0.00D+00
 HarFok:  IExCor=  205 AccDes= 0.00D+00 IRadAn=         5 IDoV=-2
 ScaDFX=  1.000000  1.000000  1.000000  1.000000
 Largest valence mixing into a core orbital is  2.09D-04
 Largest core mixing into a valence orbital is  2.78D-05
 Range of M.O.s used for correlation:     3   184
 NBasis=   184 NAE=     9 NBE=     9 NFC=     2 NFV=     0
 NROrb=    182 NOA=     7 NOB=     7 NVA=   175 NVB=   175

 **** Warning!!: The largest alpha MO coefficient is  0.39665934D+02

 Leave Link  801 at Fri Jan  8 10:47:04 2021, MaxMem=13421772800 cpu:       0.7
 (Enter /opt/g09gh/gaussian/g09/l906.exe)
 Frozen-core derivative calculation, NFC=   2 NFV=   0.
 FulOut=F Deriv=T AODrv=F NAtomX=     6
   MMem=        2826  MDisk=           7 MDiskD=           7
  W3Min=      347760 MinDsk=      823745 NBas6D=         210
 NBas2D=       22605    NTT=       22155    LW2=     3500000
    MDV= 13421386633 MDiskM=      319509 NBas2p=       22605
 Fully in-core method, ICMem=   522516285.
 IMap=   1   2   3   4   5   6   7   8   9
 JobTyp=1 Pass  1 fully in-core, NPsUse=  8.
 Compute canonical integrals, IntTyp=   4.
 Symmetry not used in FoFDir.
 MinBra= 0 MaxBra= 3 Meth= 1.
 IRaf=       0 NMat=   1 IRICut=       1 DoRegI=T DoRafI=F ISym2E= 0 JSym2E=0.
 Spin components of T(2) and E(2):
     alpha-alpha T2 =       0.1378153386D-01 E2=     -0.5008379528D-01
     alpha-beta  T2 =       0.8751829552D-01 E2=     -0.3373404681D+00
     beta-beta   T2 =       0.1378153386D-01 E2=     -0.5008379528D-01
 The integrals were generated   1 times.
 ANorm=    0.1055974130D+01
 E2 =    -0.4375080586D+00 EUMP2 =    -0.11552885135610D+03
 Leave Link  906 at Fri Jan  8 10:47:33 2021, MaxMem=13421772800 cpu:     225.2
 (Enter /opt/g09gh/gaussian/g09/l1002.exe)
 Minotr:  Closed shell wavefunction.
          Computing MP2/KS-MP2 derivatives.
          Using Z-Vector for PSCF gradient.
          Skipping F1 and S1 gradient terms here.
          Frozen-core window.
          Direct CPHF calculation.
          Differentiating once with respect to electric field.
                with respect to dipole field.
          Electric field/nuclear overlap derivatives assumed to be zero.
          Requested convergence is 1.0D-10 RMS, and 1.0D-09 maximum.
          NewPWx=F KeepS1=T KeepF1=T KeepIn=T MapXYZ=F SortEE=F KeepMc=T.
          MDV=   13421772748 using IRadAn=       0.
          Keep R1 ints in memory in canonical form, NReq=247374219.
 Symmetry not used in FoFDir.
 MinBra= 0 MaxBra= 3 Meth= 1.
 IRaf=       0 NMat=   1 IRICut=       1 DoRegI=T DoRafI=F ISym2E= 0 JSym2E=0.
          Solving linear equations separately, MaxMat=       0.
          There are     1 degrees of freedom in the 1st order CPHF.  IDoFFX=0.
 LinEq1:  Iter=  0 NonCon=     1 RMS=3.19D-03 Max=3.77D-02
 AX will form     1 AO Fock derivatives at one time.
 LinEq1:  Iter=  1 NonCon=     1 RMS=7.34D-04 Max=6.76D-03
 LinEq1:  Iter=  2 NonCon=     1 RMS=2.22D-04 Max=1.84D-03
 LinEq1:  Iter=  3 NonCon=     1 RMS=5.54D-05 Max=5.24D-04
 LinEq1:  Iter=  4 NonCon=     1 RMS=2.50D-05 Max=2.58D-04
 LinEq1:  Iter=  5 NonCon=     1 RMS=4.63D-06 Max=5.14D-05
 LinEq1:  Iter=  6 NonCon=     1 RMS=8.16D-07 Max=5.59D-06
 LinEq1:  Iter=  7 NonCon=     1 RMS=1.39D-07 Max=9.73D-07
 LinEq1:  Iter=  8 NonCon=     1 RMS=2.72D-08 Max=2.91D-07
 LinEq1:  Iter=  9 NonCon=     1 RMS=4.99D-09 Max=5.09D-08
 LinEq1:  Iter= 10 NonCon=     1 RMS=7.86D-10 Max=6.91D-09
 LinEq1:  Iter= 11 NonCon=     1 RMS=1.15D-10 Max=1.06D-09
 LinEq1:  Iter= 12 NonCon=     0 RMS=1.58D-11 Max=1.43D-10
 Linear equations converged to 1.000D-10 1.000D-09 after    12 iterations.
 End of Minotr Frequency-dependent properties file   721 does not exist.
 End of Minotr Frequency-dependent properties file   722 does not exist.
 Leave Link 1002 at Fri Jan  8 10:47:42 2021, MaxMem=13421772800 cpu:      68.0
 (Enter /opt/g09gh/gaussian/g09/l601.exe)
 Copying SCF densities to generalized density rwf, IOpCl= 0 IROHF=0.

 **********************************************************************

            Population analysis using the MP2 density.

 **********************************************************************

 Orbital symmetries:
       Occupied  (A) (A) (A) (A) (A) (A) (A) (A) (A)
       Virtual   (A) (A) (A) (A) (A) (A) (A) (A) (A) (A) (A) (A)
                 (A) (A) (A) (A) (A) (A) (A) (A) (A) (A) (A) (A)
                 (A) (A) (A) (A) (A) (A) (A) (A) (A) (A) (A) (A)
                 (A) (A) (A) (A) (A) (A) (A) (A) (A) (A) (A) (A)
                 (A) (A) (A) (A) (A) (A) (A) (A) (A) (A) (A) (A)
                 (A) (A) (A) (A) (A) (A) (A) (A) (A) (A) (A) (A)
                 (A) (A) (A) (A) (A) (A) (A) (A) (A) (A) (A) (A)
                 (A) (A) (A) (A) (A) (A) (A) (A) (A) (A) (A) (A)
                 (A) (A) (A) (A) (A) (A) (A) (A) (A) (A) (A) (A)
                 (A) (A) (A) (A) (A) (A) (A) (A) (A) (A) (A) (A)
                 (A) (A) (A) (A) (A) (A) (A) (A) (A) (A) (A) (A)
                 (A) (A) (A) (A) (A) (A) (A) (A) (A) (A) (A) (A)
                 (A) (A) (A) (A) (A) (A) (A) (A) (A) (A) (A) (A)
                 (A) (A) (A) (A) (A) (A) (A) (A) (A) (A) (A) (A)
                 (A) (A) (A) (A) (A) (A) (A)
 The electronic state is 1-A.
 Alpha  occ. eigenvalues --  -20.56112 -11.27275  -1.35609  -0.92377  -0.68962
 Alpha  occ. eigenvalues --   -0.61879  -0.59229  -0.50403  -0.45159
 Alpha virt. eigenvalues --    0.02844   0.04292   0.04668   0.05301   0.09907
 Alpha virt. eigenvalues --    0.11645   0.12919   0.13997   0.16531   0.17289
 Alpha virt. eigenvalues --    0.18288   0.21081   0.21539   0.26823   0.26888
 Alpha virt. eigenvalues --    0.29303   0.30011   0.32087   0.32161   0.33293
 Alpha virt. eigenvalues --    0.34330   0.35135   0.36934   0.39128   0.40856
 Alpha virt. eigenvalues --    0.43272   0.43664   0.44549   0.45370   0.46078
 Alpha virt. eigenvalues --    0.47926   0.50520   0.51334   0.52523   0.66432
 Alpha virt. eigenvalues --    0.66767   0.68034   0.75279   0.77021   0.78005
 Alpha virt. eigenvalues --    0.79159   0.80575   0.84987   0.85680   0.88630
 Alpha virt. eigenvalues --    0.89994   0.93203   0.93451   0.93733   0.94865
 Alpha virt. eigenvalues --    0.97377   0.97753   0.98333   1.01553   1.04330
 Alpha virt. eigenvalues --    1.07083   1.07175   1.09317   1.10882   1.12301
 Alpha virt. eigenvalues --    1.13871   1.14425   1.17741   1.19889   1.20148
 Alpha virt. eigenvalues --    1.25052   1.29585   1.31478   1.37138   1.40738
 Alpha virt. eigenvalues --    1.43591   1.53163   1.55191   1.55852   1.59237
 Alpha virt. eigenvalues --    1.60045   1.61210   1.64719   1.65729   1.66973
 Alpha virt. eigenvalues --    1.70082   1.73215   1.75271   1.88624   1.93183
 Alpha virt. eigenvalues --    1.95719   1.97410   2.03254   2.03687   2.06920
 Alpha virt. eigenvalues --    2.07509   2.16216   2.17468   2.37591   2.47342
 Alpha virt. eigenvalues --    2.47954   2.51250   2.54898   2.58417   2.73082
 Alpha virt. eigenvalues --    2.75503   2.78254   2.84071   2.88741   2.94083
 Alpha virt. eigenvalues --    2.97634   3.04944   3.18881   3.31715   3.37938
 Alpha virt. eigenvalues --    3.52548   3.54800   3.57595   3.62306   3.63400
 Alpha virt. eigenvalues --    3.70402   3.76930   3.85190   3.88371   3.93109
 Alpha virt. eigenvalues --    3.93979   3.98499   4.05762   4.07939   4.09595
 Alpha virt. eigenvalues --    4.16377   4.19672   4.22184   4.22425   4.27512
 Alpha virt. eigenvalues --    4.46826   4.49217   4.51260   4.53891   4.59573
 Alpha virt. eigenvalues --    4.63153   4.75149   4.75239   4.75609   4.90333
 Alpha virt. eigenvalues --    4.95815   5.01120   5.02197   5.05192   5.11966
 Alpha virt. eigenvalues --    5.22818   5.24075   5.36497   5.45843   5.51024
 Alpha virt. eigenvalues --    5.57545   5.57716   5.61957   5.69724   6.08671
 Alpha virt. eigenvalues --    6.09053   6.11088   6.15249   6.55745   6.61000
 Alpha virt. eigenvalues --    6.62434   6.87619   6.88938   7.05865   7.25356
 Alpha virt. eigenvalues --    7.28843   7.36703   7.45641   7.52034   7.72362
 Alpha virt. eigenvalues --    7.83439   8.13053   8.48286  15.39893  17.57401
          Condensed to atoms (all electrons):
              1          2          3          4          5          6
     1  O    8.381607  -0.007579  -0.001617  -0.001618  -0.020854   0.103194
     2  C   -0.007579   5.981729   0.238803   0.238803   0.252306   0.016960
     3  H   -0.001617   0.238803   0.448011  -0.009956   0.002800   0.006190
     4  H   -0.001618   0.238803  -0.009956   0.448010   0.002800   0.006190
     5  H   -0.020854   0.252306   0.002800   0.002800   0.419238   0.000236
     6  H    0.103194   0.016960   0.006190   0.006190   0.000236   0.668093
 Mulliken atomic charges:
              1
     1  O   -0.453133
     2  C   -0.721022
     3  H    0.315770
     4  H    0.315772
     5  H    0.343476
     6  H    0.199138
 Sum of Mulliken atomic charges =   0.00000
 Mulliken charges with hydrogens summed into heavy atoms:
              1
     1  O   -0.253996
     2  C    0.253996
 Sum of Mulliken charges with hydrogens summed into heavy atoms =   0.00000
 Electronic spatial extent (au):  <R**2>=             85.1697
 Charge=              0.0000 electrons
 Dipole moment (field-independent basis, Debye):
    X=             -0.8689    Y=             -1.4591    Z=              0.0000  Tot=              1.6982
 Quadrupole moment (field-independent basis, Debye-Ang):
   XX=            -13.2507   YY=            -12.3398   ZZ=            -14.0400
   XY=             -2.2278   XZ=              0.0000   YZ=              0.0000
 Traceless Quadrupole moment (field-independent basis, Debye-Ang):
   XX=             -0.0405   YY=              0.8704   ZZ=             -0.8299
   XY=             -2.2278   XZ=              0.0000   YZ=              0.0000
 Octapole moment (field-independent basis, Debye-Ang**2):
  XXX=              4.1908  YYY=             -0.4567  ZZZ=              0.0000  XYY=              1.7388
  XXY=             -2.3086  XXZ=              0.0000  XZZ=              0.0816  YZZ=             -0.6716
  YYZ=              0.0000  XYZ=              0.0000
 Hexadecapole moment (field-independent basis, Debye-Ang**3):
 XXXX=            -64.4730 YYYY=            -20.9483 ZZZZ=            -21.0185 XXXY=             -4.0127
 XXXZ=              0.0001 YYYX=             -3.1711 YYYZ=              0.0000 ZZZX=              0.0000
 ZZZY=              0.0000 XXYY=            -13.1078 XXZZ=            -15.1699 YYZZ=             -7.1721
 XXYZ=              0.0000 YYXZ=              0.0001 ZZXY=              0.2143
 N-N= 4.021811205285D+01 E-N=-3.517243686915D+02  KE= 1.153823726035D+02
 No NMR shielding tensors so no spin-rotation constants.
 Leave Link  601 at Fri Jan  8 10:47:42 2021, MaxMem=13421772800 cpu:       1.5
 (Enter /opt/g09gh/gaussian/g09/l9999.exe)
 1\1\GINC-NODE37\SP\RMP2-FC\Aug-CC-pVTZ\C1H4O1\BDW2292\08-Jan-2021\0\\#
 P MP2/aug-cc-pVTZ Sp Density=MP2 SCF=Save MaxDisk=200GB MaxDisk=200GB\
 \methanol Gaussian SP Calculation on node37.bme.utexas.edu\\0,1\O,0,0.
 749531,0.122589,-0.000002\C,0,-0.664447,-0.019643,0.000001\H,0,-1.0342
 55,-0.542785,0.89137\H,0,-1.034254,-0.542822,-0.891347\H,0,-1.076406,0
 .989749,-0.00002\H,0,1.135352,-0.766996,0.00001\\Version=EM64L-G09RevA
 .02\State=1-A\HF=-115.0913433\MP2=-115.5288514\RMSD=7.609e-09\Dipole=-
 0.3418656,-0.5740405,0.0000074\Quadrupole=-0.0301204,0.64711,-0.616989
 7,-1.6562947,0.0000237,-0.0000151\PG=C01 [X(C1H4O1)]\\@


 Any fool can criticize, condemn, and complain -- and most do.
 -- Dale Carnegie
 Job cpu time:  0 days  0 hours  5 minutes 58.5 seconds.
 File lengths (MBytes):  RWF=     15 Int=      0 D2E=      0 Chk=      3 Scr=      1
 Normal termination of Gaussian 09 at Fri Jan  8 10:47:42 2021.
