methanol Gaussian OPT Calculation on node37.bme.utexas.edu              
FOpt      RwB97XD                                                     6-31G(d)            
Number of atoms                            I                6
Info1-9                                    I   N=           9
          17          17           0           0           0         110
           2          18        -802
Charge                                     I                0
Multiplicity                               I                1
Number of electrons                        I               18
Number of alpha electrons                  I                9
Number of beta electrons                   I                9
Number of basis functions                  I               38
Number of independent functions            I               38
Number of point charges in /Mol/           I                0
Number of translation vectors              I                0
Atomic numbers                             I   N=           6
           8           6           1           1           1           1
Nuclear charges                            R   N=           6
  8.00000000E+00  6.00000000E+00  1.00000000E+00  1.00000000E+00  1.00000000E+00
  1.00000000E+00
Current cartesian coordinates              R   N=          18
  1.41002267E+00  2.30832886E-01 -2.54084600E-06 -1.24718234E+00 -3.72022629E-02
 -5.98114295E-07 -1.94753091E+00 -1.02720941E+00  1.68762562E+00 -1.94752860E+00
 -1.02728777E+00 -1.68758613E+00 -2.03860278E+00  1.86923418E+00 -3.31117374E-05
  2.13657495E+00 -1.43818650E+00  1.75425101E-05
Force Field                                I                0
Int Atom Types                             I   N=           6
           0           0           0           0           0           0
MM charges                                 R   N=           6
  0.00000000E+00  0.00000000E+00  0.00000000E+00  0.00000000E+00  0.00000000E+00
  0.00000000E+00
Integer atomic weights                     I   N=           6
          16          12           1           1           1           1
Real atomic weights                        R   N=           6
  1.59949146E+01  1.20000000E+01  1.00782504E+00  1.00782504E+00  1.00782504E+00
  1.00782504E+00
Atom fragment info                         I   N=           6
           0           0           0           0           0           0
Atom residue num                           I   N=           6
           0           0           0           0           0           0
Nuclear spins                              I   N=           6
           0           0           1           1           1           1
Nuclear ZEff                               R   N=           6
 -5.60000000E+00 -3.60000000E+00 -1.00000000E+00 -1.00000000E+00 -1.00000000E+00
 -1.00000000E+00
Nuclear QMom                               R   N=           6
  0.00000000E+00  0.00000000E+00  0.00000000E+00  0.00000000E+00  0.00000000E+00
  0.00000000E+00
Nuclear GFac                               R   N=           6
  0.00000000E+00  0.00000000E+00  2.79284600E+00  2.79284600E+00  2.79284600E+00
  2.79284600E+00
MicOpt                                     I   N=           6
          -1          -1          -1          -1          -1          -1
Number of contracted shells                I               16
Number of primitive shells                 I               38
Pure/Cartesian d shells                    I                1
Pure/Cartesian f shells                    I                0
Highest angular momentum                   I                2
Largest degree of contraction              I                6
Shell types                                I   N=          16
           0          -1          -1           2           0          -1
          -1           2           0           0           0           0
           0           0           0           0
Number of primitives per shell             I   N=          16
           6           3           1           1           6           3
           1           1           3           1           3           1
           3           1           3           1
Shell to atom map                          I   N=          16
           1           1           1           1           2           2
           2           2           3           3           4           4
           5           5           6           6
Primitive exponents                        R   N=          38
  5.48467166E+03  8.25234946E+02  1.88046958E+02  5.29645000E+01  1.68975704E+01
  5.79963534E+00  1.55396162E+01  3.59993359E+00  1.01376175E+00  2.70005823E-01
  8.00000000E-01  3.04752488E+03  4.57369518E+02  1.03948685E+02  2.92101553E+01
  9.28666296E+00  3.16392696E+00  7.86827235E+00  1.88128854E+00  5.44249258E-01
  1.68714478E-01  8.00000000E-01  1.87311370E+01  2.82539436E+00  6.40121692E-01
  1.61277759E-01  1.87311370E+01  2.82539436E+00  6.40121692E-01  1.61277759E-01
  1.87311370E+01  2.82539436E+00  6.40121692E-01  1.61277759E-01  1.87311370E+01
  2.82539436E+00  6.40121692E-01  1.61277759E-01
Contraction coefficients                   R   N=          38
  1.83107443E-03  1.39501722E-02  6.84450781E-02  2.32714336E-01  4.70192898E-01
  3.58520853E-01 -1.10777550E-01 -1.48026263E-01  1.13076702E+00  1.00000000E+00
  1.00000000E+00  1.83473713E-03  1.40373228E-02  6.88426223E-02  2.32184443E-01
  4.67941348E-01  3.62311985E-01 -1.19332420E-01 -1.60854152E-01  1.14345644E+00
  1.00000000E+00  1.00000000E+00  3.34946043E-02  2.34726953E-01  8.13757326E-01
  1.00000000E+00  3.34946043E-02  2.34726953E-01  8.13757326E-01  1.00000000E+00
  3.34946043E-02  2.34726953E-01  8.13757326E-01  1.00000000E+00  3.34946043E-02
  2.34726953E-01  8.13757326E-01  1.00000000E+00
P(S=P) Contraction coefficients            R   N=          38
  0.00000000E+00  0.00000000E+00  0.00000000E+00  0.00000000E+00  0.00000000E+00
  0.00000000E+00  7.08742682E-02  3.39752839E-01  7.27158577E-01  1.00000000E+00
  0.00000000E+00  0.00000000E+00  0.00000000E+00  0.00000000E+00  0.00000000E+00
  0.00000000E+00  0.00000000E+00  6.89990666E-02  3.16423961E-01  7.44308291E-01
  1.00000000E+00  0.00000000E+00  0.00000000E+00  0.00000000E+00  0.00000000E+00
  0.00000000E+00  0.00000000E+00  0.00000000E+00  0.00000000E+00  0.00000000E+00
  0.00000000E+00  0.00000000E+00  0.00000000E+00  0.00000000E+00  0.00000000E+00
  0.00000000E+00  0.00000000E+00  0.00000000E+00
Coordinates of each shell                  R   N=          48
  1.41002267E+00  2.30832886E-01 -2.54084600E-06  1.41002267E+00  2.30832886E-01
 -2.54084600E-06  1.41002267E+00  2.30832886E-01 -2.54084600E-06  1.41002267E+00
  2.30832886E-01 -2.54084600E-06 -1.24718234E+00 -3.72022629E-02 -5.98114295E-07
 -1.24718234E+00 -3.72022629E-02 -5.98114295E-07 -1.24718234E+00 -3.72022629E-02
 -5.98114295E-07 -1.24718234E+00 -3.72022629E-02 -5.98114295E-07 -1.94753091E+00
 -1.02720941E+00  1.68762562E+00 -1.94753091E+00 -1.02720941E+00  1.68762562E+00
 -1.94752860E+00 -1.02728777E+00 -1.68758613E+00 -1.94752860E+00 -1.02728777E+00
 -1.68758613E+00 -2.03860278E+00  1.86923418E+00 -3.31117374E-05 -2.03860278E+00
  1.86923418E+00 -3.31117374E-05  2.13657495E+00 -1.43818650E+00  1.75425102E-05
  2.13657495E+00 -1.43818650E+00  1.75425102E-05
Constraint Structure                       R   N=          18
 -1.40354527E+00  2.46159046E-01 -6.61767176E-05  1.25684176E+00 -3.75720776E-02
  3.02612981E-05  1.84133899E+00 -1.06706645E+00 -1.69214048E+00  1.84111893E+00
 -1.06619748E+00  1.69249171E+00  2.13151743E+00  1.83254232E+00 -2.94193501E-04
 -2.12666378E+00 -1.44311829E+00  2.90811783E-04
Num ILSW                                   I              100
ILSW                                       I   N=         100
           0           1           0           0           2           0
           0           0           0           0        4639 26843545600
           0           0           0           0           0           0
           0           0           0           0           1           0
           1           0           0           0           0           0
           0           0      100000           0          -1           0
           0           0           0           0           0           0
           0           0           0           1           0           0
           0           0           1           0           0           0
           0           0           2          40           0           0
           0           0          58           0           0           0
           0           0           0           0           0           0
           0           0           0           0           0           0
           0           0           0           0           0           0
           0           0           0           0           0           0
           0           0           0           0           0           0
           0           0           0           0
Num RLSW                                   I               40
RLSW                                       R   N=          40
  1.00000000E+00  1.00000000E+00  1.00000000E+00  1.00000000E+00  1.00000000E+00
  0.00000000E+00  2.00000000E-01  2.22036000E-01  0.00000000E+00  7.77964000E-01
  0.00000000E+00  2.00000000E-01  0.00000000E+00  0.00000000E+00  1.00000000E+00
  0.00000000E+00  0.00000000E+00  1.00000000E+00  0.00000000E+00  0.00000000E+00
  0.00000000E+00  0.00000000E+00  1.00000000E+00  0.00000000E+00  0.00000000E+00
  0.00000000E+00  0.00000000E+00  1.00000000E+00  0.00000000E+00  0.00000000E+00
  0.00000000E+00  0.00000000E+00  0.00000000E+00  0.00000000E+00  0.00000000E+00
  0.00000000E+00  0.00000000E+00  0.00000000E+00  1.00000000E+00  1.00000000E+00
MxBond                                     I                4
NBond                                      I   N=           6
           2           4           1           1           1           1
IBond                                      I   N=          24
           2           6           0           0           1           3
           4           5           2           0           0           0
           2           0           0           0           2           0
           0           0           1           0           0           0
RBond                                      R   N=          24
  1.00000000E+00  1.00000000E+00  0.00000000E+00  0.00000000E+00  1.00000000E+00
  1.00000000E+00  1.00000000E+00  1.00000000E+00  1.00000000E+00  0.00000000E+00
  0.00000000E+00  0.00000000E+00  1.00000000E+00  0.00000000E+00  0.00000000E+00
  0.00000000E+00  1.00000000E+00  0.00000000E+00  0.00000000E+00  0.00000000E+00
  1.00000000E+00  0.00000000E+00  0.00000000E+00  0.00000000E+00
Virial Ratio                               R      2.008548853257861E+00
SCF Energy                                 R     -1.156771338591253E+02
Total Energy                               R     -1.156771338591253E+02
RMS Force                                  R      7.110052062720819E-04
RMS Density                                R      4.686572192008366E-09
External E-field                           R   N=          35
  0.00000000E+00  0.00000000E+00  0.00000000E+00  0.00000000E+00  0.00000000E+00
  0.00000000E+00  0.00000000E+00  0.00000000E+00  0.00000000E+00  0.00000000E+00
  0.00000000E+00  0.00000000E+00  0.00000000E+00  0.00000000E+00  0.00000000E+00
  0.00000000E+00  0.00000000E+00  0.00000000E+00  0.00000000E+00  0.00000000E+00
  0.00000000E+00  0.00000000E+00  0.00000000E+00  0.00000000E+00  0.00000000E+00
  0.00000000E+00  0.00000000E+00  0.00000000E+00  0.00000000E+00  0.00000000E+00
  0.00000000E+00  0.00000000E+00  0.00000000E+00  0.00000000E+00  0.00000000E+00
IOpCl                                      I                0
IROHF                                      I                0
Alpha Orbital Energies                     R   N=          38
 -1.92624815E+01 -1.03331601E+01 -1.11369779E+00 -7.74521104E-01 -5.91186981E-01
 -5.21655347E-01 -5.05418948E-01 -4.13631646E-01 -3.48626506E-01  1.67144852E-01
  2.20127722E-01  2.52815878E-01  2.60927420E-01  2.93833531E-01  6.29497175E-01
  6.57501460E-01  6.67578346E-01  8.83995376E-01  9.49032896E-01  9.67883742E-01
  1.00212078E+00  1.04755927E+00  1.07007686E+00  1.11261058E+00  1.20759975E+00
  1.55095485E+00  1.58517686E+00  1.67241362E+00  1.83117727E+00  2.13666052E+00
  2.20665063E+00  2.22426122E+00  2.44351226E+00  2.49675800E+00  2.54638290E+00
  2.89054907E+00  3.80478404E+00  4.31685082E+00
Alpha MO coefficients                      R   N=        1444
  9.93009706E-01  2.56614404E-02 -4.73013509E-04 -9.91290651E-04  1.18973270E-08
  1.00732792E-02 -2.23272312E-04  1.85680993E-04 -2.29134088E-09 -7.53805104E-03
 -7.47571744E-03 -7.42179589E-03 -2.38202953E-05  1.90241592E-10  7.58994986E-10
 -6.09606610E-07  2.57414602E-04  3.71320444E-04  9.79236233E-05 -1.14578455E-09
 -1.36662237E-03 -7.40196098E-04 -4.64198554E-04  4.81608005E-09  2.32584220E-04
 -2.35500192E-05  1.51011089E-05  2.51935221E-05 -2.84274661E-11  1.23697936E-09
  2.24727831E-05 -6.04564215E-05  2.24711353E-05 -6.04576772E-05  1.06331958E-04
  1.69604186E-04  3.95128012E-04 -9.39313699E-04 -1.11588898E-04 -1.57663020E-04
  1.33720117E-04 -2.45203775E-05 -3.23412245E-10  1.90424876E-03 -1.26552210E-04
  1.55812983E-04  2.66519468E-09 -8.45722486E-04 -7.28321993E-05 -2.07774177E-05
 -6.85972269E-05 -7.98611520E-10  4.29651337E-10  9.93296731E-01  4.62683987E-02
  5.42693120E-04  2.58085187E-05  4.84397499E-09 -1.42955737E-02  5.07652908E-04
 -7.50883520E-05 -2.29039611E-08 -7.74558489E-03 -7.99078022E-03 -8.00405298E-03
  2.10329488E-05 -1.04222211E-09  5.46333368E-10 -1.46352579E-04  2.79834831E-03
 -1.46354979E-04  2.79832323E-03 -1.34531246E-04  2.87504930E-03  2.97337101E-06
  3.88601906E-04 -2.01755601E-01  4.48982741E-01 -5.97254239E-02 -9.79448465E-02
  1.15299381E-06  4.23641762E-01 -2.71639823E-02 -4.81116766E-02  5.67733950E-07
  1.07825143E-02  1.62723205E-02 -9.40567349E-03 -4.66830524E-03  6.55561795E-08
 -3.52395113E-07 -7.48314330E-02  1.37123343E-01  1.03707097E-01  4.77903634E-03
  5.96360884E-08  6.38985957E-02  3.82406450E-03 -6.39552646E-03  1.19010541E-07
  2.17619766E-02 -5.99842091E-03 -6.77173668E-03  1.07328671E-03 -2.38357679E-10
  1.36164650E-08  2.42535231E-02  9.66111243E-04  2.42534352E-02  9.66168344E-04
  2.50870176E-02  6.63521069E-03  1.30322335E-01  1.10869990E-04  6.04721422E-02
 -1.37424557E-01 -1.87262791E-01  9.55644393E-02 -1.07678434E-06 -1.78541795E-01
 -9.03929203E-02  4.68995175E-02 -5.48493349E-07  1.51101358E-02 -1.42257217E-02
  1.81088454E-03  1.19814431E-02 -1.51834500E-07  2.18610302E-07 -1.78641425E-01
  3.50762482E-01 -6.73108780E-02  1.60634617E-02  6.34044210E-07  3.34860821E-01
 -3.77397766E-02 -4.91329059E-03  3.47416693E-07 -7.27179443E-03  6.86504708E-03
  4.83508517E-03  2.03042982E-03 -1.13335679E-07  4.25431552E-08  1.30089909E-01
  3.52335080E-02  1.30089138E-01  3.52334194E-02  1.40396392E-01  4.22472024E-02
 -1.20102005E-01 -3.36395775E-02 -4.09570888E-02  9.46459460E-02 -2.73943166E-01
  3.26376364E-01 -4.03589549E-06  1.45349878E-01 -1.34951580E-01  1.78580162E-01
 -2.18021818E-06  1.29935607E-02 -2.88774205E-02  2.40011974E-03  4.25348024E-03
 -3.98429384E-08  4.30712329E-07  2.67924958E-02 -4.66297894E-02  2.25508572E-01
  2.16760861E-01 -2.71129285E-06 -8.12577130E-02  7.55117990E-02  1.01793648E-01
 -1.29905492E-06  1.93862271E-02 -2.94153688E-03 -1.70516507E-02  9.07354771E-03
 -3.85013609E-08 -3.98716442E-07 -1.17669255E-01 -6.81128996E-02 -1.17670830E-01
 -6.81140483E-02  3.05352407E-02  1.49109319E-02 -2.08759003E-01 -1.14685975E-01
 -7.28144493E-07  1.46805202E-06  8.32012076E-06  5.44300836E-06  2.66576396E-01
  3.04013753E-06  4.94394142E-06  3.43817153E-06  1.70085399E-01 -1.97746674E-07
 -3.34122425E-07  3.03057785E-07 -8.22690489E-07 -1.32330777E-02 -1.36899900E-02
  3.63486952E-07 -8.16188190E-07 -6.69165336E-06  1.26855527E-05  4.18733064E-01
 -6.02999102E-07 -2.66283645E-06  6.33686905E-06  1.89579423E-01 -4.32275051E-07
 -3.27331947E-07  8.31813829E-07 -3.40518269E-07 -3.87062580E-03 -1.79367770E-02
  1.99653771E-01  1.53806107E-01 -1.99653989E-01 -1.53806344E-01  3.97917450E-06
  2.39865687E-06  1.48999509E-06  1.17014802E-06 -3.09816030E-02  6.08373739E-02
  3.48642953E-01  1.30352880E-01 -8.76011398E-06  1.34592349E-01  2.09813896E-01
  8.27821999E-02 -5.70006283E-06 -8.27150039E-03 -4.54952989E-03  3.81891450E-04
 -2.80554714E-02  6.76906961E-07  4.15847324E-07  3.90571586E-03 -1.06938320E-02
 -2.79202671E-01  2.98252501E-01 -1.37487878E-05  4.85932214E-03 -1.16416079E-01
  1.66834923E-01 -6.81250399E-06 -1.79769539E-02  2.16902084E-02 -9.75698972E-04
 -1.02428158E-02  1.10336765E-07 -1.41955076E-07 -3.25542922E-02 -1.91868831E-02
 -3.25475249E-02 -1.91812481E-02  2.31866003E-01  1.60786678E-01  4.47860229E-02
  4.32882657E-02 -6.46313615E-02  1.29890470E-01  1.95691997E-01  4.15539963E-01
 -2.99905092E-06  3.08079864E-01  1.44854507E-01  2.90439881E-01 -2.03272434E-06
 -6.66489045E-03 -3.28150745E-02  2.02279316E-03 -9.00299010E-03  4.54125614E-08
  4.16527425E-07  1.26430559E-02 -3.19318487E-02 -1.12623211E-01 -2.80586531E-01
  3.85369723E-06 -1.99476412E-02 -3.35190827E-02 -1.05685864E-01  1.62341459E-06
 -8.32249082E-03 -6.50236888E-03  1.62930334E-02  2.63870120E-02 -2.70398435E-07
  6.19817254E-07  1.15131747E-01  1.26038856E-01  1.15134797E-01  1.26041808E-01
 -1.80283260E-01 -1.70991612E-01 -1.49750202E-01 -1.10132898E-01  1.46585193E-07
 -2.88846414E-07 -3.34854988E-07  6.30819646E-06  5.88500897E-01 -8.20937971E-07
 -2.94444567E-07  5.05880983E-06  4.66391531E-01  1.57279834E-08 -4.24755595E-07
  4.99182455E-07 -1.03652834E-07 -7.06879734E-03 -2.52341016E-02 -8.09891792E-08
  9.13668716E-08 -2.13097607E-08 -9.99412732E-07 -1.88419723E-01  6.39024381E-07
 -1.41531689E-07  1.35870371E-07 -4.94561218E-02 -3.81034517E-08  6.94797740E-07
 -6.67301968E-07  3.21873985E-07  3.36921434E-02  1.47074595E-02 -1.51388700E-01
 -1.82592549E-01  1.51386556E-01  1.82590035E-01  2.24454976E-06  2.70582921E-06
  4.12677537E-07  4.94516657E-07  8.97237738E-02 -1.17761375E-01 -2.94638409E-03
  2.38587953E-01 -3.45290304E-06 -1.11737053E+00  1.76540637E-02  4.35168442E-01
 -6.20473002E-06  3.24974970E-02  2.09997722E-02  4.50590581E-02 -4.43053855E-03
  2.44790789E-10  4.07886404E-07  3.77001678E-02 -4.42073279E-02  2.05784148E-01
  5.51484451E-02  1.24466203E-06 -7.05221714E-01  6.40744103E-01  8.38476278E-02
  3.30696216E-06 -1.28051310E-02  1.75517907E-02  9.95398172E-03  3.54218789E-03
 -3.06943524E-08 -2.95356936E-08  1.31540189E-02  5.19333335E-01  1.31549998E-02
  5.19344234E-01  1.25097276E-02  3.59687662E-01  1.19620044E-01  1.15467269E+00
  5.59944281E-02 -5.08291662E-02  8.52828608E-02  1.37949453E-01 -1.04543601E-06
 -7.74919186E-01  2.16853542E-01  2.42097541E-01 -2.06550632E-06  3.59305714E-02
  1.75861315E-02  2.92760858E-02 -5.12480094E-03  1.55189452E-07  5.56026183E-08
 -1.52601887E-01  2.07617310E-01 -5.80406844E-02 -1.66493001E-02 -1.66249837E-06
  2.37504996E+00 -1.25880819E-01 -3.54599352E-02 -1.30755378E-06 -1.40222095E-02
  2.53974947E-03 -4.80340627E-03  1.65111672E-03 -6.45824724E-08 -2.65872087E-07
 -3.01562892E-02 -1.08656757E+00 -3.01576934E-02 -1.08657656E+00 -2.38244959E-02
 -1.00296978E+00  6.69495970E-02  5.59045110E-01  7.93289892E-03 -1.43463306E-02
  1.37844110E-01  2.59534719E-02 -4.05441245E-07 -1.22975683E-01  2.39844130E-01
  1.10178080E-01 -8.38425917E-07 -5.23157734E-03  5.21782693E-03 -1.33818370E-03
  1.17090300E-02 -1.32667579E-07 -2.88284683E-07 -1.01142658E-02  3.64700528E-03
  1.21108718E-01 -3.95643032E-01  4.33637086E-06  6.82834277E-02  4.92783788E-01
 -1.25067818E+00  1.32282143E-05 -1.13884737E-02  2.16801757E-02 -1.00739346E-02
 -1.16368040E-02  2.11444349E-07 -8.07323261E-07 -4.50346875E-02 -7.09562786E-01
 -4.50349634E-02 -7.09589087E-01  1.23832306E-01  1.78413866E+00 -5.06352954E-02
 -3.10733928E-01  3.18338718E-07 -9.84527255E-07  4.45701074E-07  1.41127126E-06
  1.01835987E-01 -2.84869320E-06  7.29990782E-07  3.62364189E-06  2.42016766E-01
 -1.38198877E-07 -5.82174586E-07  5.10484411E-07  1.18900361E-07  1.21059334E-02
 -1.36792432E-02  5.30745703E-07 -2.45737477E-07  1.76573240E-06 -5.35575632E-06
 -4.49103010E-01 -1.65021576E-05  7.16421310E-06 -1.62943003E-05 -1.34652397E+00
  1.35613024E-08 -8.03265286E-07  9.60998279E-07  2.48884232E-08 -1.52986270E-03
 -1.78795574E-02  7.78292719E-02  1.53170969E+00 -7.78286607E-02 -1.53167519E+00
 -2.03759490E-06 -7.49616686E-06 -2.49520821E-07  2.50019817E-06  4.34121168E-02
 -4.75933428E-02  3.70470216E-01 -1.54791593E-01  1.85250873E-06 -6.38710630E-01
  8.57165510E-01 -3.05196470E-01  3.53092207E-06  3.85310373E-03  2.19779198E-02
  2.31337062E-02 -1.23009544E-02  9.33724439E-08  1.36355218E-07 -5.91458458E-02
  8.33102847E-02  2.79835914E-01  1.22419083E-01 -5.03563849E-08  7.54202091E-01
  1.28140117E+00  6.03459898E-01 -3.88881619E-06 -2.68645659E-02  9.27462449E-03
  2.98740487E-02 -8.88369341E-03  1.42484659E-07  6.03580156E-07  6.48182572E-02
  4.21382140E-01  6.48187492E-02  4.21398588E-01  1.63603297E-02 -5.04130658E-01
 -7.05359674E-02 -9.33560784E-01 -7.42133366E-03  1.56797778E-01 -2.91097357E-01
 -8.18600054E-02  1.92931077E-06 -7.77323206E-01  1.96834774E-01 -1.12475262E-02
  1.39442223E-06 -1.20873091E-01  8.87397356E-02  8.22728518E-02 -9.98676038E-03
 -5.80189285E-08 -7.56929462E-08  3.28218410E-02 -3.68549286E-01 -9.11762944E-01
 -2.48607460E-01  6.55824862E-06  4.61697232E-01  1.35350845E+00  5.11990126E-01
 -1.51434245E-05  5.60739785E-02 -4.72187892E-02  4.53724027E-03  2.81581769E-02
 -4.80009411E-07  1.07700594E-06  1.61805853E-01  1.06073697E-01  1.61803585E-01
  1.06071293E-01 -5.86593086E-02 -1.42062271E-02  1.02669163E-01 -2.24748425E-01
  1.61705514E-02 -1.90370845E-01 -2.85892227E-02 -3.24002422E-02  2.01994376E-05
  2.71575637E-01  3.17449276E-02 -1.80506536E-01  1.82515468E-05 -1.30112055E-02
 -5.84859565E-02 -5.82399240E-02 -5.81275878E-03 -6.12369838E-07 -1.38425539E-06
 -1.05278972E-02  1.14369876E-01  3.52490868E-01 -7.15396218E-01  7.79214693E-05
 -7.74240830E-02 -5.41688379E-01  1.60390752E+00 -1.74431233E-04  2.95112482E-03
 -7.78202832E-02  8.83731711E-02  4.07517557E-02 -2.84628588E-06 -4.96788180E-06
  1.81365768E-01  1.45847000E-01  1.81297459E-01  1.45790504E-01 -4.73090034E-01
 -4.21509544E-01  9.39440907E-02  2.07346843E-01  1.51023797E-06 -1.63747644E-05
 -4.34140791E-06 -6.95645733E-06 -2.26067863E-01  2.05317157E-05  3.97887524E-06
 -1.83650978E-05 -1.69623267E-01 -1.45693252E-06 -4.03834152E-06 -5.71033600E-06
 -9.97867795E-07  4.79911921E-03  1.96802147E-02 -7.68498225E-07  1.09875974E-05
  2.84251674E-05 -7.73410477E-05 -7.42089396E-01 -3.83042889E-06 -4.52426395E-05
  1.79507120E-04  1.72511098E+00  7.32348415E-07 -2.56263656E-06  4.25411657E-06
  4.63719635E-06  2.68226381E-02  1.06481463E-01 -3.98675191E-01 -3.93439543E-01
  3.98710490E-01  3.93464496E-01 -3.93598232E-05 -4.42793147E-05  1.13041559E-05
  1.71600522E-05  2.19772818E-02  1.02890372E-02  1.43499189E-01  3.07481563E-01
 -2.09887149E-06 -5.20100489E-03 -3.99637109E-01  1.28186464E-01 -2.12670858E-06
  4.63870668E-02  1.21339524E-01 -5.57261524E-02 -1.34991680E-01  1.81542086E-06
 -2.77910961E-06  4.38927653E-03  2.60129671E-02  7.31263828E-02  4.67099117E-01
 -4.84492017E-06 -2.44471282E-01 -1.19477587E-02 -9.52739291E-01  6.06672437E-06
 -1.05172689E-01  4.45641911E-03  6.79185182E-02  1.28016936E-01 -1.88003310E-06
  2.09378988E-06  3.46751039E-01 -5.15070326E-01  3.46755332E-01 -5.15089365E-01
 -2.96304783E-01  9.89621113E-01  8.76025288E-01 -6.00420346E-01  6.46617280E-08
 -3.20536563E-06  4.72650199E-06  2.94513279E-06  2.25830554E-01  6.63049332E-06
 -5.91338465E-06 -3.58617699E-06 -3.27923097E-01 -1.09912871E-06  5.38180452E-07
 -1.59991763E-06  1.27055474E-06  9.04507361E-02  2.20497514E-02 -1.48136472E-06
  9.84268915E-06 -5.83654987E-06 -1.12343677E-05 -8.30270139E-01 -1.73356973E-05
  3.08618923E-06  1.87699799E-05  1.43954419E+00  4.87057075E-07 -6.39099453E-06
  5.52230191E-06 -1.87331511E-06 -1.35575231E-01 -1.39572261E-01  6.71723591E-01
 -1.45572990E+00 -6.71739795E-01  1.45573730E+00 -1.61899709E-05  2.37842744E-05
  3.33898127E-06 -5.11896449E-06 -3.89116182E-03 -2.94347310E-01 -1.67301929E-01
 -5.76554765E-01  3.39799205E-06  4.49432898E-01  3.73620606E-01  5.82090018E-01
 -3.20845125E-06 -9.55130282E-02 -1.57201806E-01 -7.99557748E-02 -1.16939434E-02
 -1.01581176E-07  6.54799633E-07 -2.22832325E-02 -2.59414039E-02 -4.03683700E-02
  6.25547641E-01 -6.30749932E-06  3.79022557E-01  2.77254647E-02 -1.15371253E+00
  1.25917218E-05  7.64473739E-02 -1.12742271E-01  4.68591686E-02  8.79482856E-02
 -4.75359836E-07  3.89619946E-06  6.82312757E-02 -6.00893071E-01  6.82407757E-02
 -6.00910866E-01 -7.26521150E-01  1.24228208E+00 -2.62601197E-01  1.08644296E-01
  5.68822110E-04 -4.54494975E-01  2.61517405E-01  1.02227787E-01 -1.35037819E-05
  8.83682482E-01 -3.85729952E-01 -3.13341373E-02  1.48906252E-05 -1.65822483E-01
 -5.48744666E-02 -1.37062034E-01 -1.26106597E-02 -1.38134951E-06 -1.62472019E-06
 -9.52017536E-02  3.14525229E-01 -3.36073297E-01 -1.25634582E-01  1.40624943E-05
 -5.34903679E-01  5.14866590E-02  8.75151662E-02 -2.19292106E-05  8.59582045E-04
  9.02497922E-03 -7.36061686E-02 -1.76647321E-02  3.46641169E-06 -1.67653816E-06
 -7.34915990E-01  6.02358982E-01 -7.34900394E-01  6.02326149E-01 -4.88091577E-01
  1.98058918E-01  3.46726419E-01 -4.89853255E-01 -1.20448296E-03 -7.50323917E-01
 -3.79301160E-01 -1.44632512E-01  9.71103874E-06  1.24729678E+00  5.42576258E-01
  3.51013488E-01 -1.46429927E-05 -2.93084913E-01 -1.24123926E-01 -2.69643477E-01
 -1.76464558E-02  2.38172223E-07 -2.01758322E-06 -8.71817291E-03 -9.51875722E-01
  2.92512274E-01 -1.34126285E-01 -1.60067145E-06  2.38784564E+00 -3.76514521E-01
 -1.14517401E-01  1.28451377E-05 -8.65286322E-03  6.20954240E-02 -1.60791568E-01
 -8.35748698E-03 -4.10896512E-07 -5.99220931E-06 -7.02269635E-02 -4.65544843E-01
 -7.02346141E-02 -4.65527364E-01  4.51509441E-01 -1.03452355E+00  5.30172794E-01
 -8.21076684E-01 -1.17927108E-07 -3.71723704E-07  1.06993909E-06 -7.09083014E-06
 -9.07525366E-01 -4.97661811E-06  2.70826695E-06  8.57736792E-06  1.19171031E+00
 -1.93655420E-06 -6.90907606E-07  2.18352744E-06  1.75055727E-06  8.12851363E-02
 -3.06393166E-02 -1.81825480E-07 -3.77383547E-05  7.53560571E-06  1.85410939E-06
 -1.77371891E-02  8.59195620E-05 -1.08275998E-05 -9.01876280E-06 -5.47180162E-01
 -3.25589387E-06 -7.27396048E-06  4.81095086E-06 -1.22309775E-06 -1.86179445E-02
 -1.30776262E-01  2.28614830E-01 -2.40023322E-02 -2.28600608E-01  2.39505103E-02
  3.49119507E-06 -2.17045005E-05 -2.70148938E-06 -2.10596910E-06 -1.00597424E-02
  3.19205586E-02  5.03581595E-01  3.93515742E-03  1.41998489E-05 -2.84290194E-01
 -5.94212550E-01 -1.15830923E-01 -2.01085692E-05 -9.45247146E-02  1.09758170E-02
  1.18063002E-01  4.08786667E-02 -2.66534603E-06  2.20492908E-06 -6.58710972E-02
 -1.62531039E+00  1.28931883E-01  5.75718907E-02 -3.86063887E-06  3.69948953E+00
 -7.30454419E-01  8.73542346E-02  2.20341156E-05 -2.03839819E-01 -1.28195542E-01
  7.86441628E-03 -4.07722262E-02  1.48200148E-06  5.55565217E-06  1.59921949E-03
 -1.05139235E+00  1.60876461E-03 -1.05137801E+00 -2.21475001E-01 -9.12761301E-01
 -2.97398447E-01  3.67081193E-01  1.69332196E-02  4.42001282E-01  4.14000767E-01
 -7.14182368E-01  4.34552066E-06 -8.92053512E-01 -1.02326006E+00  1.31886800E+00
 -7.92983495E-06  1.33930279E-01  2.05236400E-01  3.71551227E-02 -3.74409143E-02
  2.10146904E-06 -3.14926909E-06  1.82705968E-02  3.71992285E-01  3.41327978E-02
 -2.62349746E-01  5.90418047E-06 -1.20068771E+00 -3.20782980E-01  2.61386379E-03
 -1.46880701E-05 -9.38804582E-02  1.96115013E-01 -9.49527089E-02  7.46434711E-02
 -1.97241027E-06 -8.25333968E-06  1.83367624E-02  2.30350318E-01  1.83309690E-02
  2.30338182E-01  3.30912552E-01 -2.22961202E-01  2.33490318E-01  1.04919837E+00
  8.15161976E-02  1.16418129E+00 -2.98194527E-01  4.75518042E-03  4.60469470E-07
 -3.51008497E+00  1.41435054E+00  4.30038439E-02 -6.79576379E-06  5.75231667E-01
  2.22163505E-01  1.82281140E-01 -3.08496856E-01 -1.17763906E-05 -6.56503714E-06
 -7.08040358E-02 -9.38885053E-01  1.46985178E-01 -9.67523904E-02 -4.55474998E-06
  3.82449462E+00  8.91868165E-01  2.30890996E-01  9.37875345E-06  9.87053601E-02
  9.56889790E-02 -2.37657177E-01  3.09383399E-01  1.69320471E-05 -2.13901519E-05
 -3.67193234E-01 -3.52124019E-01 -3.67200839E-01 -3.52105286E-01 -2.51200440E-01
 -5.64237800E-01  5.80532149E-02 -4.41553499E-02 -2.36023115E-06 -3.24327017E-05
  8.21532563E-06 -1.62840643E-06 -9.12356773E-03  1.01714493E-04 -4.47416548E-05
  2.32111124E-06 -1.35039582E-01 -1.70817951E-05 -8.47516723E-06 -1.60834249E-06
  5.51912611E-06 -5.06293882E-01 -1.61142709E-01  2.68848512E-06  3.38359392E-05
 -3.35826983E-06  6.52200170E-07 -1.80106676E-01 -1.30838901E-04 -2.66734416E-05
 -6.21261360E-06  1.30385427E-01 -4.37681695E-06 -1.81890182E-05  2.44451431E-05
 -3.10620236E-06  6.35531976E-01 -3.83649802E-01  1.27061791E-01 -1.53036029E-01
 -1.27032749E-01  1.53060775E-01  9.87384122E-06  2.06350171E-05  1.37939644E-06
  4.47280567E-06 -5.89010491E-02 -8.00882570E-01  1.32361241E-01  6.74155102E-02
 -3.24314720E-07  2.35188926E+00 -6.29274425E-01 -5.38223891E-01  4.89475609E-06
 -2.40453233E-01 -5.78127542E-01  1.77641287E-01 -4.10628774E-01  6.15506945E-06
  3.91235137E-06  3.27560917E-02  3.43040866E-01 -1.25578280E-01 -8.44377283E-02
  2.67446352E-07 -1.76482158E+00 -4.83157257E-01 -8.79484184E-02  4.32268974E-06
 -1.57639796E-01  2.90670022E-01 -1.25462106E-01  4.80252520E-01 -5.68097685E-06
 -1.65716929E-05  7.70455127E-02  1.71092322E-01  7.70458206E-02  1.71097466E-01
  2.54000294E-01  2.08336135E-01 -3.62281372E-01 -1.69456905E-01 -2.99660712E-07
 -3.69664442E-06  6.66020349E-08 -2.05139433E-06 -5.42656638E-02  1.24819176E-05