methanol Gaussian OPT Calculation on node37.bme.utexas.edu              
FOpt      RMP2-FC                                                     6-31G(d)            
Number of atoms                            I                6
Info1-9                                    I   N=           9
          17          17           0           0           0         100
           2           2           1
Charge                                     I                0
Multiplicity                               I                1
Number of electrons                        I               18
Number of alpha electrons                  I                9
Number of beta electrons                   I                9
Number of basis functions                  I               38
Number of independent functions            I               38
Number of point charges in /Mol/           I                0
Number of translation vectors              I                0
Atomic numbers                             I   N=           6
           8           6           1           1           1           1
Nuclear charges                            R   N=           6
  8.00000000E+00  6.00000000E+00  1.00000000E+00  1.00000000E+00  1.00000000E+00
  1.00000000E+00
Current cartesian coordinates              R   N=          18
  1.41640817E+00  2.31660284E-01 -3.87448812E-06 -1.25562357E+00 -3.71207559E-02
  1.29076531E-06 -1.95445856E+00 -1.02571537E+00  1.68444448E+00 -1.95445703E+00
 -1.02578449E+00 -1.68440130E+00 -2.03411241E+00  1.87035471E+00 -3.82304134E-05
  2.14550400E+00 -1.44941259E+00  1.83034454E-05
Force Field                                I                0
Int Atom Types                             I   N=           6
           0           0           0           0           0           0
MM charges                                 R   N=           6
  0.00000000E+00  0.00000000E+00  0.00000000E+00  0.00000000E+00  0.00000000E+00
  0.00000000E+00
Integer atomic weights                     I   N=           6
          16          12           1           1           1           1
Real atomic weights                        R   N=           6
  1.59949146E+01  1.20000000E+01  1.00782504E+00  1.00782504E+00  1.00782504E+00
  1.00782504E+00
Atom fragment info                         I   N=           6
           0           0           0           0           0           0
Atom residue num                           I   N=           6
           0           0           0           0           0           0
Nuclear spins                              I   N=           6
           0           0           1           1           1           1
Nuclear ZEff                               R   N=           6
 -5.60000000E+00 -3.60000000E+00 -1.00000000E+00 -1.00000000E+00 -1.00000000E+00
 -1.00000000E+00
Nuclear QMom                               R   N=           6
  0.00000000E+00  0.00000000E+00  0.00000000E+00  0.00000000E+00  0.00000000E+00
  0.00000000E+00
Nuclear GFac                               R   N=           6
  0.00000000E+00  0.00000000E+00  2.79284600E+00  2.79284600E+00  2.79284600E+00
  2.79284600E+00
MicOpt                                     I   N=           6
          -1          -1          -1          -1          -1          -1
Number of contracted shells                I               16
Number of primitive shells                 I               38
Pure/Cartesian d shells                    I                1
Pure/Cartesian f shells                    I                0
Highest angular momentum                   I                2
Largest degree of contraction              I                6
Shell types                                I   N=          16
           0          -1          -1           2           0          -1
          -1           2           0           0           0           0
           0           0           0           0
Number of primitives per shell             I   N=          16
           6           3           1           1           6           3
           1           1           3           1           3           1
           3           1           3           1
Shell to atom map                          I   N=          16
           1           1           1           1           2           2
           2           2           3           3           4           4
           5           5           6           6
Primitive exponents                        R   N=          38
  5.48467166E+03  8.25234946E+02  1.88046958E+02  5.29645000E+01  1.68975704E+01
  5.79963534E+00  1.55396162E+01  3.59993359E+00  1.01376175E+00  2.70005823E-01
  8.00000000E-01  3.04752488E+03  4.57369518E+02  1.03948685E+02  2.92101553E+01
  9.28666296E+00  3.16392696E+00  7.86827235E+00  1.88128854E+00  5.44249258E-01
  1.68714478E-01  8.00000000E-01  1.87311370E+01  2.82539436E+00  6.40121692E-01
  1.61277759E-01  1.87311370E+01  2.82539436E+00  6.40121692E-01  1.61277759E-01
  1.87311370E+01  2.82539436E+00  6.40121692E-01  1.61277759E-01  1.87311370E+01
  2.82539436E+00  6.40121692E-01  1.61277759E-01
Contraction coefficients                   R   N=          38
  1.83107443E-03  1.39501722E-02  6.84450781E-02  2.32714336E-01  4.70192898E-01
  3.58520853E-01 -1.10777550E-01 -1.48026263E-01  1.13076702E+00  1.00000000E+00
  1.00000000E+00  1.83473713E-03  1.40373228E-02  6.88426223E-02  2.32184443E-01
  4.67941348E-01  3.62311985E-01 -1.19332420E-01 -1.60854152E-01  1.14345644E+00
  1.00000000E+00  1.00000000E+00  3.34946043E-02  2.34726953E-01  8.13757326E-01
  1.00000000E+00  3.34946043E-02  2.34726953E-01  8.13757326E-01  1.00000000E+00
  3.34946043E-02  2.34726953E-01  8.13757326E-01  1.00000000E+00  3.34946043E-02
  2.34726953E-01  8.13757326E-01  1.00000000E+00
P(S=P) Contraction coefficients            R   N=          38
  0.00000000E+00  0.00000000E+00  0.00000000E+00  0.00000000E+00  0.00000000E+00
  0.00000000E+00  7.08742682E-02  3.39752839E-01  7.27158577E-01  1.00000000E+00
  0.00000000E+00  0.00000000E+00  0.00000000E+00  0.00000000E+00  0.00000000E+00
  0.00000000E+00  0.00000000E+00  6.89990666E-02  3.16423961E-01  7.44308291E-01
  1.00000000E+00  0.00000000E+00  0.00000000E+00  0.00000000E+00  0.00000000E+00
  0.00000000E+00  0.00000000E+00  0.00000000E+00  0.00000000E+00  0.00000000E+00
  0.00000000E+00  0.00000000E+00  0.00000000E+00  0.00000000E+00  0.00000000E+00
  0.00000000E+00  0.00000000E+00  0.00000000E+00
Coordinates of each shell                  R   N=          48
  1.41640817E+00  2.31660284E-01 -3.87448812E-06  1.41640817E+00  2.31660284E-01
 -3.87448812E-06  1.41640817E+00  2.31660284E-01 -3.87448812E-06  1.41640817E+00
  2.31660284E-01 -3.87448812E-06 -1.25562357E+00 -3.71207559E-02  1.29076531E-06
 -1.25562357E+00 -3.71207559E-02  1.29076531E-06 -1.25562357E+00 -3.71207559E-02
  1.29076531E-06 -1.25562357E+00 -3.71207559E-02  1.29076531E-06 -1.95445856E+00
 -1.02571537E+00  1.68444448E+00 -1.95445856E+00 -1.02571537E+00  1.68444448E+00
 -1.95445703E+00 -1.02578449E+00 -1.68440130E+00 -1.95445703E+00 -1.02578449E+00
 -1.68440130E+00 -2.03411241E+00  1.87035471E+00 -3.82304134E-05 -2.03411241E+00
  1.87035471E+00 -3.82304134E-05  2.14550400E+00 -1.44941259E+00  1.83034454E-05
  2.14550400E+00 -1.44941259E+00  1.83034454E-05
Constraint Structure                       R   N=          18
  1.41002262E+00  2.30833077E-01 -2.30966527E-06 -1.24718189E+00 -3.72025728E-02
  0.00000000E+00 -1.94753186E+00 -1.02720899E+00  1.68762517E+00 -1.94752997E+00
 -1.02728647E+00 -1.68758633E+00 -2.03860210E+00  1.86923477E+00 -3.44350095E-05
  2.13657431E+00 -1.43818849E+00  1.65875961E-05
Num ILSW                                   I              100
ILSW                                       I   N=         100
           0           1           0           0           2           0
           0           0           0           0           0 26843545600
           0           0           0           0           0           0
           0           0           0           0           1           0
           1           0           0           0           0           0
           0           0      100000           0          -1           0
           0           0           0           0           0           0
           0           0           0           1           0           0
           0           0           1           0           0           0
           0           0           4          40           0           0
           0           0           0           0           0           0
           0           0           0           0           0           0
           0           0           0           0           0           0
           0           0           0           0           0           0
           0           0           0           0           0           0
           0           0           0           0           0           0
           0           0           0           0
Num RLSW                                   I               40
RLSW                                       R   N=          40
  1.00000000E+00  1.00000000E+00  1.00000000E+00  1.00000000E+00  1.00000000E+00
  0.00000000E+00  0.00000000E+00  1.00000000E+00  0.00000000E+00  0.00000000E+00
  0.00000000E+00  0.00000000E+00  1.00000000E+00  0.00000000E+00  0.00000000E+00
  0.00000000E+00  0.00000000E+00  1.00000000E+00  0.00000000E+00  0.00000000E+00
  0.00000000E+00  0.00000000E+00  1.00000000E+00  0.00000000E+00  0.00000000E+00
  0.00000000E+00  0.00000000E+00  1.00000000E+00  0.00000000E+00  0.00000000E+00
  0.00000000E+00  0.00000000E+00  0.00000000E+00  0.00000000E+00  0.00000000E+00
  0.00000000E+00  0.00000000E+00  0.00000000E+00  1.00000000E+00  1.00000000E+00
MxBond                                     I                4
NBond                                      I   N=           6
           2           4           1           1           1           1
IBond                                      I   N=          24
           2           6           0           0           1           3
           4           5           2           0           0           0
           2           0           0           0           2           0
           0           0           1           0           0           0
RBond                                      R   N=          24
  1.00000000E+00  1.00000000E+00  0.00000000E+00  0.00000000E+00  1.00000000E+00
  1.00000000E+00  1.00000000E+00  1.00000000E+00  1.00000000E+00  0.00000000E+00
  0.00000000E+00  0.00000000E+00  1.00000000E+00  0.00000000E+00  0.00000000E+00
  0.00000000E+00  1.00000000E+00  0.00000000E+00  0.00000000E+00  0.00000000E+00
  1.00000000E+00  0.00000000E+00  0.00000000E+00  0.00000000E+00
Virial Ratio                               R      2.002652599190104E+00
SCF Energy                                 R     -1.150342251088536E+02
MP2 Energy                                 R     -1.153461235322034E+02
Total Energy                               R     -1.153461235322034E+02
Post-SCF wavefunction norm                 R      1.044385768972915E+00
RMS Force                                  R      8.337930337948802E-04
RMS Density                                R      5.727838047165186E-09
External E-field                           R   N=          35
  0.00000000E+00  0.00000000E+00  0.00000000E+00  0.00000000E+00  0.00000000E+00
  0.00000000E+00  0.00000000E+00  0.00000000E+00  0.00000000E+00  0.00000000E+00
  0.00000000E+00  0.00000000E+00  0.00000000E+00  0.00000000E+00  0.00000000E+00
  0.00000000E+00  0.00000000E+00  0.00000000E+00  0.00000000E+00  0.00000000E+00
  0.00000000E+00  0.00000000E+00  0.00000000E+00  0.00000000E+00  0.00000000E+00
  0.00000000E+00  0.00000000E+00  0.00000000E+00  0.00000000E+00  0.00000000E+00
  0.00000000E+00  0.00000000E+00  0.00000000E+00  0.00000000E+00  0.00000000E+00
IOpCl                                      I                0
IROHF                                      I                0
Alpha Orbital Energies                     R   N=          38
 -2.05600070E+01 -1.12722030E+01 -1.34901870E+00 -9.21887906E-01 -6.84442597E-01
 -6.15406996E-01 -5.87402610E-01 -4.98922698E-01 -4.45010665E-01  2.22886568E-01
  2.76160453E-01  3.19428975E-01  3.27248509E-01  3.80710794E-01  7.62489351E-01
  7.77390829E-01  7.88202487E-01  1.04725271E+00  1.12132234E+00  1.14586347E+00
  1.17311608E+00  1.20563775E+00  1.25525572E+00  1.26601919E+00  1.40566298E+00
  1.72323603E+00  1.77686723E+00  1.86030539E+00  2.03706803E+00  2.36775059E+00
  2.44258890E+00  2.45345854E+00  2.68232480E+00  2.73740810E+00  2.78445075E+00
  3.15283281E+00  4.11633294E+00  4.63658741E+00
Alpha MO coefficients                      R   N=        1444
  9.94660435E-01  2.11462573E-02 -6.40086805E-04 -1.15371259E-03  1.62518911E-08
  3.93325805E-03  2.98852800E-04  5.29261047E-04 -7.44856667E-09 -4.19375618E-03
 -4.06332612E-03 -3.83793762E-03  3.84754916E-05 -2.03694002E-10  3.54824237E-09
 -1.97669143E-05  2.59182773E-04  3.61362286E-04  5.53944150E-05 -9.26760249E-10
  6.75132531E-05 -1.30412167E-04 -2.66773645E-04  3.63979279E-09  4.73313393E-05
 -7.50184263E-05 -4.19024345E-05 -4.95442972E-06  1.79543953E-11  9.76067104E-10
 -4.35527020E-05 -1.15334518E-04 -4.35533025E-05 -1.15335532E-04  1.37676788E-05
  1.50581953E-05  3.87434916E-04 -2.20925058E-04 -1.46749403E-04  1.44020785E-04
 -1.08095594E-04 -5.32550849E-05  7.09652160E-10  1.22223274E-03  1.37151314E-04
  1.57017591E-04 -1.80892689E-09 -8.03016176E-04 -2.96190228E-06  5.69163323E-05
 -5.44233473E-05  1.16653530E-09  9.64590166E-10  9.95767911E-01  2.73781672E-02
  7.30409338E-04  1.31092456E-05 -1.08902203E-09 -1.19333091E-02  5.00897361E-04
 -2.56243125E-05  1.42795827E-09 -1.59849898E-03 -1.77265884E-03 -1.80632987E-03
  2.09238176E-05 -4.91280489E-10 -4.48043577E-10  6.11455854E-05  2.42780044E-03
  6.11454006E-05  2.42780143E-03  7.79602016E-05  2.46263379E-03  2.31058491E-05
  3.19345418E-04 -2.03134788E-01  4.58707920E-01 -4.61101113E-02 -7.09024737E-02
  9.73276231E-07  4.30808758E-01 -2.57482508E-02 -4.19616321E-02  5.67111529E-07
  1.68993792E-02  2.11242671E-02 -1.09082307E-03 -4.81481439E-03  5.32421452E-08
 -3.41860231E-07 -6.92630543E-02  1.26712186E-01  9.44590124E-02  5.69525249E-03
 -1.58036694E-07  5.06314310E-02  1.55078606E-03 -4.63293349E-03  1.06064001E-07
  2.45048413E-02 -4.94873675E-03 -5.68370445E-03  1.75317342E-03 -4.48165372E-08
 -9.05993331E-09  2.36352918E-02  2.02698305E-03  2.36353363E-02  2.02704062E-03
  2.47902539E-02  6.33138581E-03  1.20444411E-01 -2.32864972E-03  5.96211681E-02
 -1.33931434E-01 -1.81060171E-01  6.26623192E-02 -7.77854562E-07 -1.86575317E-01
 -9.29229935E-02  3.61325333E-02 -4.58881204E-07  1.60534750E-02 -1.52630080E-02
 -4.39279104E-04  1.29235170E-02 -1.82635811E-07  2.23912034E-07 -1.77341366E-01
  3.43849884E-01 -7.21553043E-02  9.37611052E-03 -2.45854725E-07  3.32769226E-01
 -3.85549594E-02 -8.69446538E-03  1.18624898E-07 -4.00398335E-03  1.35627500E-02
  1.14024574E-02  7.90652035E-04 -1.04344742E-08 -3.53221263E-08  1.35453796E-01
  3.70200510E-02  1.35453881E-01  3.70200635E-02  1.42507593E-01  4.37391256E-02
 -1.01064584E-01 -2.52792347E-02 -3.96823659E-02  9.08734506E-02 -2.21861018E-01
  3.65324387E-01 -4.71039726E-06  1.57848396E-01 -1.32277788E-01  2.24847646E-01
 -2.87699373E-06  1.71220622E-02 -3.70895730E-02  5.13096967E-03  6.22187806E-03
 -9.92280638E-08  6.45063046E-07  2.03799418E-02 -3.42444612E-02  1.72383620E-01
  2.21617002E-01 -2.94597768E-06 -8.09914292E-02  5.08540835E-02  1.02562058E-01
 -1.49818104E-06  1.93335362E-02 -1.62079976E-04 -2.11924339E-02  4.90431770E-03
 -6.93517668E-08 -6.10765646E-07 -1.08683882E-01 -6.43442614E-02 -1.08685320E-01
 -6.43453810E-02  5.47143014E-02  3.17753957E-02 -2.13399463E-01 -1.03942373E-01
 -3.64556748E-08  8.82589950E-08  7.76049802E-07  4.65456500E-06  3.40080662E-01
  1.59136897E-07  5.26536317E-07  3.15241370E-06  2.28724733E-01 -3.60682244E-08
 -3.56544047E-07  3.90470697E-07 -2.26076700E-07 -1.31226341E-02 -1.54040913E-02
 -6.21277833E-08  1.00564932E-07 -3.98955443E-07  5.44138474E-06  3.78545002E-01
  3.39995874E-07 -1.72926774E-07  2.36681848E-06  1.74574947E-01 -2.15803177E-08
 -9.34950508E-07  9.63968732E-07 -8.68227688E-08 -6.28325432E-03 -2.36311248E-02
  1.83714355E-01  1.42332792E-01 -1.83712877E-01 -1.42331865E-01 -1.15680649E-06
 -7.59857331E-07  1.31150792E-07  6.21104758E-08 -2.62168543E-02  6.30236928E-02
  3.90805129E-01  1.42058521E-01 -2.83986713E-06  9.94265613E-02  2.70720793E-01
  9.72262685E-02 -1.93632248E-06 -1.40012519E-02  2.21271139E-03  7.25620415E-03
 -2.83627577E-02  4.26261582E-07  1.15759656E-07  1.42837260E-03 -4.71718572E-03
 -2.98630590E-01  2.32478759E-01 -3.56542100E-06  4.33184001E-02 -1.15456085E-01
  1.40396915E-01 -2.23793735E-06 -2.85209488E-02  2.83651599E-02  1.97153728E-03
 -1.31629574E-02  2.14462283E-07 -7.34887542E-07 -7.27102259E-03 -2.97985315E-03
 -7.27236323E-03 -2.98094273E-03  2.06185673E-01  1.42447029E-01  4.55087924E-02
  4.32546378E-02 -4.93706155E-02  1.08924252E-01  1.62073517E-01  3.77635624E-01
 -4.87560518E-06  2.32338547E-01  1.31326779E-01  2.92915341E-01 -3.79441813E-06
 -5.43532675E-03 -2.89473643E-02  8.90042693E-03 -4.10441130E-03  5.72940232E-08
  6.04936627E-07  8.51983590E-03 -2.16351531E-02 -8.71163553E-02 -3.19304310E-01
  4.28592390E-06  2.11993589E-03 -1.87484666E-02 -1.48284170E-01  1.99023685E-06
 -1.13800629E-02 -1.29826291E-02  2.40344749E-02  3.01794600E-02 -4.04804571E-07
  1.06385024E-06  1.23202484E-01  1.24655668E-01  1.23205273E-01  1.24658326E-01
 -2.00184070E-01 -1.81983150E-01 -1.38722847E-01 -1.00344258E-01  3.79876304E-08
 -7.72238202E-08  4.47102685E-07  7.27463396E-06  5.46335635E-01 -2.46404815E-07
  3.41998187E-07  6.06277963E-06  4.54312491E-01  5.22211015E-10 -4.68068637E-07
  4.95216435E-07 -1.20262834E-07 -6.87615176E-03 -2.16120204E-02 -2.15097264E-09
 -1.76161825E-09 -9.98983343E-08 -2.97038194E-06 -2.39467796E-01  3.42890231E-08
 -5.86092356E-08 -1.22121105E-06 -1.01792366E-01 -5.06407690E-09  8.90930019E-07
 -9.01790070E-07  4.43321931E-07  3.56925820E-02  2.21447185E-02 -1.66836495E-01
 -1.81424321E-01  1.66835055E-01  1.81422654E-01  1.52243117E-06  1.60253801E-06
  1.02977071E-07  1.63680670E-07  8.01079516E-02 -5.85367396E-02 -3.29166266E-02
  1.92120243E-01 -2.75601707E-06 -1.10232072E+00 -7.01702688E-02  4.66273153E-01
 -6.81769609E-06  4.01171006E-02  2.71808437E-02  5.11336223E-02 -1.01726541E-03
  1.87619464E-08  4.02884763E-07  5.24249808E-02 -2.89717623E-02  1.54587079E-01
  4.74772253E-02 -1.30942685E-08 -1.01183321E+00  5.92453560E-01  9.08398023E-02
  1.67536541E-06 -2.13254387E-03  1.54317096E-02  9.16451023E-03  2.67318371E-03
 -5.89055774E-08 -9.73742285E-08 -1.40116205E-03  6.20670769E-01 -1.40094767E-03
  6.20677790E-01  4.54854479E-03  4.41279594E-01  6.33126140E-02  1.25206448E+00
  5.73835012E-02 -1.83240334E-02  4.41469986E-02  1.30848399E-01 -2.12640921E-06
 -8.79066275E-01  1.60903620E-01  3.06209354E-01 -5.01840796E-06  4.09191091E-02
  2.52316600E-02  3.91121296E-02 -4.14667710E-03  4.01609253E-08  2.43521080E-07
 -1.39817007E-01  1.19071404E-01 -6.02822034E-02  5.05370187E-03  8.48567828E-07
  2.43502866E+00 -1.95501016E-01  2.62572600E-02  3.01436490E-06 -1.17876118E-02
 -9.22939417E-04 -7.04500875E-03  2.58600013E-03 -5.40144418E-08 -7.90179759E-08
 -5.10914995E-04 -1.07676318E+00 -5.10572892E-04 -1.07675577E+00  4.88637411E-04
 -1.12876838E+00  4.81574564E-02  7.58174521E-01  8.05815785E-03 -8.42708721E-03
  7.89900069E-02  4.54139905E-02 -6.64408844E-07 -1.26942175E-01  1.54631074E-01
  1.83146035E-01 -2.27559076E-06 -3.44766778E-03  3.20015670E-03  5.24504509E-04
  9.15821840E-03 -9.42745555E-08 -2.39277437E-07 -1.02529347E-02  1.23940100E-03
  6.14271747E-02 -3.34889893E-01  4.08189636E-06  1.05759257E-01  3.65690932E-01
 -1.44684448E+00  1.82103000E-05 -6.49122050E-03  1.49915014E-02 -8.55850183E-03
 -5.05780976E-03  9.44470624E-08 -6.34293830E-07 -2.48760777E-02 -8.72901118E-01
 -2.48765616E-02 -8.72927027E-01  6.35699740E-02  1.91232744E+00 -2.28399070E-02
 -1.53734413E-01  4.29485748E-07 -2.39011332E-07  3.17090783E-07  1.70017296E-06
  8.26615126E-02 -7.02408781E-06  1.98898560E-06  4.89877031E-06  2.53760995E-01
  1.85643902E-07 -2.29239969E-07  6.69882168E-07  4.54698445E-08  7.60289324E-03
 -1.18642093E-02 -3.39598106E-07  1.98325732E-07  3.47974686E-07 -4.57427516E-06
 -3.70638257E-01  6.91491551E-06  3.00385361E-06 -1.78406019E-05 -1.48730756E+00
 -8.22714122E-09 -4.65275287E-07  5.18629450E-07  6.09532656E-08  2.13185340E-03
 -1.10729489E-02  3.01329938E-02  1.64999886E+00 -3.01323584E-02 -1.64998704E+00
 -2.73916647E-07 -1.78632996E-05 -2.01794383E-08  4.81103133E-06  5.14860010E-02
 -3.96114522E-02  3.09073322E-01 -1.03644877E-01  1.06200201E-06 -8.57756673E-01
  9.76460254E-01 -2.64218090E-01  2.54403134E-06 -7.60751030E-03  3.05589492E-02
  2.86038508E-02 -1.23599537E-02  1.54394415E-07  4.84216564E-08 -6.15453331E-02
  4.43147481E-02  1.96500041E-01  5.24752037E-02  6.73081201E-08  9.26064706E-01
  1.55055018E+00  4.88468632E-01 -5.11491658E-06 -1.21998248E-02  1.12828715E-02
  2.24141175E-02 -7.20884152E-03  1.11064755E-07  2.78031778E-07  5.97669170E-02
  3.23716676E-01  5.97671485E-02  3.23727185E-01  4.40558726E-02 -3.33658411E-01
 -2.63001639E-02 -9.14942942E-01  5.46777127E-03 -5.65786299E-02 -1.70079939E-01
 -5.85811563E-02  1.27670827E-06 -1.72097983E-01  6.58293878E-02 -1.51522321E-01
  2.52941283E-06 -7.96505759E-02  1.07176867E-03 -2.42595076E-03 -9.60793658E-03
  1.09914757E-07  2.32852723E-07  1.03216597E-02 -1.18488150E-01 -2.13016896E-01
 -7.03841750E-01  1.12955334E-05  1.63009828E-01  2.19071094E-01  1.55142200E+00
 -2.49967907E-05  3.31092247E-02 -9.55326341E-02  7.48943321E-02  5.36412099E-02
 -9.31191739E-07  4.55203477E-06  2.60908789E-01  1.20944002E-01  2.60912565E-01
  1.20945861E-01 -4.72572947E-01 -2.73633532E-01  1.30409420E-01  9.41505842E-02
  1.61202201E-08 -2.23184152E-07  3.36652928E-07 -3.09384300E-06 -1.93919863E-01
  1.47820189E-06 -7.37282041E-07 -3.00749924E-06 -1.95652424E-01  2.17025667E-07
  5.99092213E-07 -8.23553527E-07 -6.35798000E-09  4.77863453E-03  1.83865041E-02
 -7.94654653E-09  5.63367791E-07  1.10202581E-06 -1.14749130E-05 -7.18675493E-01
 -1.80012463E-06 -1.89765352E-06  2.71397312E-05  1.67140244E+00 -1.66486051E-07
  4.29186873E-06 -4.21268846E-06  4.44642062E-07  3.02528544E-02  1.08255020E-01
 -4.33755049E-01 -3.14132472E-01  4.33752914E-01  3.14131484E-01  1.92171036E-06
  1.71663960E-06  5.81971232E-07 -2.35299721E-07 -1.95282665E-02  2.59732192E-01
 -2.29827101E-01 -3.12018634E-02  2.71185975E-07 -7.36034467E-01  6.24337201E-03
  1.10560634E-01 -1.92389486E-06 -1.00525528E-01  1.19558402E-01  1.10815897E-01
 -1.16795827E-02  3.72051938E-07 -2.03147488E-07  3.81838820E-02 -4.12895487E-01
 -9.72315534E-01  1.82003479E-01 -3.76273274E-06  4.02060017E-01  1.23690095E+00
 -4.60639023E-01  9.09720730E-06  4.73238273E-02 -7.58860949E-03 -5.51774309E-02
  6.67012731E-03 -1.00852067E-07 -1.18065030E-06  4.16485674E-02 -2.54386896E-02
  4.16483381E-02 -2.54388190E-02  2.14334957E-01  1.79200966E-01  8.14798489E-02
 -2.40677241E-01 -2.66619215E-02  2.00613088E-02 -1.46711573E-01 -2.38324004E-01
  2.45206098E-06 -9.80654034E-03  4.11895409E-01 -2.54829100E-01  3.90625542E-06
 -5.42513553E-02 -1.10762765E-01  7.11424492E-02  1.44691267E-01 -2.16587079E-06
  2.94438681E-06 -2.00648958E-03 -8.01789452E-02 -1.12660531E-01 -5.33456291E-01
  8.99289000E-06  3.30129329E-01  6.92546308E-02  1.00746425E+00 -1.53915505E-05
  1.10293290E-01 -8.23237075E-03 -7.21522886E-02 -1.38903695E-01  2.24966525E-06
 -1.79774372E-06 -3.27422566E-01  4.87116929E-01 -3.27423943E-01  4.87124139E-01
  3.17868726E-01 -9.87091733E-01 -8.80224678E-01  4.96326814E-01  6.68532841E-08
  4.12723486E-06  8.88099813E-07  3.78920160E-06  1.85636179E-01 -7.22487838E-06
 -1.26252847E-06 -5.70126858E-06 -2.71048896E-01  1.72123733E-06  1.81608274E-06
  6.12767102E-07  2.04463778E-06  1.06150597E-01  2.04035847E-02  4.03669638E-07
  1.82966670E-06  8.01937471E-07 -1.66126586E-05 -8.89560401E-01 -6.35940252E-06
  5.77054540E-07  2.65403219E-05  1.37580418E+00 -2.12695382E-07 -5.36216330E-06
  6.11151956E-06 -2.57453656E-06 -1.42460193E-01 -1.49460161E-01  6.59546132E-01
 -1.35149210E+00 -6.59539120E-01  1.35148943E+00  2.81753862E-07  3.81202141E-06
 -1.29517628E-06  2.71162733E-06 -1.58647560E-02 -6.39894140E-01 -2.14107531E-01
 -5.19185027E-01  7.38135008E-06  1.12491955E+00  4.58250170E-01  5.00629729E-01
 -7.68861642E-06 -2.52931021E-01 -2.39993126E-01 -1.94861102E-01 -9.00293331E-03
  8.00737016E-07  5.66161555E-07 -5.10556585E-02 -3.46570541E-01 -6.28189053E-02
  5.20296661E-01 -1.24124712E-05  1.21012280E+00 -8.37348466E-02 -9.68097003E-01
  2.10532700E-05  7.62654187E-02 -1.13539444E-01 -2.03474576E-02  6.01342225E-02
 -1.64415346E-06  1.45760672E-06 -1.54643747E-01 -5.55993238E-01 -1.54647612E-01
 -5.55987166E-01 -6.47631424E-01  7.07596446E-01 -9.93055933E-02 -2.89821801E-01
 -1.32798092E-03 -6.41934697E-01  1.21886602E-01  2.20286325E-01 -3.08081088E-06
  1.15076421E+00 -2.41768056E-01 -2.74833264E-02  5.80023484E-07 -2.65490000E-01
 -6.02917513E-02 -2.25411145E-01 -9.68320349E-03  2.39903788E-07 -2.52368437E-06
 -7.81095312E-02 -4.32459741E-01 -5.57700244E-02 -4.26112606E-01  5.06052149E-06
  1.16485217E+00 -2.93881702E-01  4.24334454E-01 -5.38002572E-06 -6.94023769E-02
  7.04290992E-02 -1.61024723E-01 -5.47024328E-02  9.02309589E-07 -6.41331358E-06
 -5.99081704E-01  2.49002597E-01 -5.99088558E-01  2.49013190E-01  1.13016840E-01
 -9.29493601E-01  6.21992146E-01 -7.30021920E-01 -6.11073264E-03 -2.13579405E-01
 -2.54466156E-01 -9.16995324E-02  2.66641793E-07  2.14779546E-01  3.93752567E-01
  1.44770158E-01 -8.46046950E-07 -1.25959989E-01 -4.50550080E-02 -6.94101520E-02
  7.99691591E-03 -1.18455180E-07 -4.82219435E-07  3.11709566E-02 -1.43367270E+00
  4.77326192E-01 -5.75144968E-02  1.64894079E-06  3.20570377E+00 -5.29186513E-01
  4.18368891E-03 -1.90701587E-06 -9.69350634E-02 -1.38759371E-02 -8.53104615E-02
 -1.30198604E-02  2.91703781E-07 -1.90042716E-06  3.95596087E-01 -9.68171331E-01
  3.95595578E-01 -9.68172093E-01  5.86610648E-01 -1.20283209E+00  8.79359513E-02
 -1.82319593E-01  1.54039820E-08  2.28839886E-06  4.10507855E-06 -9.45889368E-06
 -9.27114781E-01 -6.24462496E-06 -3.41727744E-06  1.07789109E-05  1.19286691E+00
  4.70447302E-07 -4.91692625E-07  2.63959330E-06  1.30096237E-06  7.90767564E-02
 -2.91916519E-02 -6.54717772E-07 -8.10744038E-06 -2.94618720E-07  1.47858779E-06
 -8.28689016E-03  2.00448768E-05 -2.48859830E-06 -6.54727329E-06 -5.43496974E-01
 -1.51544875E-06 -6.45775713E-06  5.66235574E-06 -4.27195507E-07 -1.66594034E-02
 -1.21385465E-01  1.84835590E-01  2.77515741E-02 -1.84835491E-01 -2.77622228E-02
 -6.02488687E-06 -1.88215367E-06 -3.38284475E-06  2.43880988E-06 -1.09883724E-03
  2.44824677E-01  5.83190357E-01  1.44570160E-01  5.62625410E-06 -6.97159772E-01
 -5.60585957E-01 -3.65846121E-01 -5.02069706E-06  2.21559109E-02  4.58087020E-02
  2.00082208E-01  3.52876685E-02 -1.06003016E-06  2.86861024E-06 -8.12579236E-02
 -1.17677310E+00  1.44174173E-02  1.60371089E-01 -2.76705038E-06  2.86378226E+00
 -4.39967024E-01  7.32497375E-02  4.21545528E-06 -1.99268178E-01 -1.68772310E-01
  5.49821494E-02 -3.71823777E-02  6.60929270E-07  6.77336476E-06 -8.16496583E-02
 -7.85566265E-01 -8.16443562E-02 -7.85567274E-01 -4.85923533E-01 -4.16135626E-01
 -4.18518466E-01  3.90326015E-01  1.74501892E-02  4.51332810E-01  4.65807460E-01
 -7.80813281E-01  8.70425462E-06 -9.63887860E-01 -9.75678636E-01  1.29669498E+00
 -1.40474036E-05  1.34100946E-01  2.04908594E-01  6.30266341E-02 -2.29710465E-02
  7.27469073E-07 -2.65252888E-06  4.78938385E-03  1.73038973E-01  5.98304594E-02
 -2.37056619E-01  4.88790274E-06 -6.28366267E-01 -3.57835740E-01 -8.74651186E-03
 -5.68433354E-06 -1.15703130E-01  1.72616475E-01 -8.86146836E-02  6.23479447E-02
 -9.37870446E-07 -6.74093783E-06 -7.34420966E-03  8.78876417E-02 -7.34607671E-03
  8.78824302E-02  2.41356070E-01 -2.72444983E-01  1.36090323E-01  1.03512026E+00
  9.15960052E-02  1.21674538E+00 -3.44471675E-01 -6.91763848E-04  3.09326147E-07
 -3.69137266E+00  1.50111497E+00  1.01885521E-01 -2.40684963E-06  5.99571988E-01
  2.86210407E-01  1.78173809E-01 -2.65760212E-01  3.05163183E-06 -2.52649023E-06
 -7.32329727E-02 -9.05135280E-01  1.48328041E-01 -9.37860257E-02  9.91941634E-07
  3.82962756E+00  9.56213002E-01  2.34236661E-01 -4.78085264E-06  1.48083239E-01
  5.61653730E-02 -2.46411064E-01  2.69912421E-01 -2.89635589E-06 -8.64118643E-06
 -3.76498926E-01 -3.26418263E-01 -3.76500382E-01 -3.26417719E-01 -2.66882782E-01
 -5.44741140E-01  1.17224658E-01 -5.60978881E-02 -2.82613073E-07 -3.55683061E-06
  1.18709770E-06 -3.90009693E-07 -9.00588680E-03  1.11022751E-05 -5.19506094E-06
 -2.35068542E-06 -1.30777253E-01 -1.88606299E-06 -7.27198594E-06  6.05371652E-06
 -8.46252676E-06 -5.04795383E-01 -1.66993762E-01  2.53518395E-07  3.02963764E-06
 -4.61177647E-07 -3.31475695E-06 -1.89630545E-01 -1.27840623E-05 -3.05774537E-06
  1.62499310E-06  1.35763847E-01 -4.72116772E-07 -1.50583758E-05  1.56470096E-05
  1.10438535E-05  6.32943948E-01 -3.88698152E-01  1.31480256E-01 -1.55721959E-01
 -1.31477361E-01  1.55723760E-01  8.07712623E-07  2.19212418E-06 -3.77835709E-07
  6.85218870E-07 -5.36995618E-02 -6.75078056E-01  1.16862302E-01  6.95953296E-02
 -3.27963759E-07  1.99575142E+00 -5.10454782E-01 -5.24679008E-01  6.40080429E-06
 -1.89796085E-01 -5.58611248E-01  1.84454204E-01 -4.36970083E-01  1.00883557E-05
  9.43544008E-06  2.59856705E-02  2.50733219E-01 -1.09214553E-01 -9.88908048E-02
  1.98691134E-06 -1.38405396E+00 -4.03605088E-01 -5.34903588E-02  5.40869708E-06
 -1.60540064E-01  3.09439876E-01 -1.45013292E-01  5.06804958E-01 -1.06307472E-05
 -1.21410216E-05  4.11840728E-02  1.35492221E-01  4.11866166E-02  1.35496357E-01