
    -----------------------------------------------------------------------
          Psi4: An Open-Source Ab Initio Electronic Structure Package
                               Psi4 1.3.2 release

                         Git: Rev {HEAD} ecbda83 


    R. M. Parrish, L. A. Burns, D. G. A. Smith, A. C. Simmonett,
    A. E. DePrince III, E. G. Hohenstein, U. Bozkaya, A. Yu. Sokolov,
    R. Di Remigio, R. M. Richard, J. F. Gonthier, A. M. James,
    H. R. McAlexander, A. Kumar, M. Saitow, X. Wang, B. P. Pritchard,
    P. Verma, H. F. Schaefer III, K. Patkowski, R. A. King, E. F. Valeev,
    F. A. Evangelista, J. M. Turney, T. D. Crawford, and C. D. Sherrill,
    J. Chem. Theory Comput. 13(7) pp 3185--3197 (2017).
    (doi: 10.1021/acs.jctc.7b00174)


                         Additional Contributions by
    P. Kraus, H. Kruse, M. H. Lechner, M. C. Schieber, R. A. Shaw,
    A. Alenaizan, R. Galvelis, Z. L. Glick, S. Lehtola, and J. P. Misiewicz

    -----------------------------------------------------------------------


    Psi4 started on: Friday, 05 November 2021 12:24AM

    Process ID: 76738
    Host:       node44.bme.utexas.edu
    PSIDATADIR: /home/bdw2292/miniconda3/envs/amoebamdpoltype/share/psi4
    Memory:     500.0 MiB
    Threads:    1
    
  ==> Input File <==

--------------------------------------------------------------------------
molecule { 
0 1
C -0.658856375563 1.548506549944 0.152177589276
C -0.788186994833 0.212719283733 0.407795380857
N 0.121530351948 -0.403215898823 1.287403932432
C 1.474072920541 -0.645758305147 0.905534529819
H -0.288161752325 -1.246470569632 1.686579341666
C 0.330385069003 2.438592056671 0.721658580689
N -0.954796572081 3.634071544464 -0.695455116091
C -1.507109342559 2.359081689956 -0.775849008007
C 0.112935650704 3.671538913707 0.198743568916
C -1.871559829657 -0.650599414364 -0.092061434610
C -3.221690415976 -0.314066784683 0.068308554205
C -1.528115595697 -1.892630444093 -0.649975050380
C -4.211931463143 -1.195812417666 -0.354682020398
C -2.524165877123 -2.763383684960 -1.085539951866
C -3.868010811876 -2.419581977260 -0.932855043481
C 2.308230392462 -1.303776493641 1.816423833694
C 2.013617807646 -0.209582910553 -0.309007555292
C 3.633978210782 -1.576411670705 1.497463946051
C 3.345571589701 -0.473891862193 -0.617101072715
C 4.182929811180 -1.140523070501 0.284923839229
H -1.335704263311 4.416019615013 -1.210963464067
O -2.467195960131 2.051350549461 -1.480533430697
H -3.485302505575 0.639093947502 0.515878919165
H -0.477904955780 -2.153485376052 -0.769625268177
H -5.258426304730 -0.931014605105 -0.226705791572
H -2.251780817937 -3.714384230604 -1.536550052321
H -4.645894441580 -3.102479851585 -1.265063289000
H 1.904914564143 -1.624243306258 2.775312693186
H 1.386537171127 0.306204310387 -1.029764270165
H 4.261225349291 -2.101879854564 2.215531317232
H 3.746292875241 -0.139267591384 -1.572541841271
N 5.506736850599 -1.463271161480 -0.065859052343
H 1.078216168126 2.172502156939 1.454816391895
H 0.630385247985 4.602647297003 0.392758441157
H 6.109683648317 -1.589206426215 0.741081555098
H 5.923314360062 -0.788743985455 -0.699628528801
}
memory 8.333333333333334GB
set_num_threads(1)
psi4_io.set_default_path("/scratch/bdw2292/Psi4-7_1_Index_0_GrowFragment_0-farH_in17")
set freeze_core True
set PROPERTIES_ORIGIN ["COM"]
set cubeprop_tasks ['esp']
E, wfn = properties('mp2/6-311G**',properties=['dipole'],return_wfn=True)
cubeprop(wfn)
fchk(wfn, "7_1_Index_0_GrowFragment_0-dma.fchk")
clean()
--------------------------------------------------------------------------

  Memory set to   7.761 GiB by Python driver.
  Threads set to 1 by Python driver.
    SCF Algorithm Type (re)set to DF.

*** tstart() called on node44.bme.utexas.edu
*** at Fri Nov  5 00:24:38 2021

   => Loading Basis Set <=

    Name: 6-311G**
    Role: ORBITAL
    Keyword: BASIS
    atoms 1-2, 4, 6, 8-20     entry C          line   113 file /home/bdw2292/miniconda3/envs/amoebamdpoltype/share/psi4/basis/6-311gss.gbs 
    atoms 3, 7, 32            entry N          line   132 file /home/bdw2292/miniconda3/envs/amoebamdpoltype/share/psi4/basis/6-311gss.gbs 
    atoms 5, 21, 23-31, 33-36 entry H          line    32 file /home/bdw2292/miniconda3/envs/amoebamdpoltype/share/psi4/basis/6-311gss.gbs 
    atoms 22                  entry O          line   151 file /home/bdw2292/miniconda3/envs/amoebamdpoltype/share/psi4/basis/6-311gss.gbs 


         ---------------------------------------------------------
                                   SCF
               by Justin Turney, Rob Parrish, Andy Simmonett
                          and Daniel G. A. Smith
                              RHF Reference
                        1 Threads,   7947 MiB Core
         ---------------------------------------------------------

  ==> Geometry <==

    Molecular point group: c1
    Full point group: C1

    Geometry (in Angstrom), charge = 0, multiplicity = 1:

       Center              X                  Y                   Z               Mass       
    ------------   -----------------  -----------------  -----------------  -----------------
         C           -0.658856375563     1.548506549944     0.152177589276    12.000000000000
         C           -0.788186994833     0.212719283733     0.407795380857    12.000000000000
         N            0.121530351948    -0.403215898823     1.287403932432    14.003074004430
         C            1.474072920541    -0.645758305147     0.905534529819    12.000000000000
         H           -0.288161752325    -1.246470569632     1.686579341666     1.007825032230
         C            0.330385069003     2.438592056671     0.721658580689    12.000000000000
         N           -0.954796572081     3.634071544464    -0.695455116091    14.003074004430
         C           -1.507109342559     2.359081689956    -0.775849008007    12.000000000000
         C            0.112935650704     3.671538913707     0.198743568916    12.000000000000
         C           -1.871559829657    -0.650599414364    -0.092061434610    12.000000000000
         C           -3.221690415976    -0.314066784683     0.068308554205    12.000000000000
         C           -1.528115595697    -1.892630444093    -0.649975050380    12.000000000000
         C           -4.211931463143    -1.195812417666    -0.354682020398    12.000000000000
         C           -2.524165877123    -2.763383684960    -1.085539951866    12.000000000000
         C           -3.868010811876    -2.419581977260    -0.932855043481    12.000000000000
         C            2.308230392462    -1.303776493641     1.816423833694    12.000000000000
         C            2.013617807646    -0.209582910553    -0.309007555292    12.000000000000
         C            3.633978210782    -1.576411670705     1.497463946051    12.000000000000
         C            3.345571589701    -0.473891862193    -0.617101072715    12.000000000000
         C            4.182929811180    -1.140523070501     0.284923839229    12.000000000000
         H           -1.335704263311     4.416019615013    -1.210963464067     1.007825032230
         O           -2.467195960131     2.051350549461    -1.480533430697    15.994914619570
         H           -3.485302505575     0.639093947502     0.515878919165     1.007825032230
         H           -0.477904955780    -2.153485376052    -0.769625268177     1.007825032230
         H           -5.258426304730    -0.931014605105    -0.226705791572     1.007825032230
         H           -2.251780817937    -3.714384230604    -1.536550052321     1.007825032230
         H           -4.645894441580    -3.102479851585    -1.265063289000     1.007825032230
         H            1.904914564143    -1.624243306258     2.775312693186     1.007825032230
         H            1.386537171127     0.306204310387    -1.029764270165     1.007825032230
         H            4.261225349291    -2.101879854564     2.215531317232     1.007825032230
         H            3.746292875241    -0.139267591384    -1.572541841271     1.007825032230
         N            5.506736850599    -1.463271161480    -0.065859052343    14.003074004430
         H            1.078216168126     2.172502156939     1.454816391895     1.007825032230
         H            0.630385247985     4.602647297003     0.392758441157     1.007825032230
         H            6.109683648317    -1.589206426215     0.741081555098     1.007825032230
         H            5.923314360062    -0.788743985455    -0.699628528801     1.007825032230

  Running in c1 symmetry.

  Rotational constants: A =      0.01467  B =      0.00729  C =      0.00540 [cm^-1]
  Rotational constants: A =    439.90616  B =    218.53750  C =    161.96734 [MHz]
  Nuclear repulsion = 1544.883661969223795

  Charge       = 0
  Multiplicity = 1
  Electrons    = 146
  Nalpha       = 73
  Nbeta        = 73

  ==> Algorithm <==

  SCF Algorithm Type is DF.
  DIIS enabled.
  MOM disabled.
  Fractional occupation disabled.
  Guess Type is SAD.
  Energy threshold   = 1.00e-10
  Density threshold  = 1.00e-10
  Integral threshold = 0.00e+00

  ==> Primary Basis <==

  Basis Set: 6-311G**
    Blend: 6-311G**
    Number of shells: 228
    Number of basis function: 468
    Number of Cartesian functions: 489
    Spherical Harmonics?: true
    Max angular momentum: 2

   => Loading Basis Set <=

    Name: (6-311G** AUX)
    Role: JKFIT
    Keyword: DF_BASIS_SCF
    atoms 1-2, 4, 6, 8-20     entry C          line   125 file /home/bdw2292/miniconda3/envs/amoebamdpoltype/share/psi4/basis/cc-pvtz-jkfit.gbs 
    atoms 3, 7, 32            entry N          line   177 file /home/bdw2292/miniconda3/envs/amoebamdpoltype/share/psi4/basis/cc-pvtz-jkfit.gbs 
    atoms 5, 21, 23-31, 33-36 entry H          line    51 file /home/bdw2292/miniconda3/envs/amoebamdpoltype/share/psi4/basis/cc-pvtz-jkfit.gbs 
    atoms 22                  entry O          line   229 file /home/bdw2292/miniconda3/envs/amoebamdpoltype/share/psi4/basis/cc-pvtz-jkfit.gbs 

  ==> Pre-Iterations <==

   -------------------------------------------------------
    Irrep   Nso     Nmo     Nalpha   Nbeta   Ndocc  Nsocc
   -------------------------------------------------------
     A        468     468       0       0       0       0
   -------------------------------------------------------
    Total     468     468      73      73      73       0
   -------------------------------------------------------

  ==> Integral Setup <==

  DFHelper Memory: AOs need 2.453 GiB; user supplied 5.821 GiB. Using in-core AOs.

  ==> MemDFJK: Density-Fitted J/K Matrices <==

    J tasked:                   Yes
    K tasked:                   Yes
    wK tasked:                   No
    OpenMP threads:               1
    Memory [MiB]:              5960
    Algorithm:                 Disk
    Schwarz Cutoff:           1E-12
    Mask sparsity (%):      31.0039
    Fitting Condition:        1E-10

   => Auxiliary Basis Set <=

  Basis Set: (6-311G** AUX)
    Blend: CC-PVTZ-JKFIT
    Number of shells: 675
    Number of basis function: 2109
    Number of Cartesian functions: 2541
    Spherical Harmonics?: true
    Max angular momentum: 4

  Minimum eigenvalue in the overlap matrix is 1.8151195553E-04.
  Using Symmetric Orthogonalization.

  SCF Guess: Superposition of Atomic Densities via on-the-fly atomic UHF.

  ==> Iterations <==

                           Total Energy        Delta E     RMS |[F,P]|

   @DF-RHF iter SAD:  -890.22947433919637   -8.90229e+02   0.00000e+00 
   @DF-RHF iter   1:  -890.42701819656475   -1.97544e-01   1.87785e-03 DIIS
   @DF-RHF iter   2:  -890.78489482868883   -3.57877e-01   9.69508e-04 DIIS
   @DF-RHF iter   3:  -890.86634825217754   -8.14534e-02   2.52563e-04 DIIS
   @DF-RHF iter   4:  -890.87408504310656   -7.73679e-03   1.04410e-04 DIIS
   @DF-RHF iter   5:  -890.87543960633673   -1.35456e-03   1.94397e-05 DIIS
   @DF-RHF iter   6:  -890.87555745945758   -1.17853e-04   9.49560e-06 DIIS
   @DF-RHF iter   7:  -890.87558725370172   -2.97942e-05   4.26773e-06 DIIS
   @DF-RHF iter   8:  -890.87559370030408   -6.44660e-06   1.69321e-06 DIIS
   @DF-RHF iter   9:  -890.87559466540574   -9.65102e-07   7.01411e-07 DIIS
   @DF-RHF iter  10:  -890.87559487937040   -2.13965e-07   3.62246e-07 DIIS
   @DF-RHF iter  11:  -890.87559492595960   -4.65892e-08   1.38546e-07 DIIS
   @DF-RHF iter  12:  -890.87559493377387   -7.81426e-09   5.69962e-08 DIIS
   @DF-RHF iter  13:  -890.87559493497258   -1.19871e-09   2.21989e-08 DIIS
   @DF-RHF iter  14:  -890.87559493519893   -2.26350e-10   1.02712e-08 DIIS
   @DF-RHF iter  15:  -890.87559493524793   -4.89990e-11   4.40820e-09 DIIS
   @DF-RHF iter  16:  -890.87559493525509   -7.16227e-12   2.01196e-09 DIIS
   @DF-RHF iter  17:  -890.87559493525441    6.82121e-13   9.53162e-10 DIIS
   @DF-RHF iter  18:  -890.87559493526601   -1.15961e-11   4.24348e-10 DIIS
   @DF-RHF iter  19:  -890.87559493526487    1.13687e-12   1.72812e-10 DIIS
   @DF-RHF iter  20:  -890.87559493525305    1.18234e-11   8.80017e-11 DIIS
  Energy and wave function converged.


  ==> Post-Iterations <==

    Orbital Energies [Eh]
    ---------------------

    Doubly Occupied:                                                      

       1A    -20.505366     2A    -15.586666     3A    -15.579576  
       4A    -15.559216     5A    -11.347330     6A    -11.302696  
       7A    -11.277524     8A    -11.274280     9A    -11.274047  
      10A    -11.245032    11A    -11.240135    12A    -11.237842  
      13A    -11.237640    14A    -11.236629    15A    -11.234311  
      16A    -11.234276    17A    -11.233205    18A    -11.233162  
      19A    -11.231768    20A    -11.231252    21A    -11.219741  
      22A     -1.365575    23A     -1.268119    24A     -1.259215  
      25A     -1.219628    26A     -1.155975    27A     -1.124169  
      28A     -1.075109    29A     -1.033909    30A     -1.018448  
      31A     -1.014777    32A     -0.984505    33A     -0.967001  
      34A     -0.893216    35A     -0.845646    36A     -0.831787  
      37A     -0.820814    38A     -0.810341    39A     -0.791060  
      40A     -0.740373    41A     -0.714272    42A     -0.706952  
      43A     -0.697084    44A     -0.682965    45A     -0.672402  
      46A     -0.651715    47A     -0.633651    48A     -0.617562  
      49A     -0.612950    50A     -0.605338    51A     -0.596580  
      52A     -0.593247    53A     -0.589064    54A     -0.585989  
      55A     -0.583708    56A     -0.575938    57A     -0.559047  
      58A     -0.546746    59A     -0.535068    60A     -0.508018  
      61A     -0.502925    62A     -0.497467    63A     -0.492351  
      64A     -0.486652    65A     -0.461069    66A     -0.434690  
      67A     -0.413260    68A     -0.389785    69A     -0.344932  
      70A     -0.337359    71A     -0.332783    72A     -0.288350  
      73A     -0.264665  

    Virtual:                                                              

      74A      0.067048    75A      0.121091    76A      0.135601  
      77A      0.139985    78A      0.150527    79A      0.157135  
      80A      0.161613    81A      0.168799    82A      0.169453  
      83A      0.179855    84A      0.190565    85A      0.193523  
      86A      0.196433    87A      0.207669    88A      0.214456  
      89A      0.224867    90A      0.225755    91A      0.239901  
      92A      0.242043    93A      0.250352    94A      0.269968  
      95A      0.307519    96A      0.335546    97A      0.352904  
      98A      0.364072    99A      0.383224   100A      0.384912  
     101A      0.396316   102A      0.400854   103A      0.425045  
     104A      0.427872   105A      0.436367   106A      0.441014  
     107A      0.448501   108A      0.450613   109A      0.456263  
     110A      0.467509   111A      0.472203   112A      0.489678  
     113A      0.493619   114A      0.504654   115A      0.518776  
     116A      0.529145   117A      0.541503   118A      0.562624  
     119A      0.564174   120A      0.572398   121A      0.575564  
     122A      0.584497   123A      0.586860   124A      0.591370  
     125A      0.597118   126A      0.601431   127A      0.608103  
     128A      0.613149   129A      0.618658   130A      0.626476  
     131A      0.626727   132A      0.631792   133A      0.633991  
     134A      0.636917   135A      0.640357   136A      0.644733  
     137A      0.650162   138A      0.657158   139A      0.665349  
     140A      0.665472   141A      0.673572   142A      0.685323  
     143A      0.701550   144A      0.711563   145A      0.718131  
     146A      0.720883   147A      0.725881   148A      0.733557  
     149A      0.753370   150A      0.756669   151A      0.765598  
     152A      0.776223   153A      0.785073   154A      0.794403  
     155A      0.796516   156A      0.805530   157A      0.809614  
     158A      0.817550   159A      0.820820   160A      0.823607  
     161A      0.825622   162A      0.830397   163A      0.837958  
     164A      0.841438   165A      0.846637   166A      0.850217  
     167A      0.853988   168A      0.865514   169A      0.874864  
     170A      0.878595   171A      0.892815   172A      0.900648  
     173A      0.906874   174A      0.911987   175A      0.916871  
     176A      0.931300   177A      0.948959   178A      0.949742  
     179A      0.953566   180A      0.967176   181A      0.981233  
     182A      0.985175   183A      1.002565   184A      1.012156  
     185A      1.016409   186A      1.019632   187A      1.040159  
     188A      1.052017   189A      1.056846   190A      1.061229  
     191A      1.078029   192A      1.085421   193A      1.088539  
     194A      1.098751   195A      1.105077   196A      1.108937  
     197A      1.131912   198A      1.148871   199A      1.153749  
     200A      1.157706   201A      1.171200   202A      1.188133  
     203A      1.201237   204A      1.207103   205A      1.212755  
     206A      1.228499   207A      1.232400   208A      1.238512  
     209A      1.251258   210A      1.265185   211A      1.267703  
     212A      1.281756   213A      1.298655   214A      1.311370  
     215A      1.318303   216A      1.323001   217A      1.332957  
     218A      1.345890   219A      1.356380   220A      1.358890  
     221A      1.381981   222A      1.393853   223A      1.399160  
     224A      1.416829   225A      1.425963   226A      1.440440  
     227A      1.448043   228A      1.478079   229A      1.493886  
     230A      1.500423   231A      1.511804   232A      1.517311  
     233A      1.573300   234A      1.597575   235A      1.612092  
     236A      1.619811   237A      1.655341   238A      1.664894  
     239A      1.688825   240A      1.710723   241A      1.714209  
     242A      1.726533   243A      1.736244   244A      1.739618  
     245A      1.759154   246A      1.765731   247A      1.774900  
     248A      1.785422   249A      1.796491   250A      1.805870  
     251A      1.819429   252A      1.822507   253A      1.824770  
     254A      1.837345   255A      1.845856   256A      1.849675  
     257A      1.856266   258A      1.866925   259A      1.872227  
     260A      1.879301   261A      1.891384   262A      1.895354  
     263A      1.904353   264A      1.906460   265A      1.928344  
     266A      1.936469   267A      1.947417   268A      1.953756  
     269A      1.972915   270A      1.983501   271A      1.989522  
     272A      2.005403   273A      2.016552   274A      2.022652  
     275A      2.032043   276A      2.041221   277A      2.047262  
     278A      2.054000   279A      2.062684   280A      2.074588  
     281A      2.076796   282A      2.088518   283A      2.102584  
     284A      2.109394   285A      2.137322   286A      2.144269  
     287A      2.165225   288A      2.168527   289A      2.173790  
     290A      2.193843   291A      2.205363   292A      2.205523  
     293A      2.214951   294A      2.218391   295A      2.231459  
     296A      2.233617   297A      2.239824   298A      2.241144  
     299A      2.243248   300A      2.251738   301A      2.254083  
     302A      2.261130   303A      2.276463   304A      2.290810  
     305A      2.306988   306A      2.321425   307A      2.325306  
     308A      2.333006   309A      2.339555   310A      2.363477  
     311A      2.373041   312A      2.390848   313A      2.400172  
     314A      2.405517   315A      2.442914   316A      2.457527  
     317A      2.496159   318A      2.512158   319A      2.536950  
     320A      2.546507   321A      2.602120   322A      2.611178  
     323A      2.629290   324A      2.637565   325A      2.655018  
     326A      2.671232   327A      2.678346   328A      2.685930  
     329A      2.692615   330A      2.706991   331A      2.731704  
     332A      2.740677   333A      2.756969   334A      2.765690  
     335A      2.768465   336A      2.791298   337A      2.795403  
     338A      2.821587   339A      2.837654   340A      2.851647  
     341A      2.874221   342A      2.906888   343A      2.908108  
     344A      2.914680   345A      2.918810   346A      2.929756  
     347A      2.935553   348A      2.937823   349A      2.941064  
     350A      2.950242   351A      2.954709   352A      2.962378  
     353A      2.967382   354A      2.973840   355A      2.981205  
     356A      2.988540   357A      2.997132   358A      3.008581  
     359A      3.019031   360A      3.039506   361A      3.040734  
     362A      3.059517   363A      3.083704   364A      3.094059  
     365A      3.108088   366A      3.116741   367A      3.127513  
     368A      3.132992   369A      3.144954   370A      3.159789  
     371A      3.161421   372A      3.173767   373A      3.188933  
     374A      3.204413   375A      3.219483   376A      3.230068  
     377A      3.258704   378A      3.271465   379A      3.275573  
     380A      3.285881   381A      3.292717   382A      3.298347  
     383A      3.304737   384A      3.333182   385A      3.339186  
     386A      3.349968   387A      3.365527   388A      3.378203  
     389A      3.413032   390A      3.454716   391A      3.475395  
     392A      3.492486   393A      3.519091   394A      3.549204  
     395A      3.586788   396A      3.604412   397A      3.611734  
     398A      3.655153   399A      3.685257   400A      3.721428  
     401A      3.740825   402A      3.764494   403A      3.772947  
     404A      3.779241   405A      3.783073   406A      3.792172  
     407A      3.813409   408A      3.844938   409A      3.863786  
     410A      3.883484   411A      3.895796   412A      3.909536  
     413A      3.918954   414A      3.973290   415A      3.985878  
     416A      4.013001   417A      4.022661   418A      4.060125  
     419A      4.086128   420A      4.174701   421A      4.239858  
     422A      4.269726   423A      4.300637   424A      4.370472  
     425A      4.375465   426A      4.405518   427A      4.433448  
     428A      4.441212   429A      4.468637   430A      4.514975  
     431A      4.532576   432A      4.542986   433A      4.567296  
     434A      4.615410   435A      4.658096   436A      4.922791  
     437A      5.225528   438A      5.271717   439A      5.274417  
     440A      5.309616   441A      5.352013   442A      5.441223  
     443A      5.527049   444A      5.559626   445A      5.585644  
     446A      5.724237   447A      6.282459   448A     24.633844  
     449A     24.671038   450A     24.827866   451A     24.969307  
     452A     24.988367   453A     25.058581   454A     25.090273  
     455A     25.092983   456A     25.098205   457A     25.203132  
     458A     25.216599   459A     25.261061   460A     25.269070  
     461A     25.296182   462A     25.336703   463A     25.352637  
     464A     25.364454   465A     37.016960   466A     37.040580  
     467A     37.077790   468A     51.738841  

    Final Occupation by Irrep:
              A 
    DOCC [    73 ]

  @DF-RHF Final Energy:  -890.87559493525305

   => Energetics <=

    Nuclear Repulsion Energy =           1544.8836619692237946
    One-Electron Energy =               -4281.0066320374162387
    Two-Electron Energy =                1845.2473751329393963
    Total Energy =                       -890.8755949352530479

Computation Completed

*** tstop() called on node44.bme.utexas.edu at Fri Nov  5 00:28:49 2021
Module time:
	user time   =     224.48 seconds =       3.74 minutes
	system time =      25.86 seconds =       0.43 minutes
	total time  =        251 seconds =       4.18 minutes
Total time:
	user time   =     224.48 seconds =       3.74 minutes
	system time =      25.86 seconds =       0.43 minutes
	total time  =        251 seconds =       4.18 minutes
   => Loading Basis Set <=

    Name: (6-311G** AUX)
    Role: RIFIT
    Keyword: DF_BASIS_MP2
    atoms 1-2, 4, 6, 8-20     entry C          line   209 file /home/bdw2292/miniconda3/envs/amoebamdpoltype/share/psi4/basis/cc-pvtz-ri.gbs 
    atoms 3, 7, 32            entry N          line   257 file /home/bdw2292/miniconda3/envs/amoebamdpoltype/share/psi4/basis/cc-pvtz-ri.gbs 
    atoms 5, 21, 23-31, 33-36 entry H          line    19 file /home/bdw2292/miniconda3/envs/amoebamdpoltype/share/psi4/basis/cc-pvtz-ri.gbs 
    atoms 22                  entry O          line   305 file /home/bdw2292/miniconda3/envs/amoebamdpoltype/share/psi4/basis/cc-pvtz-ri.gbs 


*** tstart() called on node44.bme.utexas.edu
*** at Fri Nov  5 00:28:49 2021


  //>>>>>>>>>>>>>>>>>>>>>>>>>>>>>>>>>>>//
  //               DFMP2               //
  //<<<<<<<<<<<<<<<<<<<<<<<<<<<<<<<<<<<//

	 --------------------------------------------------------
	                          DF-MP2                         
	      2nd-Order Density-Fitted Moller-Plesset Theory     
	              RMP2 Wavefunction,   1 Threads             
	                                                         
	        Rob Parrish, Justin Turney, Andy Simmonett,      
	           Ed Hohenstein, and C. David Sherrill          
	 --------------------------------------------------------

   => Auxiliary Basis Set <=

  Basis Set: (6-311G** AUX)
    Blend: CC-PVTZ-RI
    Number of shells: 633
    Number of basis function: 2151
    Number of Cartesian functions: 2646
    Spherical Harmonics?: true
    Max angular momentum: 4

	 --------------------------------------------------------
	                 NBF =   468, NAUX =  2151
	 --------------------------------------------------------
	   CLASS    FOCC     OCC    AOCC    AVIR     VIR    FVIR
	   PAIRS      21      73      52     395     395       0
	 --------------------------------------------------------

  DFHelper Memory: AOs need 2.453 GiB; user supplied 5.821 GiB. Using in-core AOs.


         ------------------------------------------------------------
                                     CPHF                           
                                  Rob Parrish                       
         ------------------------------------------------------------

  ==> Geometry <==

    Molecular point group: c1
    Full point group: C1

    Geometry (in Angstrom), charge = 0, multiplicity = 1:

       Center              X                  Y                   Z               Mass       
    ------------   -----------------  -----------------  -----------------  -----------------
         C           -0.658856375563     1.548506549944     0.152177589276    12.000000000000
         C           -0.788186994833     0.212719283733     0.407795380857    12.000000000000
         N            0.121530351948    -0.403215898823     1.287403932432    14.003074004430
         C            1.474072920541    -0.645758305147     0.905534529819    12.000000000000
         H           -0.288161752325    -1.246470569632     1.686579341666     1.007825032230
         C            0.330385069003     2.438592056671     0.721658580689    12.000000000000
         N           -0.954796572081     3.634071544464    -0.695455116091    14.003074004430
         C           -1.507109342559     2.359081689956    -0.775849008007    12.000000000000
         C            0.112935650704     3.671538913707     0.198743568916    12.000000000000
         C           -1.871559829657    -0.650599414364    -0.092061434610    12.000000000000
         C           -3.221690415976    -0.314066784683     0.068308554205    12.000000000000
         C           -1.528115595697    -1.892630444093    -0.649975050380    12.000000000000
         C           -4.211931463143    -1.195812417666    -0.354682020398    12.000000000000
         C           -2.524165877123    -2.763383684960    -1.085539951866    12.000000000000
         C           -3.868010811876    -2.419581977260    -0.932855043481    12.000000000000
         C            2.308230392462    -1.303776493641     1.816423833694    12.000000000000
         C            2.013617807646    -0.209582910553    -0.309007555292    12.000000000000
         C            3.633978210782    -1.576411670705     1.497463946051    12.000000000000
         C            3.345571589701    -0.473891862193    -0.617101072715    12.000000000000
         C            4.182929811180    -1.140523070501     0.284923839229    12.000000000000
         H           -1.335704263311     4.416019615013    -1.210963464067     1.007825032230
         O           -2.467195960131     2.051350549461    -1.480533430697    15.994914619570
         H           -3.485302505575     0.639093947502     0.515878919165     1.007825032230
         H           -0.477904955780    -2.153485376052    -0.769625268177     1.007825032230
         H           -5.258426304730    -0.931014605105    -0.226705791572     1.007825032230
         H           -2.251780817937    -3.714384230604    -1.536550052321     1.007825032230
         H           -4.645894441580    -3.102479851585    -1.265063289000     1.007825032230
         H            1.904914564143    -1.624243306258     2.775312693186     1.007825032230
         H            1.386537171127     0.306204310387    -1.029764270165     1.007825032230
         H            4.261225349291    -2.101879854564     2.215531317232     1.007825032230
         H            3.746292875241    -0.139267591384    -1.572541841271     1.007825032230
         N            5.506736850599    -1.463271161480    -0.065859052343    14.003074004430
         H            1.078216168126     2.172502156939     1.454816391895     1.007825032230
         H            0.630385247985     4.602647297003     0.392758441157     1.007825032230
         H            6.109683648317    -1.589206426215     0.741081555098     1.007825032230
         H            5.923314360062    -0.788743985455    -0.699628528801     1.007825032230

  Nuclear repulsion = 1544.883661969224022
  Reference energy  = -890.875594935253048

  ==> Basis Set <==

  Basis Set: 6-311G**
    Blend: 6-311G**
    Number of shells: 228
    Number of basis function: 468
    Number of Cartesian functions: 489
    Spherical Harmonics?: true
    Max angular momentum: 2

  ==> CGRSolver (by Rob Parrish) <==

   Number of roots    =         1
   Preconditioning    =    JACOBI
   Convergence cutoff =     1E-06
   Maximum iterations =       100

  ==> CPHFRHamiltonian (by Rob Parrish) <== 

  ==> MemDFJK: Density-Fitted J/K Matrices <==

    J tasked:                   Yes
    K tasked:                   Yes
    wK tasked:                   No
    OpenMP threads:               1
    Memory [MiB]:              5960
    Algorithm:                 Disk
    Schwarz Cutoff:           1E-12
    Mask sparsity (%):      31.0039
    Fitting Condition:        1E-10

   => Auxiliary Basis Set <=

  Basis Set: (6-311G** AUX)
    Blend: CC-PVTZ-JKFIT
    Number of shells: 675
    Number of basis function: 2109
    Number of Cartesian functions: 2541
    Spherical Harmonics?: true
    Max angular momentum: 4

  ==> CPHF Iterations <==

  => Iterations <=

             Iter  Converged  Remaining    Residual
  CGR           1          0          1   1.199E-01
  CGR           2          0          1   3.716E-02
  CGR           3          0          1   1.670E-02
  CGR           4          0          1   5.478E-03
  CGR           5          0          1   2.895E-03
  CGR           6          0          1   1.533E-03
  CGR           7          0          1   5.470E-04
  CGR           8          0          1   2.055E-04
  CGR           9          0          1   6.503E-05
  CGR          10          0          1   2.768E-05
  CGR          11          0          1   1.061E-05
  CGR          12          0          1   4.415E-06
  CGR          13          0          1   2.061E-06
  CGR          14          1          0   7.013E-07

    CGRSolver converged.

	-----------------------------------------------------------
	 ==================> DF-MP2 Energies <==================== 
	-----------------------------------------------------------
	 Reference Energy          =    -890.8755949352530479 [Eh]
	 Singles Energy            =      -0.0000000000000000 [Eh]
	 Same-Spin Energy          =      -0.8256284289327329 [Eh]
	 Opposite-Spin Energy      =      -2.2263971923046260 [Eh]
	 Correlation Energy        =      -3.0520256212373589 [Eh]
	 Total Energy              =    -893.9276205564904103 [Eh]
	-----------------------------------------------------------
	 ================> DF-SCS-MP2 Energies <================== 
	-----------------------------------------------------------
	 SCS Same-Spin Scale       =       0.3333333333333333 [-]
	 SCS Opposite-Spin Scale   =       1.2000000000000000 [-]
	 SCS Same-Spin Energy      =      -0.2752094763109110 [Eh]
	 SCS Opposite-Spin Energy  =      -2.6716766307655511 [Eh]
	 SCS Correlation Energy    =      -2.9468861070764620 [Eh]
	 SCS Total Energy          =    -893.8224810423295139 [Eh]
	-----------------------------------------------------------



Properties will be evaluated at  -0.000000,   0.000000,  -0.000000 [a0]

Properties computed using the MP2 density matrix

  Nuclear Dipole Moment: [e a0]
     X:     6.8157      Y:    -4.9214      Z:     1.3705

  Electronic Dipole Moment: [e a0]
     X:    -5.7052      Y:     5.2493      Z:    -0.7842

  Dipole Moment: [e a0]
     X:     1.1104      Y:     0.3279      Z:     0.5862     Total:     1.2978

  Dipole Moment: [D]
     X:     2.8224      Y:     0.8335      Z:     1.4901     Total:     3.2986


*** tstop() called on node44.bme.utexas.edu at Fri Nov  5 00:42:19 2021
Module time:
	user time   =     778.57 seconds =      12.98 minutes
	system time =      31.20 seconds =       0.52 minutes
	total time  =        810 seconds =      13.50 minutes
Total time:
	user time   =    1003.44 seconds =      16.72 minutes
	system time =      57.07 seconds =       0.95 minutes
	total time  =       1061 seconds =      17.68 minutes
  ==> One Electron Grid Properties (v2.0) <==

  ==> CubicScalarGrid <==

    Filepath     = .
    Total Points =          1484040
    XYZ Blocking =               10
    X Points     =              149
    Y Points     =              120
    Z Points     =               83
    X Spacing    =        2.000E-01
    Y Spacing    =        2.000E-01
    Z Spacing    =        2.000E-01
    X Minimum    =       -1.400E+01
    Y Minimum    =       -1.106E+01
    Z Minimum    =       -7.064E+00
    X Maximum    =        1.560E+01
    Y Maximum    =        1.274E+01
    Z Maximum    =        9.336E+00

  Basis Set: 6-311G**
    Blend: 6-311G**
    Number of shells: 228
    Number of basis function: 468
    Number of Cartesian functions: 489
    Spherical Harmonics?: true
    Max angular momentum: 2


    Psi4 stopped on: Friday, 05 November 2021 12:51AM
    Psi4 wall time for execution: 0:27:01.80

*** Psi4 exiting successfully. Buy a developer a beer!
