
    -----------------------------------------------------------------------
          Psi4: An Open-Source Ab Initio Electronic Structure Package
                               Psi4 1.3.2 release

                         Git: Rev {HEAD} ecbda83 


    R. M. Parrish, L. A. Burns, D. G. A. Smith, A. C. Simmonett,
    A. E. DePrince III, E. G. Hohenstein, U. Bozkaya, A. Yu. Sokolov,
    R. Di Remigio, R. M. Richard, J. F. Gonthier, A. M. James,
    H. R. McAlexander, A. Kumar, M. Saitow, X. Wang, B. P. Pritchard,
    P. Verma, H. F. Schaefer III, K. Patkowski, R. A. King, E. F. Valeev,
    F. A. Evangelista, J. M. Turney, T. D. Crawford, and C. D. Sherrill,
    J. Chem. Theory Comput. 13(7) pp 3185--3197 (2017).
    (doi: 10.1021/acs.jctc.7b00174)


                         Additional Contributions by
    P. Kraus, H. Kruse, M. H. Lechner, M. C. Schieber, R. A. Shaw,
    A. Alenaizan, R. Galvelis, Z. L. Glick, S. Lehtola, and J. P. Misiewicz

    -----------------------------------------------------------------------


    Psi4 started on: Thursday, 04 November 2021 08:09PM

    Process ID: 65439
    Host:       node44.bme.utexas.edu
    PSIDATADIR: /home/bdw2292/miniconda3/envs/amoebamdpoltype/share/psi4
    Memory:     500.0 MiB
    Threads:    1
    
  ==> Input File <==

--------------------------------------------------------------------------
molecule { 
0 1
C 0.939754357210 0.035457818794 -0.053446943695
N 2.332789557650 0.105632020069 -0.222252249022
C 0.196697151823 1.192322939331 0.214150412477
C 0.259792343251 -1.173773313112 -0.247001332546
C -1.191050878766 1.132799961887 0.312696917773
C -1.128153853046 -1.226891184529 -0.147305655516
C -1.864163149868 -0.074795027932 0.128665175415
H 2.804813121311 -0.768703477382 -0.015734765949
H 0.713315611659 2.140186263720 0.354248809433
H 0.825735891946 -2.077115623473 -0.467568555886
H -1.748939861063 2.041002021735 0.527533301631
H -1.636492865113 -2.176686474303 -0.294626160786
H 2.761487108306 0.860330512892 0.303723132257
H -2.946705884419 -0.118859252323 0.206729087873
}
memory 8.333333333333334GB
set_num_threads(1)
psi4_io.set_default_path("/scratch/bdw2292/Psi4-16_Index_0-farH_in17")
set maxiter 500
set freeze_core True
set PROPERTIES_ORIGIN ["COM"]
set cubeprop_tasks ['esp']
E, wfn = properties('mp2/aug-cc-pVTZ',properties=['dipole'],return_wfn=True)
cubeprop(wfn)
fchk(wfn, "16_Index_0-esp.fchk")
oeprop(wfn,"GRID_ESP","WIBERG_LOWDIN_INDICES","MULLIKEN_CHARGES")
clean()
--------------------------------------------------------------------------

  Memory set to   7.761 GiB by Python driver.
  Threads set to 1 by Python driver.
    SCF Algorithm Type (re)set to DF.

*** tstart() called on node44.bme.utexas.edu
*** at Thu Nov  4 20:09:46 2021

   => Loading Basis Set <=

    Name: AUG-CC-PVTZ
    Role: ORBITAL
    Keyword: BASIS
    atoms 1, 3-7 entry C          line   235 file /home/bdw2292/miniconda3/envs/amoebamdpoltype/share/psi4/basis/aug-cc-pvtz.gbs 
    atoms 2      entry N          line   281 file /home/bdw2292/miniconda3/envs/amoebamdpoltype/share/psi4/basis/aug-cc-pvtz.gbs 
    atoms 8-14   entry H          line    36 file /home/bdw2292/miniconda3/envs/amoebamdpoltype/share/psi4/basis/aug-cc-pvtz.gbs 


         ---------------------------------------------------------
                                   SCF
               by Justin Turney, Rob Parrish, Andy Simmonett
                          and Daniel G. A. Smith
                              RHF Reference
                        1 Threads,   7947 MiB Core
         ---------------------------------------------------------

  ==> Geometry <==

    Molecular point group: c1
    Full point group: C1

    Geometry (in Angstrom), charge = 0, multiplicity = 1:

       Center              X                  Y                   Z               Mass       
    ------------   -----------------  -----------------  -----------------  -----------------
         C            0.939754357210     0.035457818794    -0.053446943695    12.000000000000
         N            2.332789557650     0.105632020069    -0.222252249022    14.003074004430
         C            0.196697151823     1.192322939331     0.214150412477    12.000000000000
         C            0.259792343251    -1.173773313112    -0.247001332546    12.000000000000
         C           -1.191050878766     1.132799961887     0.312696917773    12.000000000000
         C           -1.128153853046    -1.226891184529    -0.147305655516    12.000000000000
         C           -1.864163149868    -0.074795027932     0.128665175415    12.000000000000
         H            2.804813121311    -0.768703477382    -0.015734765949     1.007825032230
         H            0.713315611659     2.140186263720     0.354248809433     1.007825032230
         H            0.825735891946    -2.077115623473    -0.467568555886     1.007825032230
         H           -1.748939861063     2.041002021735     0.527533301631     1.007825032230
         H           -1.636492865113    -2.176686474303    -0.294626160786     1.007825032230
         H            2.761487108306     0.860330512892     0.303723132257     1.007825032230
         H           -2.946705884419    -0.118859252323     0.206729087873     1.007825032230

  Running in c1 symmetry.

  Rotational constants: A =      0.18753  B =      0.08650  C =      0.05931 [cm^-1]
  Rotational constants: A =   5621.98079  B =   2593.07919  C =   1778.21052 [MHz]
  Nuclear repulsion =  271.226639743195960

  Charge       = 0
  Multiplicity = 1
  Electrons    = 50
  Nalpha       = 25
  Nbeta        = 25

  ==> Algorithm <==

  SCF Algorithm Type is DF.
  DIIS enabled.
  MOM disabled.
  Fractional occupation disabled.
  Guess Type is SAD.
  Energy threshold   = 1.00e-10
  Density threshold  = 1.00e-10
  Integral threshold = 0.00e+00

  ==> Primary Basis <==

  Basis Set: AUG-CC-PVTZ
    Blend: AUG-CC-PVTZ
    Number of shells: 161
    Number of basis function: 483
    Number of Cartesian functions: 560
    Spherical Harmonics?: true
    Max angular momentum: 3

   => Loading Basis Set <=

    Name: (AUG-CC-PVTZ AUX)
    Role: JKFIT
    Keyword: DF_BASIS_SCF
    atoms 1, 3-7 entry C          line   162 file /home/bdw2292/miniconda3/envs/amoebamdpoltype/share/psi4/basis/aug-cc-pvtz-jkfit.gbs 
    atoms 2      entry N          line   224 file /home/bdw2292/miniconda3/envs/amoebamdpoltype/share/psi4/basis/aug-cc-pvtz-jkfit.gbs 
    atoms 8-14   entry H          line    70 file /home/bdw2292/miniconda3/envs/amoebamdpoltype/share/psi4/basis/aug-cc-pvtz-jkfit.gbs 

  ==> Pre-Iterations <==

   -------------------------------------------------------
    Irrep   Nso     Nmo     Nalpha   Nbeta   Ndocc  Nsocc
   -------------------------------------------------------
     A        483     483       0       0       0       0
   -------------------------------------------------------
    Total     483     483      25      25      25       0
   -------------------------------------------------------

  ==> Integral Setup <==

  DFHelper Memory: AOs need 1.839 GiB; user supplied 5.821 GiB. Using in-core AOs.

  ==> MemDFJK: Density-Fitted J/K Matrices <==

    J tasked:                   Yes
    K tasked:                   Yes
    wK tasked:                   No
    OpenMP threads:               1
    Memory [MiB]:              5960
    Algorithm:                 Core
    Schwarz Cutoff:           1E-12
    Mask sparsity (%):       2.3482
    Fitting Condition:        1E-10

   => Auxiliary Basis Set <=

  Basis Set: (AUG-CC-PVTZ AUX)
    Blend: AUG-CC-PVTZ-JKFIT
    Number of shells: 308
    Number of basis function: 1050
    Number of Cartesian functions: 1302
    Spherical Harmonics?: true
    Max angular momentum: 4

  Minimum eigenvalue in the overlap matrix is 6.8177248710E-07.
  Using Symmetric Orthogonalization.

  SCF Guess: Superposition of Atomic Densities via on-the-fly atomic UHF.

  ==> Iterations <==

                           Total Energy        Delta E     RMS |[F,P]|

   @DF-RHF iter SAD:  -285.26904571913269   -2.85269e+02   0.00000e+00 
   @DF-RHF iter   1:  -285.59974780012055   -3.30702e-01   1.30876e-03 DIIS
   @DF-RHF iter   2:  -285.78784678066017   -1.88099e-01   6.27979e-04 DIIS
   @DF-RHF iter   3:  -285.83229756733112   -4.44508e-02   1.01492e-04 DIIS
   @DF-RHF iter   4:  -285.83445470725849   -2.15714e-03   2.28437e-05 DIIS
   @DF-RHF iter   5:  -285.83454155535838   -8.68481e-05   7.40375e-06 DIIS
   @DF-RHF iter   6:  -285.83455297742654   -1.14221e-05   2.32571e-06 DIIS
   @DF-RHF iter   7:  -285.83455446069240   -1.48327e-06   7.34946e-07 DIIS
   @DF-RHF iter   8:  -285.83455462494612   -1.64254e-07   3.13587e-07 DIIS
   @DF-RHF iter   9:  -285.83455465116765   -2.62215e-08   9.98108e-08 DIIS
   @DF-RHF iter  10:  -285.83455465539265   -4.22500e-09   5.65010e-08 DIIS
   @DF-RHF iter  11:  -285.83455465671892   -1.32627e-09   2.51103e-08 DIIS
   @DF-RHF iter  12:  -285.83455465718941   -4.70493e-10   9.52075e-09 DIIS
   @DF-RHF iter  13:  -285.83455465722727   -3.78577e-11   3.78132e-09 DIIS
   @DF-RHF iter  14:  -285.83455465723370   -6.42331e-12   8.07172e-10 DIIS
   @DF-RHF iter  15:  -285.83455465723216    1.53477e-12   1.95661e-10 DIIS
   @DF-RHF iter  16:  -285.83455465724057   -8.41283e-12   6.83872e-11 DIIS
  Energy and wave function converged.


  ==> Post-Iterations <==

    Orbital Energies [Eh]
    ---------------------

    Doubly Occupied:                                                      

       1A    -15.567065     2A    -11.278067     3A    -11.236539  
       4A    -11.236503     5A    -11.225412     6A    -11.225393  
       7A    -11.221180     8A     -1.222750     9A     -1.126247  
      10A     -1.011711    11A     -0.985456    12A     -0.831188  
      13A     -0.811204    14A     -0.703017    15A     -0.681087  
      16A     -0.653836    17A     -0.597488    18A     -0.591765  
      19A     -0.580607    20A     -0.534551    21A     -0.506078  
      22A     -0.488955    23A     -0.450008    24A     -0.336859  
      25A     -0.297708  

    Virtual:                                                              

      26A      0.026828    27A      0.033958    28A      0.034494  
      29A      0.047379    30A      0.047996    31A      0.064205  
      32A      0.075468    33A      0.092285    34A      0.099753  
      35A      0.103269    36A      0.108538    37A      0.109849  
      38A      0.112802    39A      0.115228    40A      0.122213  
      41A      0.130343    42A      0.131271    43A      0.135163  
      44A      0.138789    45A      0.142124    46A      0.145848  
      47A      0.153474    48A      0.156054    49A      0.161928  
      50A      0.162482    51A      0.163279    52A      0.178646  
      53A      0.181659    54A      0.197147    55A      0.202592  
      56A      0.225854    57A      0.236961    58A      0.248784  
      59A      0.251711    60A      0.258885    61A      0.260258  
      62A      0.272027    63A      0.273740    64A      0.284538  
      65A      0.295854    66A      0.305608    67A      0.306915  
      68A      0.311644    69A      0.316303    70A      0.323217  
      71A      0.325968    72A      0.331126    73A      0.338793  
      74A      0.343725    75A      0.353467    76A      0.366070  
      77A      0.368849    78A      0.380107    79A      0.383202  
      80A      0.383970    81A      0.390109    82A      0.413519  
      83A      0.415156    84A      0.418465    85A      0.425345  
      86A      0.433961    87A      0.438815    88A      0.450267  
      89A      0.451630    90A      0.453685    91A      0.462762  
      92A      0.463363    93A      0.463617    94A      0.475070  
      95A      0.480932    96A      0.485678    97A      0.488549  
      98A      0.490612    99A      0.500017   100A      0.512742  
     101A      0.521364   102A      0.521948   103A      0.530737  
     104A      0.534971   105A      0.539855   106A      0.541343  
     107A      0.548396   108A      0.555406   109A      0.558150  
     110A      0.566274   111A      0.595535   112A      0.601336  
     113A      0.605458   114A      0.622130   115A      0.638092  
     116A      0.642484   117A      0.651618   118A      0.661481  
     119A      0.667735   120A      0.669333   121A      0.682700  
     122A      0.686120   123A      0.704859   124A      0.705226  
     125A      0.707711   126A      0.712547   127A      0.721521  
     128A      0.735956   129A      0.745574   130A      0.756581  
     131A      0.765846   132A      0.770758   133A      0.798685  
     134A      0.804205   135A      0.814259   136A      0.821873  
     137A      0.832909   138A      0.845649   139A      0.855638  
     140A      0.863024   141A      0.876483   142A      0.879865  
     143A      0.880303   144A      0.886973   145A      0.891621  
     146A      0.897631   147A      0.902624   148A      0.908246  
     149A      0.920693   150A      0.924849   151A      0.932263  
     152A      0.937200   153A      0.946482   154A      0.958303  
     155A      0.959240   156A      0.967782   157A      0.984179  
     158A      0.988620   159A      0.991625   160A      1.012900  
     161A      1.020810   162A      1.033277   163A      1.042706  
     164A      1.045042   165A      1.052412   166A      1.053615  
     167A      1.059608   168A      1.063898   169A      1.077299  
     170A      1.081820   171A      1.088844   172A      1.091765  
     173A      1.094305   174A      1.106162   175A      1.106253  
     176A      1.118925   177A      1.132089   178A      1.141195  
     179A      1.151326   180A      1.155101   181A      1.165789  
     182A      1.172110   183A      1.190094   184A      1.191241  
     185A      1.193268   186A      1.201685   187A      1.215708  
     188A      1.219286   189A      1.225359   190A      1.229189  
     191A      1.233129   192A      1.249000   193A      1.260158  
     194A      1.265545   195A      1.268761   196A      1.269505  
     197A      1.281889   198A      1.296041   199A      1.332096  
     200A      1.337420   201A      1.353853   202A      1.356734  
     203A      1.374631   204A      1.383920   205A      1.388656  
     206A      1.390687   207A      1.405698   208A      1.414905  
     209A      1.416091   210A      1.460456   211A      1.466380  
     212A      1.468988   213A      1.474600   214A      1.477484  
     215A      1.496828   216A      1.528202   217A      1.531194  
     218A      1.540284   219A      1.540579   220A      1.553480  
     221A      1.566416   222A      1.566586   223A      1.633174  
     224A      1.657034   225A      1.685434   226A      1.693487  
     227A      1.703417   228A      1.706976   229A      1.712434  
     230A      1.720806   231A      1.735994   232A      1.756829  
     233A      1.768461   234A      1.787385   235A      1.811212  
     236A      1.816735   237A      1.825405   238A      1.837839  
     239A      1.846724   240A      1.858739   241A      1.858856  
     242A      1.866684   243A      1.878800   244A      1.888027  
     245A      1.898079   246A      1.906799   247A      1.919601  
     248A      1.949636   249A      1.973309   250A      1.985373  
     251A      1.989191   252A      1.992675   253A      2.014651  
     254A      2.017507   255A      2.022452   256A      2.037365  
     257A      2.047227   258A      2.061834   259A      2.076997  
     260A      2.080480   261A      2.103761   262A      2.113737  
     263A      2.125956   264A      2.131160   265A      2.131255  
     266A      2.153748   267A      2.188500   268A      2.203382  
     269A      2.225740   270A      2.226368   271A      2.228524  
     272A      2.255896   273A      2.276668   274A      2.289201  
     275A      2.307593   276A      2.342993   277A      2.354513  
     278A      2.370304   279A      2.377837   280A      2.387337  
     281A      2.400422   282A      2.408862   283A      2.447997  
     284A      2.451201   285A      2.472198   286A      2.481953  
     287A      2.505958   288A      2.509153   289A      2.543835  
     290A      2.565506   291A      2.590223   292A      2.594698  
     293A      2.616273   294A      2.653386   295A      2.660226  
     296A      2.734503   297A      2.783316   298A      2.785583  
     299A      2.788812   300A      2.814386   301A      2.837811  
     302A      2.854550   303A      2.893981   304A      2.899653  
     305A      3.030192   306A      3.100071   307A      3.131682  
     308A      3.156268   309A      3.184269   310A      3.194273  
     311A      3.227831   312A      3.248454   313A      3.259138  
     314A      3.275118   315A      3.336987   316A      3.352854  
     317A      3.367261   318A      3.392224   319A      3.405954  
     320A      3.415493   321A      3.420449   322A      3.427004  
     323A      3.448617   324A      3.450699   325A      3.466207  
     326A      3.530967   327A      3.535211   328A      3.546993  
     329A      3.552811   330A      3.567147   331A      3.570934  
     332A      3.588617   333A      3.600919   334A      3.606028  
     335A      3.620605   336A      3.661311   337A      3.678200  
     338A      3.685006   339A      3.699852   340A      3.712460  
     341A      3.743605   342A      3.788945   343A      3.809998  
     344A      3.820984   345A      3.834456   346A      3.834504  
     347A      3.859025   348A      3.860364   349A      3.869248  
     350A      3.886501   351A      3.899961   352A      3.901870  
     353A      3.945138   354A      3.962938   355A      3.967008  
     356A      3.984012   357A      3.991271   358A      4.013527  
     359A      4.015185   360A      4.044904   361A      4.066406  
     362A      4.072499   363A      4.075266   364A      4.095749  
     365A      4.118260   366A      4.138327   367A      4.156793  
     368A      4.164953   369A      4.179426   370A      4.191795  
     371A      4.209414   372A      4.231064   373A      4.266446  
     374A      4.272808   375A      4.298160   376A      4.301698  
     377A      4.309361   378A      4.342544   379A      4.355450  
     380A      4.362608   381A      4.367837   382A      4.371844  
     383A      4.395943   384A      4.404449   385A      4.419596  
     386A      4.421123   387A      4.437751   388A      4.442713  
     389A      4.458397   390A      4.484933   391A      4.491289  
     392A      4.499545   393A      4.508896   394A      4.545169  
     395A      4.573920   396A      4.591662   397A      4.593145  
     398A      4.628324   399A      4.670261   400A      4.692109  
     401A      4.712947   402A      4.719990   403A      4.740265  
     404A      4.743786   405A      4.758867   406A      4.777109  
     407A      4.812285   408A      4.859034   409A      4.864358  
     410A      4.906960   411A      4.908990   412A      4.943447  
     413A      4.954175   414A      4.956617   415A      4.975281  
     416A      4.995092   417A      5.019911   418A      5.058341  
     419A      5.073922   420A      5.103742   421A      5.107128  
     422A      5.128063   423A      5.150099   424A      5.150763  
     425A      5.157245   426A      5.174297   427A      5.191458  
     428A      5.202949   429A      5.239452   430A      5.265590  
     431A      5.270526   432A      5.282281   433A      5.289277  
     434A      5.325566   435A      5.334926   436A      5.337955  
     437A      5.374550   438A      5.401267   439A      5.423050  
     440A      5.439196   441A      5.475034   442A      5.548806  
     443A      5.555842   444A      5.620300   445A      5.685028  
     446A      5.713835   447A      5.759947   448A      5.770485  
     449A      5.821223   450A      5.868594   451A      5.917326  
     452A      5.981709   453A      5.982116   454A      6.013528  
     455A      6.081999   456A      6.092644   457A      6.152351  
     458A      6.207959   459A      6.215899   460A      6.261711  
     461A      6.274540   462A      6.357223   463A      6.402074  
     464A      6.446414   465A      6.509828   466A      6.683909  
     467A      6.716602   468A      6.779756   469A      6.877376  
     470A      6.905507   471A      6.948791   472A      7.119758  
     473A      7.164347   474A      7.301687   475A      7.416605  
     476A      7.794640   477A     15.953024   478A     16.114520  
     479A     17.188585   480A     18.356106   481A     19.454211  
     482A     19.537230   483A     19.713280  

    Final Occupation by Irrep:
              A 
    DOCC [    25 ]

  @DF-RHF Final Energy:  -285.83455465724057

   => Energetics <=

    Nuclear Repulsion Energy =            271.2266397431959604
    One-Electron Energy =                -923.3210389322003948
    Two-Electron Energy =                 366.2598445317638607
    Total Energy =                       -285.8345546572405738

Computation Completed

*** tstop() called on node44.bme.utexas.edu at Thu Nov  4 20:10:40 2021
Module time:
	user time   =      52.61 seconds =       0.88 minutes
	system time =       1.13 seconds =       0.02 minutes
	total time  =         54 seconds =       0.90 minutes
Total time:
	user time   =      52.61 seconds =       0.88 minutes
	system time =       1.13 seconds =       0.02 minutes
	total time  =         54 seconds =       0.90 minutes
   => Loading Basis Set <=

    Name: (AUG-CC-PVTZ AUX)
    Role: RIFIT
    Keyword: DF_BASIS_MP2
    atoms 1, 3-7 entry C          line   148 file /home/bdw2292/miniconda3/envs/amoebamdpoltype/share/psi4/basis/aug-cc-pvtz-ri.gbs 
    atoms 2      entry N          line   206 file /home/bdw2292/miniconda3/envs/amoebamdpoltype/share/psi4/basis/aug-cc-pvtz-ri.gbs 
    atoms 8-14   entry H          line    30 file /home/bdw2292/miniconda3/envs/amoebamdpoltype/share/psi4/basis/aug-cc-pvtz-ri.gbs 


*** tstart() called on node44.bme.utexas.edu
*** at Thu Nov  4 20:10:40 2021


  //>>>>>>>>>>>>>>>>>>>>>>>>>>>>>>>>>>>//
  //               DFMP2               //
  //<<<<<<<<<<<<<<<<<<<<<<<<<<<<<<<<<<<//

	 --------------------------------------------------------
	                          DF-MP2                         
	      2nd-Order Density-Fitted Moller-Plesset Theory     
	              RMP2 Wavefunction,   1 Threads             
	                                                         
	        Rob Parrish, Justin Turney, Andy Simmonett,      
	           Ed Hohenstein, and C. David Sherrill          
	 --------------------------------------------------------

   => Auxiliary Basis Set <=

  Basis Set: (AUG-CC-PVTZ AUX)
    Blend: AUG-CC-PVTZ-RI
    Number of shells: 294
    Number of basis function: 1064
    Number of Cartesian functions: 1337
    Spherical Harmonics?: true
    Max angular momentum: 4

	 --------------------------------------------------------
	                 NBF =   483, NAUX =  1064
	 --------------------------------------------------------
	   CLASS    FOCC     OCC    AOCC    AVIR     VIR    FVIR
	   PAIRS       7      25      18     458     458       0
	 --------------------------------------------------------

  DFHelper Memory: AOs need 1.839 GiB; user supplied 5.821 GiB. Using in-core AOs.


         ------------------------------------------------------------
                                     CPHF                           
                                  Rob Parrish                       
         ------------------------------------------------------------

  ==> Geometry <==

    Molecular point group: c1
    Full point group: C1

    Geometry (in Angstrom), charge = 0, multiplicity = 1:

       Center              X                  Y                   Z               Mass       
    ------------   -----------------  -----------------  -----------------  -----------------
         C            0.939754357210     0.035457818794    -0.053446943695    12.000000000000
         N            2.332789557650     0.105632020069    -0.222252249022    14.003074004430
         C            0.196697151823     1.192322939331     0.214150412477    12.000000000000
         C            0.259792343251    -1.173773313112    -0.247001332546    12.000000000000
         C           -1.191050878766     1.132799961887     0.312696917773    12.000000000000
         C           -1.128153853046    -1.226891184529    -0.147305655516    12.000000000000
         C           -1.864163149868    -0.074795027932     0.128665175415    12.000000000000
         H            2.804813121311    -0.768703477382    -0.015734765949     1.007825032230
         H            0.713315611659     2.140186263720     0.354248809433     1.007825032230
         H            0.825735891946    -2.077115623473    -0.467568555886     1.007825032230
         H           -1.748939861063     2.041002021735     0.527533301631     1.007825032230
         H           -1.636492865113    -2.176686474303    -0.294626160786     1.007825032230
         H            2.761487108306     0.860330512892     0.303723132257     1.007825032230
         H           -2.946705884419    -0.118859252323     0.206729087873     1.007825032230

  Nuclear repulsion =  271.226639743195960
  Reference energy  = -285.834554657240574

  ==> Basis Set <==

  Basis Set: AUG-CC-PVTZ
    Blend: AUG-CC-PVTZ
    Number of shells: 161
    Number of basis function: 483
    Number of Cartesian functions: 560
    Spherical Harmonics?: true
    Max angular momentum: 3

  ==> CGRSolver (by Rob Parrish) <==

   Number of roots    =         1
   Preconditioning    =    JACOBI
   Convergence cutoff =     1E-06
   Maximum iterations =       100

  ==> CPHFRHamiltonian (by Rob Parrish) <== 

  ==> MemDFJK: Density-Fitted J/K Matrices <==

    J tasked:                   Yes
    K tasked:                   Yes
    wK tasked:                   No
    OpenMP threads:               1
    Memory [MiB]:              5960
    Algorithm:                 Core
    Schwarz Cutoff:           1E-12
    Mask sparsity (%):       2.3482
    Fitting Condition:        1E-10

   => Auxiliary Basis Set <=

  Basis Set: (AUG-CC-PVTZ AUX)
    Blend: AUG-CC-PVTZ-JKFIT
    Number of shells: 308
    Number of basis function: 1050
    Number of Cartesian functions: 1302
    Spherical Harmonics?: true
    Max angular momentum: 4

  ==> CPHF Iterations <==

  => Iterations <=

             Iter  Converged  Remaining    Residual
  CGR           1          0          1   9.548E-02
  CGR           2          0          1   3.011E-02
  CGR           3          0          1   1.759E-02
  CGR           4          0          1   6.973E-03
  CGR           5          0          1   2.936E-03
  CGR           6          0          1   1.057E-03
  CGR           7          0          1   3.328E-04
  CGR           8          0          1   7.124E-05
  CGR           9          0          1   2.259E-05
  CGR          10          0          1   7.099E-06
  CGR          11          0          1   1.945E-06
  CGR          12          1          0   5.456E-07

    CGRSolver converged.

	-----------------------------------------------------------
	 ==================> DF-MP2 Energies <==================== 
	-----------------------------------------------------------
	 Reference Energy          =    -285.8345546572405738 [Eh]
	 Singles Energy            =      -0.0000000000000000 [Eh]
	 Same-Spin Energy          =      -0.2969317695819235 [Eh]
	 Opposite-Spin Energy      =      -0.8839099862643186 [Eh]
	 Correlation Energy        =      -1.1808417558462421 [Eh]
	 Total Energy              =    -287.0153964130868189 [Eh]
	-----------------------------------------------------------
	 ================> DF-SCS-MP2 Energies <================== 
	-----------------------------------------------------------
	 SCS Same-Spin Scale       =       0.3333333333333333 [-]
	 SCS Opposite-Spin Scale   =       1.2000000000000000 [-]
	 SCS Same-Spin Energy      =      -0.0989772565273078 [Eh]
	 SCS Opposite-Spin Energy  =      -1.0606919835171822 [Eh]
	 SCS Correlation Energy    =      -1.1596692400444901 [Eh]
	 SCS Total Energy          =    -286.9942238972850532 [Eh]
	-----------------------------------------------------------



Properties will be evaluated at  -0.000000,  -0.000000,  -0.000000 [a0]

Properties computed using the MP2 density matrix

  Nuclear Dipole Moment: [e a0]
     X:     0.7181      Y:    -0.0939      Z:     0.5765

  Electronic Dipole Moment: [e a0]
     X:    -0.3066      Y:     0.0290      Z:    -0.1893

  Dipole Moment: [e a0]
     X:     0.4115      Y:    -0.0649      Z:     0.3872     Total:     0.5687

  Dipole Moment: [D]
     X:     1.0459      Y:    -0.1650      Z:     0.9842     Total:     1.4456


*** tstop() called on node44.bme.utexas.edu at Thu Nov  4 20:13:56 2021
Module time:
	user time   =     191.78 seconds =       3.20 minutes
	system time =       4.22 seconds =       0.07 minutes
	total time  =        196 seconds =       3.27 minutes
Total time:
	user time   =     244.53 seconds =       4.08 minutes
	system time =       5.36 seconds =       0.09 minutes
	total time  =        250 seconds =       4.17 minutes
  ==> One Electron Grid Properties (v2.0) <==

  ==> CubicScalarGrid <==

    Filepath     = .
    Total Points =           401472
    XYZ Blocking =               10
    X Points     =               96
    Y Points     =               82
    Z Points     =               51
    X Spacing    =        2.000E-01
    Y Spacing    =        2.000E-01
    Z Spacing    =        2.000E-01
    X Minimum    =       -9.634E+00
    Y Minimum    =       -8.134E+00
    Z Minimum    =       -4.943E+00
    X Maximum    =        9.366E+00
    Y Maximum    =        8.066E+00
    Z Maximum    =        5.057E+00

  Basis Set: AUG-CC-PVTZ
    Blend: AUG-CC-PVTZ
    Number of shells: 161
    Number of basis function: 483
    Number of Cartesian functions: 560
    Spherical Harmonics?: true
    Max angular momentum: 3



Properties will be evaluated at  -0.000000,  -0.000000,  -0.000000 [a0]
OEProp: No title given, name of density matrix used for the following properties is 'DF-MP2 relaxed density'
  Mulliken Charges: (a.u.)
   Center  Symbol    Alpha    Beta     Spin     Total
       1     C     2.34300  2.34300  0.00000  1.31399
       2     N     3.87788  3.87788  0.00000 -0.75576
       3     C     3.43360  3.43360  0.00000 -0.86720
       4     C     3.43338  3.43338  0.00000 -0.86677
       5     C     3.19515  3.19515  0.00000 -0.39030
       6     C     3.19506  3.19506  0.00000 -0.39012
       7     C     3.23681  3.23681  0.00000 -0.47362
       8     H     0.45697  0.45697  0.00000  0.08606
       9     H     0.24115  0.24115  0.00000  0.51769
      10     H     0.24137  0.24137  0.00000  0.51727
      11     H     0.32090  0.32090  0.00000  0.35819
      12     H     0.32083  0.32083  0.00000  0.35834
      13     H     0.45697  0.45697  0.00000  0.08607
      14     H     0.24692  0.24692  0.00000  0.50616

   Total alpha = 25.00000, Total beta = 25.00000, Total charge =  0.00000



  Wiberg Bond Indices using Orthogonal Lowdin Orbitals:

  Irrep: 1 Size: 14 x 14

                 1                   2                   3                   4                   5

    1     0.00000000000000     1.40076879073921     1.24315835395669     1.24317466229166     0.40702070952968
    2     1.40076879073921     0.00000000000000     0.32520679915381     0.32516324428861     0.05555322218786
    3     1.24315835395669     0.32520679915381     0.00000000000000     0.37644411119545     1.33292007325797
    4     1.24317466229166     0.32516324428861     0.37644411119545     0.00000000000000     0.19988742737093
    5     0.40702070952968     0.05555322218786     1.33292007325797     0.19988742737093     0.00000000000000
    6     0.40701725674357     0.05554905039436     0.19988810625008     1.33288028888595     0.41946476886551
    7     0.19456839408122     0.02802571712500     0.41005185541783     0.41005124496380     1.33416652521073
    8     0.35026634302179     1.12143833361286     0.05081665625823     0.08692303779920     0.00677819967164
    9     0.30192892484533     0.06669933117725     0.82903597364018     0.04991035126944     0.31170169026832
   10     0.30193332029043     0.06668510331857     0.04990934725001     0.82903884269986     0.02173291838207
   11     0.05371251237636     0.00455384379152     0.31764841333462     0.02213328664983     0.84881504680423
   12     0.05371157790679     0.00455346821228     0.02213396405502     0.31764006800895     0.05458056918602
   13     0.35023461247188     1.12137750661109     0.08688763950701     0.05081394233563     0.01174256654049
   14     0.02111099566036     0.00510647673131     0.05333705684715     0.05333775192862     0.31547148932635

                 6                   7                   8                   9                  10

    1     0.40701725674357     0.19456839408122     0.35026634302179     0.30192892484533     0.30193332029043
    2     0.05554905039436     0.02802571712500     1.12143833361286     0.06669933117725     0.06668510331857
    3     0.19988810625008     0.41005185541783     0.05081665625823     0.82903597364018     0.04990934725001
    4     1.33288028888595     0.41005124496380     0.08692303779920     0.04991035126944     0.82903884269986
    5     0.41946476886551     1.33416652521073     0.00677819967164     0.31170169026832     0.02173291838207
    6     0.00000000000000     1.33420165948633     0.01174902820448     0.02173322995938     0.31169838206908
    7     1.33420165948633     0.00000000000000     0.00462707954874     0.05320919300596     0.05320934153502
    8     0.01174902820448     0.00462707954874     0.00000000000000     0.00744958355579     0.03073004645589
    9     0.02173322995938     0.05320919300596     0.00744958355579     0.00000000000000     0.00380076189850
   10     0.31169838206908     0.05320934153502     0.03073004645589     0.00380076189850     0.00000000000000
   11     0.05457962185910     0.31372937397031     0.00092750768621     0.06154205900106     0.00290837337147
   12     0.84881674381720     0.31373690100285     0.00112454071837     0.00290849736727     0.06154351293115
   13     0.00677897922911     0.00462754216039     0.33490333507765     0.03069938574203     0.00745163104364
   14     0.31547782258642     0.85341128699574     0.00095078193081     0.00394449757071     0.00394450017834

                11                  12                  13                  14

    1     0.05371251237636     0.05371157790679     0.35023461247188     0.02111099566036
    2     0.00455384379152     0.00455346821228     1.12137750661109     0.00510647673131
    3     0.31764841333462     0.02213396405502     0.08688763950701     0.05333705684715
    4     0.02213328664983     0.31764006800895     0.05081394233563     0.05333775192862
    5     0.84881504680423     0.05458056918602     0.01174256654049     0.31547148932635
    6     0.05457962185910     0.84881674381720     0.00677897922911     0.31547782258642
    7     0.31372937397031     0.31373690100285     0.00462754216039     0.85341128699574
    8     0.00092750768621     0.00112454071837     0.33490333507765     0.00095078193081
    9     0.06154205900106     0.00290849736727     0.03069938574203     0.00394449757071
   10     0.00290837337147     0.06154351293115     0.00745163104364     0.00394450017834
   11     0.00000000000000     0.00410774838409     0.00112382260434     0.06012982283964
   12     0.00410774838409     0.00000000000000     0.00092723135216     0.06012975656948
   13     0.00112382260434     0.00092723135216     0.00000000000000     0.00095096238081
   14     0.06012982283964     0.06012975656948     0.00095096238081     0.00000000000000



  Atomic Valences: 

 #  #
 Irrep: 1
      1:  6.3286065
      2:  4.5806809
      3:  5.2974384
      4:  5.2973983
      5:  5.3198352
      6:  5.3198349
      7:  5.3076161
      8:  2.0086845
      9:  1.7445635
     10:  1.7445861
     11:  1.7459114
     12:  1.7459146
     13:  2.0085192
     14:  1.7473032


 Electrostatic potential computed on the grid and written to grid_esp.dat

    Psi4 stopped on: Thursday, 04 November 2021 08:23PM
    Psi4 wall time for execution: 0:13:58.50

*** Psi4 exiting successfully. Buy a developer a beer!
