Generated by Psi4
        SP                        DF-MP2                      6-311G**
Number of atoms                            I                6
Charge                                     I                0
Multiplicity                               I                1
Number of electrons                        I               18
Number of alpha electrons                  I                9
Number of beta electrons                   I                9
Number of basis functions                  I               60
Number of independent functions            I               60
Atomic numbers                             I   N=           6
           8           6           1           1           1           1
Nuclear charges                            R   N=           6
  8.00000000e+00  6.00000000e+00  1.00000000e+00  1.00000000e+00  1.00000000e+00
  1.00000000e+00
Current cartesian coordinates              R   N=          18
  1.30439482e+00  3.98309776e-02  1.34567080e-02 -1.36605561e+00  5.50965763e-02
  1.86698341e-02 -2.16877567e+00 -1.34801190e+00  1.32543584e+00 -2.16883989e+00
 -2.66141287e-01 -1.87159617e+00 -1.94797087e+00  1.93119487e+00  6.53555642e-01
  1.84928422e+00 -1.60521370e+00 -5.43261550e-01
Integer atomic weights                     I   N=           6
          15          12           1           1           1           1
Real atomic weights                        R   N=           6
  1.59949146e+01  1.20000000e+01  1.00782503e+00  1.00782503e+00  1.00782503e+00
  1.00782503e+00
Number of primitive shells                 I               58
Number of contracted shells                I               32
Pure/Cartesian d shells                    I                0
Pure/Cartesian f shells                    I                0
Highest angular momentum                   I                2
Largest degree of contraction              I                6
Shell types                                I   N=          32
           0           0           1           0           1           0
           1          -2           0           0           1           0
           1           0           1          -2           0           0
           0           1           0           0           0           1
           0           0           0           1           0           0
           0           1
Number of primitives per shell             I   N=          32
           6           3           3           1           1           1
           1           1           6           3           3           1
           1           1           1           1           3           1
           1           1           3           1           1           1
           3           1           1           1           3           1
           1           1
Shell to atom map                          I   N=          32
           1           1           1           1           1           1
           1           1           2           2           2           2
           2           2           2           2           3           3
           3           3           4           4           4           4
           5           5           5           5           6           6
           6           6
Primitive exponents                        R   N=          58
  8.58850000e+03  1.29723000e+03  2.99296000e+02  8.73771000e+01  2.56789000e+01
  3.74004000e+00  4.21175000e+01  9.62837000e+00  2.85332000e+00  4.21175000e+01
  9.62837000e+00  2.85332000e+00  9.05661000e-01  9.05661000e-01  2.55611000e-01
  2.55611000e-01  1.29200000e+00  4.56324000e+03  6.82024000e+02  1.54973000e+02
  4.44553000e+01  1.30290000e+01  1.82773000e+00  2.09642000e+01  4.80331000e+00
  1.45933000e+00  2.09642000e+01  4.80331000e+00  1.45933000e+00  4.83456000e-01
  4.83456000e-01  1.45585000e-01  1.45585000e-01  6.26000000e-01  3.38650000e+01
  5.09479000e+00  1.15879000e+00  3.25840000e-01  1.02741000e-01  7.50000000e-01
  3.38650000e+01  5.09479000e+00  1.15879000e+00  3.25840000e-01  1.02741000e-01
  7.50000000e-01  3.38650000e+01  5.09479000e+00  1.15879000e+00  3.25840000e-01
  1.02741000e-01  7.50000000e-01  3.38650000e+01  5.09479000e+00  1.15879000e+00
  3.25840000e-01  1.02741000e-01  7.50000000e-01
Contraction coefficients                   R   N=          58
  1.89515008e-03  1.43859006e-02  7.07320031e-02  2.40001011e-01  5.94797026e-01
  2.80802012e-01  1.13889012e-01  9.20811101e-01 -3.27447036e-03  3.65113974e-02
  2.37152983e-01  8.19701941e-01  1.00000000e+00  1.00000000e+00  1.00000000e+00
  1.00000000e+00  1.00000000e+00  1.96665025e-03  1.52306019e-02  7.61269097e-02
  2.60801033e-01  6.16462078e-01  2.21006028e-01  1.14660081e-01  9.19999648e-01
 -3.03068213e-03  4.02486927e-02  2.37593957e-01  8.15853851e-01  1.00000000e+00
  1.00000000e+00  1.00000000e+00  1.00000000e+00  1.00000000e+00  2.54938145e-02
  1.90373109e-01  8.52161486e-01  1.00000000e+00  1.00000000e+00  1.00000000e+00
  2.54938145e-02  1.90373109e-01  8.52161486e-01  1.00000000e+00  1.00000000e+00
  1.00000000e+00  2.54938145e-02  1.90373109e-01  8.52161486e-01  1.00000000e+00
  1.00000000e+00  1.00000000e+00  2.54938145e-02  1.90373109e-01  8.52161486e-01
  1.00000000e+00  1.00000000e+00  1.00000000e+00
Coordinates of each shell                  R   N=          96
  1.30439482e+00  3.98309776e-02  1.34567080e-02  1.30439482e+00  3.98309776e-02
  1.34567080e-02  1.30439482e+00  3.98309776e-02  1.34567080e-02  1.30439482e+00
  3.98309776e-02  1.34567080e-02  1.30439482e+00  3.98309776e-02  1.34567080e-02
  1.30439482e+00  3.98309776e-02  1.34567080e-02  1.30439482e+00  3.98309776e-02
  1.34567080e-02  1.30439482e+00  3.98309776e-02  1.34567080e-02 -1.36605561e+00
  5.50965763e-02  1.86698341e-02 -1.36605561e+00  5.50965763e-02  1.86698341e-02
 -1.36605561e+00  5.50965763e-02  1.86698341e-02 -1.36605561e+00  5.50965763e-02
  1.86698341e-02 -1.36605561e+00  5.50965763e-02  1.86698341e-02 -1.36605561e+00
  5.50965763e-02  1.86698341e-02 -1.36605561e+00  5.50965763e-02  1.86698341e-02
 -1.36605561e+00  5.50965763e-02  1.86698341e-02 -2.16877567e+00 -1.34801190e+00
  1.32543584e+00 -2.16877567e+00 -1.34801190e+00  1.32543584e+00 -2.16877567e+00
 -1.34801190e+00  1.32543584e+00 -2.16877567e+00 -1.34801190e+00  1.32543584e+00
 -2.16883989e+00 -2.66141287e-01 -1.87159617e+00 -2.16883989e+00 -2.66141287e-01
 -1.87159617e+00 -2.16883989e+00 -2.66141287e-01 -1.87159617e+00 -2.16883989e+00
 -2.66141287e-01 -1.87159617e+00 -1.94797087e+00  1.93119487e+00  6.53555642e-01
 -1.94797087e+00  1.93119487e+00  6.53555642e-01 -1.94797087e+00  1.93119487e+00
  6.53555642e-01 -1.94797087e+00  1.93119487e+00  6.53555642e-01  1.84928422e+00
 -1.60521370e+00 -5.43261550e-01  1.84928422e+00 -1.60521370e+00 -5.43261550e-01
  1.84928422e+00 -1.60521370e+00 -5.43261550e-01  1.84928422e+00 -1.60521370e+00
 -5.43261550e-01
Total Energy                               R     -1.154362539137811e+02
Alpha Orbital Energies                     R   N=          60
 -2.05457414e+01 -1.12709073e+01 -1.35349482e+00 -9.20968220e-01 -6.86961469e-01
 -6.16167763e-01 -5.89531518e-01 -4.98425177e-01 -4.45780242e-01  1.53613616e-01
  1.87654978e-01  2.25629036e-01  2.31631897e-01  3.44085116e-01  4.54612783e-01
  4.79304930e-01  5.81128154e-01  6.85227468e-01  7.25013830e-01  7.82905820e-01
  7.96700785e-01  8.99307989e-01  1.02314249e+00  1.05255629e+00  1.11332578e+00
  1.31357255e+00  1.38833281e+00  1.59528044e+00  1.61924581e+00  1.71273285e+00
  1.71475518e+00  1.74002345e+00  1.74280528e+00  1.87263516e+00  1.93601901e+00
  2.04070948e+00  2.25901585e+00  2.29760808e+00  2.39325076e+00  2.47596197e+00
  2.60892505e+00  2.64593258e+00  2.70745366e+00  2.79485243e+00  2.81212430e+00
  2.89962749e+00  3.09492864e+00  3.31979162e+00  3.47201534e+00  3.60113120e+00
  3.68409958e+00  4.06094941e+00  4.15605098e+00  4.30368989e+00  4.37100948e+00
  5.40815140e+00  5.79385380e+00  6.20575076e+00  2.50110620e+01  5.15787823e+01
Alpha MO coefficients                      R   N=        3600
  5.51460565e-01  4.71675134e-01 -1.04196179e-03 -1.36370189e-03 -4.61478648e-04
  5.56423657e-03  3.72610186e-04  5.24114032e-04  1.77361373e-04 -8.03371563e-04
  1.51262691e-04 -1.29936521e-04 -4.39751192e-05  1.44451718e-04  1.75838758e-05
 -6.84660673e-05 -7.10570151e-05  5.19420037e-05 -2.75206073e-06 -3.18727616e-05
  2.56740000e-05  1.31205418e-05  4.43952772e-06  8.76295103e-05  2.60965812e-04
 -4.89994933e-05 -1.65860738e-05  5.14879806e-04  2.07534658e-04  1.28109433e-04
  4.33504222e-05 -5.85492706e-05 -1.09507912e-05 -7.56022606e-06  1.21193682e-04
 -3.23473312e-05  9.44813672e-06 -5.06687849e-05 -4.00979809e-07 -2.49779607e-05
 -3.05558783e-06 -2.00856950e-05  9.44808289e-06 -5.06666579e-05 -4.01060237e-07
 -2.49773946e-05 -1.46249568e-05  1.41037519e-05  2.92834944e-05 -1.23165351e-04
 -4.73208184e-05 -1.68675541e-07 -1.48395035e-05 -5.02185195e-06  2.04339058e-04
  1.10976405e-04  6.22868211e-05 -7.95660687e-05  7.11382795e-05  2.40757763e-05
 -6.94073715e-05 -1.24660728e-04 -1.02999549e-04 -6.97982836e-06 -2.36024325e-06
  2.85218979e-04 -5.39769938e-04  1.61352779e-05  5.47020562e-06  3.57338951e-04
 -1.54634774e-04 -1.35269159e-05 -4.57545661e-06 -1.05227264e-04  7.40107363e-06
 -6.74875336e-06  1.99916717e-04  2.18893851e-05  5.63476060e-01  4.66568353e-01
  9.28801796e-04 -1.03821854e-04 -3.51589382e-05  3.98209062e-03 -7.19123749e-04
  8.78236581e-05  2.97526795e-05 -1.20401077e-03  1.29654144e-04 -4.36065054e-05
 -1.47620314e-05  1.10083783e-04 -2.31796121e-07  2.03400545e-05 -2.43916716e-04
 -6.85534555e-07  3.38213583e-04  1.09991071e-04  2.39872405e-04  3.96483666e-05
 -6.10715177e-06  2.37166516e-06  3.38210147e-04  1.10012274e-04  2.39860274e-04
  3.96520879e-05 -3.40869628e-06 -5.58490525e-06  3.35667745e-04  7.90097588e-05
  2.73362985e-04  3.10470461e-05  2.18652618e-05  7.39751030e-06 -1.38275071e-05
  1.61377573e-05 -2.54795168e-05 -1.44479304e-05  3.79970842e-05  1.28590303e-05
  1.09700366e-01  1.83277610e-01  2.20268220e-02  2.45982097e-02  8.32401717e-03
 -5.20521325e-01  4.03273307e-02  4.23607908e-02  1.43348205e-02 -3.94102915e-01
  3.03144216e-02  1.43686135e-02  4.86199062e-03  6.66088894e-03  4.93764039e-04
 -3.76589962e-03 -1.68348667e-03  1.45827727e-03  3.73000741e-02  6.10055664e-02
 -4.03355061e-02  1.87885753e-03  6.36461693e-04 -1.52801721e-01 -8.00695738e-02
  4.73120993e-03  1.60260483e-03 -4.05164286e-03  4.49680499e-03  4.35310937e-03
  1.47313640e-03  1.42918067e-02  9.75903908e-04 -3.73975212e-04 -2.37758158e-02
  2.88132258e-03 -1.44259488e-02 -2.93676267e-02  1.04649432e-03 -4.41728872e-03
 -5.53194739e-03  4.98918380e-03 -1.44256913e-02 -2.93672249e-02  1.04650938e-03
 -4.41749326e-03 -1.36543635e-03 -7.32302845e-03 -1.48197936e-02 -3.12909199e-02
 -1.18053063e-03 -2.98439931e-03  7.45475157e-03  2.52274112e-03 -8.72395242e-02
 -7.33933704e-02  6.62831642e-04  1.05386172e-02 -2.27620444e-02 -7.70321858e-03
  3.16796470e-02  5.32605516e-02 -7.87477648e-02  3.46385283e-02  1.17237344e-02
 -1.54350977e-01 -1.25583682e-01  5.61404966e-02  1.90012438e-02 -1.48966748e-01
 -7.03777345e-02  2.25784566e-02  7.64226303e-03 -2.27251167e-03  1.47049097e-03
 -3.33284345e-03  1.26563287e-02  4.34610663e-03 -9.45065183e-02 -1.57143653e-01
 -3.02123738e-02  7.13354556e-03  2.41544116e-03  4.10198449e-01 -2.70036040e-02
  1.01708105e-02  3.44329002e-03  2.47720232e-01 -2.53345036e-02 -5.10934491e-03
 -1.72832021e-03 -1.18508002e-04  6.90266590e-04  7.42769077e-04 -1.73864879e-03
  2.03984426e-03  8.26234556e-02  1.15614337e-01  3.98511766e-03  6.19596761e-03
  1.41757020e-02 -1.24739116e-02  8.26219680e-02  1.15612745e-01  3.98518285e-03
  6.19648840e-03  3.68772383e-03  1.85185053e-02  8.65874192e-02  1.25048157e-01
  7.60394539e-03  3.63596886e-03 -1.92582851e-02 -6.51706141e-03 -7.02305040e-02
 -8.44797838e-02 -1.34906709e-02  8.29123733e-04 -1.58571684e-02 -5.36632053e-03
  2.13462407e-02  3.63494818e-02  8.04975267e-02 -1.65233076e-01 -5.59181416e-02
 -1.11669559e-01  1.27999770e-01 -2.54235393e-01 -8.60383239e-02 -1.61991068e-01
  7.36642544e-02 -1.72022996e-01 -5.82157082e-02 -2.43304959e-03  6.56197005e-04
  8.50542326e-03 -1.80407771e-02  1.93867683e-03 -1.13859948e-02 -1.84024712e-02
 -8.54909704e-02 -7.98784674e-02 -2.70291276e-02  4.34406277e-02 -1.46777880e-01
 -1.33507180e-01 -4.51760338e-02  6.03045887e-02 -5.88717850e-02 -8.18517935e-02
 -2.76976904e-02  2.15097350e-02 -2.66047352e-03 -6.95136404e-03 -1.90662110e-02
 -7.86433504e-03  6.62746071e-02  8.98786901e-02  2.42008219e-02 -4.84944511e-04
  2.97036722e-03 -7.68251316e-03  6.62741217e-02  8.98784497e-02  2.42009174e-02
 -4.84585657e-04 -2.30531143e-03  7.90759508e-03 -2.96566620e-02 -3.47797033e-02
 -1.16255552e-02 -2.70884665e-03  1.26840449e-03  4.29288774e-04  1.34308044e-01
  2.05366869e-01  4.00679830e-02 -1.14814535e-02  2.45913517e-02  8.32237854e-03
 -3.03613782e-07 -5.15920436e-07  2.95865824e-06 -5.01878402e-02  1.48307402e-01
  1.55369816e-06  4.56272332e-06 -7.81416493e-02  2.30911982e-01  2.41701315e-06
  4.15497640e-06 -6.80728970e-02  2.01157665e-01 -3.80332166e-03 -1.17713424e-02
 -5.74629694e-03 -2.19623356e-03  3.98340962e-03  2.68357258e-07  4.59459795e-07
  2.81177510e-06 -5.17304698e-02  1.52861351e-01 -1.18441022e-06  4.58577205e-06
 -8.39572395e-02  2.48090688e-01 -1.85125368e-06  2.89713164e-06 -4.83054812e-02
  1.42741559e-01 -1.18902687e-02 -3.90656413e-04 -1.79636907e-02 -6.86487400e-03
  1.31915709e-04  1.07933136e-01  1.61918575e-01  6.48736691e-02  5.46637205e-03
  9.87291949e-03 -4.38786136e-03 -1.07932065e-01 -1.61917759e-01 -6.48734295e-02
 -5.46671533e-03 -5.17971364e-03 -9.48147111e-03 -1.80271154e-06 -2.78715182e-06
 -8.50732792e-07  8.86717330e-08 -2.81260336e-03  8.31211735e-03 -8.82572297e-07
 -1.58333830e-06 -2.57166597e-07  4.70027604e-07 -5.24119457e-03  1.54869764e-02
  1.48690486e-02  2.51853244e-02 -1.82270562e-01 -4.90153772e-02 -1.65838574e-02
 -7.60205774e-02 -2.82099979e-01 -7.48650432e-02 -2.53297580e-02 -1.12124740e-01
 -2.30889668e-01 -7.06496718e-02 -2.39042087e-02 -6.72905814e-03  5.12866034e-03
  4.49556592e-05  1.15365124e-02  1.51562223e-02 -5.87997387e-04 -1.81859270e-03
  1.17728466e-01 -1.05946896e-01 -3.58558384e-02  8.04795166e-03  2.09073632e-01
 -1.73961845e-01 -5.88746446e-02 -2.00279258e-02  9.40553417e-02 -1.27798425e-01
 -4.32501525e-02 -9.66697435e-03 -3.35590909e-04 -9.32851383e-03  4.11539076e-02
 -9.89184624e-04  2.82078441e-03  3.71010306e-03  5.69912756e-04  5.12523767e-03
 -2.90586935e-03 -2.99638794e-03  2.82234246e-03  3.71234466e-03  5.71029850e-04
  5.12535448e-03 -4.12816335e-03  6.15949589e-04 -1.22919835e-01 -1.69293115e-01
 -6.21710148e-02  1.79530760e-03  9.74182775e-03  3.29655911e-03 -2.80836298e-02
 -3.30242501e-02 -4.09517790e-02 -1.81505248e-02 -8.81604440e-03 -2.98312419e-03
  2.48889091e-02  4.23128426e-02 -8.90121695e-02 -1.52991635e-01 -5.17717534e-02
 -1.28048578e-01 -1.32158231e-01 -2.27282689e-01 -7.69115130e-02 -2.17013138e-01
 -1.52479747e-01 -2.10985936e-01 -7.13959941e-02 -8.03597133e-03  4.25761741e-04
  6.91486573e-03 -4.17461520e-03  1.25887120e-03 -4.56477075e-03 -7.91874598e-03
  4.84707624e-02  1.29217308e-01  4.37280597e-02  2.48235927e-02  8.78407513e-02
  1.99753650e-01  6.75980271e-02 -1.75815165e-02  1.89062936e-02  1.10345112e-01
  3.73423789e-02 -1.95559783e-02 -9.85877341e-03  1.30536692e-02 -2.84073715e-04
 -2.91305798e-02 -7.23933416e-02 -1.22606999e-01 -6.44149173e-02 -8.85802474e-04
  1.49199673e-03  1.10245963e-02 -7.23959875e-02 -1.22612105e-01 -6.44174249e-02
 -8.86327563e-04  7.87997360e-03 -7.85329866e-03  1.16586936e-01  2.22564572e-01
  8.22742071e-02  8.22002306e-03 -1.39157736e-02 -4.70914123e-03  8.41943118e-02
  1.59062043e-01  3.51699335e-02 -1.84914823e-02  1.21810344e-02  4.12276366e-03
 -3.32300515e-08 -5.74405530e-08  4.50170876e-06 -7.92973893e-02  2.34320944e-01
  1.99718569e-07  6.75558730e-06 -1.19043048e-01  3.51767971e-01  2.35497411e-08
  7.56265922e-06 -1.32436040e-01  3.91343935e-01 -5.49293839e-03 -4.10164858e-03
 -8.29818365e-03 -3.17150966e-03  1.38786325e-03 -5.29478471e-09 -2.53464399e-08
 -1.99875862e-06  3.37142654e-02 -9.96247133e-02  6.68914962e-08 -3.29898271e-06
  5.20785566e-02 -1.53891422e-01  1.52177740e-06 -1.66688330e-06  2.64609839e-02
 -7.81924482e-02  7.46424216e-03  3.66751068e-02  1.12786439e-02  4.31066866e-03
 -1.24110118e-02 -9.41091616e-02 -1.91081407e-01 -8.47538806e-02 -6.10924400e-03
 -9.36129889e-03  4.08759624e-03  9.41084893e-02  1.91079827e-01  8.47539742e-02
  6.10934065e-03  4.95553195e-03  8.93201875e-03  1.20263126e-06  2.28126749e-06
  1.12767159e-06 -1.00653092e-07  2.64973112e-03 -7.83064221e-03 -1.50734664e-07
 -9.74321257e-08 -1.21209537e-08  4.44498865e-07 -8.25280548e-03  2.43865855e-02
  1.96178303e-02  3.26871686e-02 -2.92768357e-02  4.96718212e-02  1.68098919e-02
 -8.23227236e-02 -2.08474510e-02  6.77754598e-02  2.29362128e-02 -3.54253241e-01
 -2.03484455e-01  1.38687393e-01  4.69364140e-02  2.06515699e-04 -6.10135294e-04
 -8.21499453e-04  1.79198703e-03 -1.80270991e-03  2.99242324e-02  4.75950137e-02
  6.13169339e-02  1.60591165e-02  5.43445603e-03 -1.76519855e-02  6.47324340e-02
  1.06339588e-02  3.59833669e-03 -1.67984649e+00  2.49206261e-01  1.32040302e-01
  4.46836596e-02  4.75413786e-03  2.36341257e-03 -9.32943703e-04 -5.79298214e-03
  6.98260744e-03  3.60347267e-03  1.19233965e-02  7.86088931e-01  6.55650911e-03
 -2.33313021e-03 -3.56963643e-04  3.60395870e-03  1.19214249e-02  7.86099670e-01
  6.55638973e-03 -2.07053408e-03 -1.13364575e-03  2.15112886e-03  4.64709367e-02
  4.33590117e-01  8.45668186e-03 -5.46974747e-03 -1.85102700e-03  3.13700976e-02
 -1.00067107e-01  9.31091753e-01  7.90057844e-03 -1.04493136e-02 -3.53640340e-03
  2.30380123e-02  3.80249687e-02  9.03280373e-03  5.88896309e-02  1.99291029e-02
 -7.95520722e-02  3.56540530e-02  8.04840434e-02  2.72365844e-02 -5.70410355e-01
 -1.81613693e-02  1.92656151e-01  6.51983021e-02  1.38664399e-05 -1.41497101e-03
 -1.86110746e-03  4.84590187e-03 -4.18097709e-03 -3.62249522e-02 -5.88537598e-02
 -6.75121693e-03  2.33040311e-02  7.88649469e-03  8.81304447e-02  1.85477048e-02
  1.07224958e-02  3.62770483e-03  1.26382172e+00 -1.55548335e-01  2.53954972e-01
  8.59462013e-02  9.12548013e-04  2.10122675e-03  1.02385374e-03 -4.25975036e-03
  6.20870349e-03 -1.30991829e-02  7.61104964e-02 -5.98057229e-01  7.89983817e-03
 -1.13785600e-03 -4.34252052e-03 -1.30993967e-02  7.61101148e-02 -5.98044811e-01
  7.89994033e-03 -3.54100062e-03  2.75857396e-03 -1.37355278e-02  7.22373807e-02
 -1.05909351e+00  8.20210789e-03 -7.06938514e-03 -2.39250954e-03  3.89418832e-02
 -8.55524054e-02  1.20978460e+00  1.03721338e-02 -1.64825063e-03 -5.57985346e-04
  4.42387236e-07  7.38005202e-07  7.46454452e-07 -5.18378286e-03  1.53217456e-02
 -1.75202607e-06  1.05093483e-06 -3.11322908e-03  9.20389219e-03 -1.00909099e-05
  2.51532322e-06 -3.68542469e-02  1.08921284e-01 -1.61887743e-03  6.50705559e-03
 -2.44537853e-03 -9.34360223e-04 -2.20185340e-03 -1.79233725e-07 -3.83295534e-07
 -2.03345468e-06  4.59287638e-02 -1.35733543e-01  2.32907501e-06 -1.25541920e-06
  2.81341986e-02 -8.31484518e-02 -9.67485759e-06 -1.60902312e-05  3.55308372e-01
 -1.05004380e+00 -1.19866430e-02 -2.01455727e-02 -1.81092142e-02 -6.92158071e-03
  6.81662139e-03  1.39105779e-02 -1.83892573e-01  1.90041277e+00 -1.04075504e-02
 -2.24478277e-02  1.76567967e-02 -1.39123411e-02  1.83895573e-01 -1.90045330e+00
  1.04086592e-02  7.11240628e-03  2.76598785e-02  3.77014806e-07 -2.05921271e-06
  4.80807179e-05 -7.95689996e-08  1.30780590e-03 -3.86299679e-03 -6.48739092e-08
 -3.18225924e-06  1.71912727e-05  2.20693249e-07 -2.28761652e-03  6.75970870e-03
  9.38624182e-03  1.56039978e-02  1.39689432e-02  2.58543430e-02  8.74876492e-03
 -3.52991956e-02  2.33804954e-02  2.92893993e-02  9.91129028e-03 -2.31935169e-01
  4.72207250e-02  1.23159259e-01  4.16743769e-02 -5.71752234e-04  2.17707071e-03
  2.64748800e-04  2.97258911e-04  6.43398143e-03 -4.17565626e-03 -7.05321902e-03
  8.97085748e-03 -1.31092769e-01 -4.43584535e-02  1.49210540e-02  1.92248565e-02
 -7.94878481e-02 -2.68980819e-02  6.96981804e-02  7.81996457e-02 -1.03928213e+00
 -3.51665865e-01 -1.55962183e-02 -5.36936891e-03  1.69871785e-02 -1.74330968e-02
 -1.58683189e-02 -1.27551412e-02  1.03887468e-01 -1.09825438e+00  8.70790804e-03
  8.27321304e-03 -1.36573341e-02 -1.27549090e-02  1.03876231e-01 -1.09815138e+00
  8.70770861e-03 -1.72069785e-03  1.58725302e-02  1.94357668e-02 -1.51011017e-01
  2.12205985e+00 -6.44623522e-03  3.11069628e-02  1.05268592e-02  1.59198476e-03
 -5.25611448e-02  3.02597425e-01  1.13046587e-03 -3.13111854e-03 -1.05976214e-03
  2.46207519e-02  4.03155451e-02  1.28055790e-01 -3.41104753e-02 -1.15457892e-02
 -6.67339170e-02  1.50178400e-01 -2.98434732e-02 -1.01022093e-02 -1.05383384e+00
  8.01574223e-01 -1.38044590e-01 -4.67302823e-02  4.12549153e-03 -6.68862480e-04
 -1.94663768e-03 -2.05195417e-03 -1.97696263e-03 -1.45308184e-02 -2.39495113e-02
  9.52745041e-02  7.13593792e-03  2.41328345e-03  1.74233372e-02  9.46190309e-02
  6.97174662e-03  2.35758952e-03  6.56328537e-01  1.83256552e+00  1.02617101e-01
  3.46917909e-02  8.26942104e-03 -1.01156895e-03  1.61114135e-04 -1.47442612e-02
 -2.99135358e-03  1.21587126e-02  1.98504243e-01  3.38639268e-01  6.09174645e-03
  1.08868663e-03  1.43213349e-03  1.21587980e-02  1.98504374e-01  3.38639281e-01
  6.09177546e-03  1.73462691e-03 -4.77131048e-04  1.45518783e-02  1.75467610e-01
 -1.79000607e-01  5.09487300e-04 -1.21328566e-03 -4.10515072e-04 -1.65972595e-03
  9.17512006e-02 -8.98901625e-01 -6.97603517e-03  1.60376288e-02  5.42740572e-03
  4.85128056e-03  8.82577398e-03 -2.73988775e-02 -4.72552359e-02 -1.59901353e-02
 -5.17859116e-02 -4.72878671e-02 -5.02303082e-02 -1.69965396e-02  1.40302612e-01
  8.70011855e-03 -5.73303443e-01 -1.94006389e-01 -2.54288527e-03 -3.67088653e-03
  4.45751466e-03 -7.25803848e-03 -1.08475338e-02 -1.69415758e-03 -4.08033922e-03
  2.53109961e-03  8.70912636e-03  2.94720887e-03  4.41064110e-02  1.14480630e-02
  6.43144279e-02  2.17620484e-02 -1.25464608e-01 -1.37191552e-02  1.77925912e+00
  6.02088260e-01 -1.68268241e-02 -1.02701298e-02  1.61838120e-02 -1.31986775e-02
 -3.03506206e-02  2.55762745e-02  7.05102106e-01 -5.13018349e-02  2.57487392e-02
  3.40175559e-02 -1.20548665e-02  2.55756514e-02  7.05086575e-01 -5.13134619e-02
  2.57485065e-02  1.97073249e-02  3.02326209e-02 -5.11866171e-02 -1.40138543e+00
  1.60420812e-02 -4.05080149e-02  6.48710726e-02  2.19532398e-02  2.55284849e-02
 -4.61786599e-01  4.65170173e-01  4.19089391e-02 -3.56351562e-02 -1.20607316e-02
 -1.33375212e-07 -2.09797215e-07  2.34614921e-06 -2.39362079e-02  7.07310187e-02
 -7.26166763e-08  3.49914668e-06 -2.93395800e-02  8.66959711e-02  1.00405616e-05
  8.36998477e-06 -1.22899020e-01  3.63155639e-01 -4.78030361e-03  7.48652690e-03
 -7.22125614e-03 -2.75958001e-03 -2.53345356e-03 -4.17938157e-07 -6.21059298e-07
 -5.44485986e-07  1.02425750e-02 -3.02698694e-02  1.79893477e-06 -9.11542749e-07
  2.71521402e-02 -8.02375147e-02 -2.02713169e-05 -2.90177881e-05  5.76829968e-01
 -1.70458979e+00  5.34353818e-03  4.41277885e-02  8.07615509e-03  3.08684195e-03
 -1.49330914e-02  4.91091010e-02  1.20507044e+00  1.86228658e-02  2.73093910e-02
  2.66899685e-02 -4.54929294e-02 -4.91108175e-02 -1.20508090e+00 -1.85989125e-02
 -2.73102521e-02  6.42042334e-03 -5.23496715e-02  2.21443373e-07  8.91424505e-06
 -2.63056783e-06 -6.51129509e-07  8.13884024e-03 -2.40523053e-02 -1.19401670e-06
 -1.54736576e-05  1.87967549e-06  4.99164219e-07 -1.99753398e-03  5.90051648e-03
  1.41515491e-02  2.34118534e-02 -5.56140288e-02  9.77335640e-02  3.30765778e-02
 -1.48311175e-02 -7.91247012e-02  1.67309526e-01  5.66231618e-02 -9.81953006e-01
 -2.61437105e-01  9.48433989e-01  3.20973359e-01  4.33731564e-03 -3.22995151e-03
  2.27137757e-03 -1.34553980e-02 -9.54588947e-03  1.69563477e-02  3.42960448e-02
 -6.07044955e-02  5.02059879e-02  1.69909865e-02 -2.47242237e-01 -1.77701555e-01
  1.59520396e-01  5.39869085e-02  5.55200854e-01  3.54429982e-01 -4.27228661e-01
 -1.44611429e-01 -6.43398257e-03  1.05904016e-02 -2.23481694e-03  1.69912705e-02
  3.12947638e-02  2.84929412e-02  5.07448274e-02 -1.55431944e-01 -3.99563471e-02
  9.88542268e-04  1.17311565e-02  2.84922689e-02  5.07228262e-02 -1.55447936e-01
 -3.99570396e-02  7.90866319e-03 -8.71978824e-03 -4.27549275e-02 -2.46834788e-01
  3.41260568e-01  2.99182404e-02  5.20213766e-03  1.75956142e-03  1.01545978e-01
  2.09380792e+00 -1.02599153e+00 -4.10515645e-02  3.36547406e-02  1.13902753e-02
  3.95909525e-02  7.12342532e-02  1.31613979e-01  3.16781871e-02  1.07179341e-02
 -2.68760064e-01  1.62330889e-01  6.00725481e-02  2.03264901e-02 -1.65766610e-01
  4.45789456e-01  1.65021644e-01  5.58355776e-02 -2.39850912e-02 -3.94468565e-03
  3.96679932e-03  3.11650302e-02 -1.16528736e-02 -6.53579758e-02 -1.27404546e-01
  2.09750064e-01 -9.46030554e-03 -3.20736333e-03  5.07109866e-01  6.75470015e-01
 -3.41007059e-02 -1.15583678e-02  1.32782589e+00 -8.45256167e-01  2.89443543e-02
  9.83250150e-03  2.69651918e-02  3.87633808e-03  3.04793956e-03 -5.46825215e-02
  1.14516006e-02 -2.76336022e-02 -7.19760303e-01  6.18501875e-02  2.44088587e-02
 -4.87116255e-03  1.25360417e-03 -2.76346335e-02 -7.19758174e-01  6.18806078e-02
  2.44091143e-02 -3.10800197e-03 -3.95338041e-03 -3.32047061e-02 -7.22643830e-01
 -1.23599137e-03  4.09123253e-02  2.50166299e-03  8.45386405e-04  1.56233988e-02
  5.97368823e-01 -4.21211968e-01  5.06881831e-02 -7.80652429e-03 -2.64254448e-03
  6.81787440e-03  1.13359764e-02 -1.49374551e-02 -2.43777396e-02 -8.25004714e-03
 -2.26333388e-02 -4.46516097e-02 -5.57548223e-02 -1.88682823e-02 -6.29103425e-01
  3.26749148e-01 -9.36984226e-02 -3.17210454e-02  1.53641143e-02  3.99858980e-03
 -3.60422462e-03 -1.71808829e-02  1.18121754e-02 -3.11399061e-02 -5.69416925e-02
 -1.68287915e-01 -2.93967951e-02 -9.95137596e-03  1.35750461e-02 -6.68634955e-01
 -1.29401257e-01 -4.37984079e-02  2.08528250e+00  6.97798939e-01  3.28447440e-01
  1.11199825e-01 -1.84147913e-02 -1.17333380e-02  6.81836922e-03  1.40501500e-02
 -3.46614213e-02 -5.32940260e-02 -1.14694881e+00  4.52629432e-01 -2.66925241e-02
  1.35848915e-02 -1.21024102e-02 -5.32969248e-02 -1.14694477e+00  4.52714004e-01
 -2.66888362e-02  3.44520019e-03  1.78704982e-02 -2.49614572e-02 -1.01555849e+00
 -1.54511341e-01 -4.69213415e-02  1.59554725e-03  5.40034060e-04 -7.26223680e-03
 -1.96662677e-01 -2.55540305e-01 -6.84762159e-02 -1.48260596e-02 -5.01588070e-03
  4.07824016e-07  7.21823827e-07  1.38937342e-06  1.17446516e-04 -3.53048007e-04
 -2.56262853e-06  1.30036281e-06 -1.34326224e-04  3.82940461e-04 -1.33186631e-05
  1.81902034e-05 -4.93576549e-02  1.45847788e-01 -1.02096219e-03 -1.96857936e-02
 -1.54408302e-03 -5.90296426e-04  6.66180182e-03 -1.33481813e-06 -2.52833036e-06
  2.46342270e-06 -8.17787365e-02  2.41677567e-01  3.17186963e-06  6.20641243e-06
 -3.30063346e-01  9.75416277e-01  7.69988684e-05 -2.60105213e-05  5.97749206e-01
 -1.76649373e+00  2.26899136e-02  6.80309410e-02  3.42798567e-02  1.31021586e-02
 -2.30209788e-02 -5.19032529e-02 -3.92259940e-01  1.48450557e+00  4.05988960e-02
  4.41326954e-02 -1.67119228e-02  5.19015552e-02  3.92180938e-01 -1.48451419e+00
 -4.06019380e-02 -2.49141443e-02 -4.00787680e-02 -1.87154121e-06 -4.48378953e-05
  2.93784261e-05  4.06177882e-07 -1.21276680e-02  3.58335535e-02 -6.68425816e-07
 -1.79993578e-05 -4.67142750e-06 -1.84605715e-06  5.14106962e-03 -1.51915417e-02
  5.48205677e-03  1.01273331e-02 -2.37577950e-02  5.03977589e-02  1.70558614e-02
 -4.12166691e-02 -4.32473169e-02  1.09972051e-01  3.72173111e-02 -1.07293456e-01
 -7.28304581e-02  9.46420541e-03  3.20950083e-03 -2.71024091e-03  3.18108232e-03
  4.40998421e-03 -6.84509218e-03  9.40213912e-03  1.67644219e-02  3.30887385e-02
  4.21653779e-03 -2.36485156e-01 -8.00209804e-02 -1.75805437e-01  3.73508546e-02
 -9.44062755e-01 -3.19446730e-01  6.32942849e-02  6.05919075e-03  1.63332916e+00
  5.52673078e-01 -3.83775579e-02 -1.16138625e-02  3.66524887e-02 -2.94302602e-02
 -3.43222083e-02 -1.38626796e-02 -6.56027462e-02  7.06949623e-01  1.06524808e-02
 -1.51764927e-02 -3.38615349e-02 -1.38605377e-02 -6.55821747e-02  7.06873274e-01
  1.06520753e-02 -3.26209011e-02  1.76857511e-02  6.31954840e-02  6.28254529e-01
 -1.74731891e+00 -3.30522537e-02  6.46710572e-02  2.18862647e-02  1.49494181e-02
  5.37436594e-01 -1.62429341e-01  2.05653797e-03 -2.15806266e-02 -7.30436684e-03
  1.49052120e-02  2.63863980e-02 -1.23494688e-02 -3.21699263e-02 -1.08866005e-02
 -7.56447210e-02 -8.06505436e-02 -8.19807491e-02 -2.77421915e-02 -7.41749705e-01
  6.92495576e-01  5.50562173e-02  1.86184846e-02  1.85857197e-02  4.10017861e-03
 -6.25306957e-03 -1.58305801e-02  1.21129205e-02  9.66078241e-02  2.06892599e-01
  7.65148975e-02  1.97292648e-02  6.67379117e-03 -1.84023094e+00  2.11883131e-01
  5.79351343e-02  1.96019540e-02  5.64421003e+00 -4.64538743e-01 -1.03742691e-02
 -3.48762940e-03  3.15555104e-02 -9.97062684e-03 -1.46516968e-03 -5.08247896e-02
 -2.94638331e-02  2.14882290e-02 -6.73521638e-01 -9.11654470e-01 -5.82225467e-02
 -1.06245563e-01  1.11333466e-01  2.14880149e-02 -6.73518768e-01 -9.11626357e-01
 -5.82266014e-02 -1.68037053e-02 -1.52969145e-01  2.63785794e-02 -7.62505043e-01
 -8.46935392e-01 -4.46413880e-02  1.45394785e-01  4.92020907e-02 -2.22671460e-02
 -1.17641666e-01 -9.19108853e-02 -1.07544186e-01 -2.86993957e-03 -9.69018589e-04
  1.66311866e-02  2.92785783e-02 -9.56751752e-02 -1.69962758e-01 -5.75123736e-02
 -4.98541489e-02 -3.95723252e-01 -5.45196770e-01 -1.84482203e-01 -7.47331248e-01
  7.51343252e-01  1.25712339e+00  4.25396902e-01 -5.22813747e-03  4.66482968e-03
 -1.43456493e-03  1.28074482e-02  1.37856225e-02 -1.00845016e-02 -2.91137362e-02
 -2.16278069e-02  6.33598854e-03  2.14433446e-03  3.11531195e-01  2.53509959e-01
 -1.60942880e-01 -5.44677988e-02 -8.09058658e-02  2.13342897e-01 -2.25944703e-01
 -7.64661256e-02 -1.23615549e-01  1.82360814e-02  4.37177209e-02  9.97124168e-02