
    -----------------------------------------------------------------------
          Psi4: An Open-Source Ab Initio Electronic Structure Package
                               Psi4 1.3.2 release

                         Git: Rev {HEAD} ecbda83 


    R. M. Parrish, L. A. Burns, D. G. A. Smith, A. C. Simmonett,
    A. E. DePrince III, E. G. Hohenstein, U. Bozkaya, A. Yu. Sokolov,
    R. Di Remigio, R. M. Richard, J. F. Gonthier, A. M. James,
    H. R. McAlexander, A. Kumar, M. Saitow, X. Wang, B. P. Pritchard,
    P. Verma, H. F. Schaefer III, K. Patkowski, R. A. King, E. F. Valeev,
    F. A. Evangelista, J. M. Turney, T. D. Crawford, and C. D. Sherrill,
    J. Chem. Theory Comput. 13(7) pp 3185--3197 (2017).
    (doi: 10.1021/acs.jctc.7b00174)


                         Additional Contributions by
    P. Kraus, H. Kruse, M. H. Lechner, M. C. Schieber, R. A. Shaw,
    A. Alenaizan, R. Galvelis, Z. L. Glick, S. Lehtola, and J. P. Misiewicz

    -----------------------------------------------------------------------


    Psi4 started on: Thursday, 04 November 2021 03:32PM

    Process ID: 52357
    Host:       node44.bme.utexas.edu
    PSIDATADIR: /home/bdw2292/miniconda3/envs/amoebamdpoltype/share/psi4
    Memory:     500.0 MiB
    Threads:    1
    
  ==> Input File <==

--------------------------------------------------------------------------
molecule { 
0 1
N 1.235489985856 -0.229429200806 0.102647550597
C -0.170674601785 -0.049776360061 0.126445491015
C -2.976051427231 0.251626594427 0.104607538361
C -2.141329692291 1.366455176747 0.041288238716
C -2.400871163543 -1.011787474029 0.201299480752
C -0.756847261882 1.226372187502 0.052431067046
C -1.015480716914 -1.167256923866 0.201350706965
C 2.085705041709 0.723147433111 -0.425377442585
C 1.792113191857 -1.568904842563 0.255915116150
H -2.567051172427 2.365218623112 -0.011318252703
H -3.030046053683 -1.895964841507 0.264753817646
H -0.150802232590 2.124555922998 0.072543276932
H -0.605337270733 -2.167565063156 0.268918129165
O 3.296364898554 0.578224917732 -0.561033398387
H 2.871841218898 -1.476380608250 0.162840647094
H 1.424457452391 -2.235356450440 -0.529784238135
H 1.533062341898 -1.979879930022 1.233717697094
H -4.055794263938 0.369392926699 0.100673517806
H 1.578659732072 1.646949576245 -0.728094923954
}
memory 8.333333333333334GB
set_num_threads(1)
psi4_io.set_default_path("/scratch/bdw2292/Psi4-3_Index_0-farH_in17")
set maxiter 500
set freeze_core True
set PROPERTIES_ORIGIN ["COM"]
set cubeprop_tasks ['esp']
E, wfn = properties('mp2/aug-cc-pVTZ',properties=['dipole'],return_wfn=True)
cubeprop(wfn)
fchk(wfn, "3_Index_0-esp.fchk")
oeprop(wfn,"GRID_ESP","WIBERG_LOWDIN_INDICES","MULLIKEN_CHARGES")
clean()
--------------------------------------------------------------------------

  Memory set to   7.761 GiB by Python driver.
  Threads set to 1 by Python driver.
    SCF Algorithm Type (re)set to DF.

*** tstart() called on node44.bme.utexas.edu
*** at Thu Nov  4 15:32:21 2021

   => Loading Basis Set <=

    Name: AUG-CC-PVTZ
    Role: ORBITAL
    Keyword: BASIS
    atoms 1            entry N          line   281 file /home/bdw2292/miniconda3/envs/amoebamdpoltype/share/psi4/basis/aug-cc-pvtz.gbs 
    atoms 2-9          entry C          line   235 file /home/bdw2292/miniconda3/envs/amoebamdpoltype/share/psi4/basis/aug-cc-pvtz.gbs 
    atoms 10-13, 15-19 entry H          line    36 file /home/bdw2292/miniconda3/envs/amoebamdpoltype/share/psi4/basis/aug-cc-pvtz.gbs 
    atoms 14           entry O          line   327 file /home/bdw2292/miniconda3/envs/amoebamdpoltype/share/psi4/basis/aug-cc-pvtz.gbs 


         ---------------------------------------------------------
                                   SCF
               by Justin Turney, Rob Parrish, Andy Simmonett
                          and Daniel G. A. Smith
                              RHF Reference
                        1 Threads,   7947 MiB Core
         ---------------------------------------------------------

  ==> Geometry <==

    Molecular point group: c1
    Full point group: C1

    Geometry (in Angstrom), charge = 0, multiplicity = 1:

       Center              X                  Y                   Z               Mass       
    ------------   -----------------  -----------------  -----------------  -----------------
         N            1.235489985856    -0.229429200806     0.102647550597    14.003074004430
         C           -0.170674601785    -0.049776360061     0.126445491015    12.000000000000
         C           -2.976051427231     0.251626594427     0.104607538361    12.000000000000
         C           -2.141329692291     1.366455176747     0.041288238716    12.000000000000
         C           -2.400871163543    -1.011787474029     0.201299480752    12.000000000000
         C           -0.756847261882     1.226372187502     0.052431067046    12.000000000000
         C           -1.015480716914    -1.167256923866     0.201350706965    12.000000000000
         C            2.085705041709     0.723147433111    -0.425377442585    12.000000000000
         C            1.792113191857    -1.568904842563     0.255915116150    12.000000000000
         H           -2.567051172427     2.365218623112    -0.011318252703     1.007825032230
         H           -3.030046053683    -1.895964841507     0.264753817646     1.007825032230
         H           -0.150802232590     2.124555922998     0.072543276932     1.007825032230
         H           -0.605337270733    -2.167565063156     0.268918129165     1.007825032230
         O            3.296364898554     0.578224917732    -0.561033398387    15.994914619570
         H            2.871841218898    -1.476380608250     0.162840647094     1.007825032230
         H            1.424457452391    -2.235356450440    -0.529784238135     1.007825032230
         H            1.533062341898    -1.979879930022     1.233717697094     1.007825032230
         H           -4.055794263938     0.369392926699     0.100673517806     1.007825032230
         H            1.578659732072     1.646949576245    -0.728094923954     1.007825032230

  Running in c1 symmetry.

  Rotational constants: A =      0.11067  B =      0.02844  C =      0.02291 [cm^-1]
  Rotational constants: A =   3317.84367  B =    852.52608  C =    686.78035 [MHz]
  Nuclear repulsion =  490.647752045905065

  Charge       = 0
  Multiplicity = 1
  Electrons    = 72
  Nalpha       = 36
  Nbeta        = 36

  ==> Algorithm <==

  SCF Algorithm Type is DF.
  DIIS enabled.
  MOM disabled.
  Fractional occupation disabled.
  Guess Type is SAD.
  Energy threshold   = 1.00e-10
  Density threshold  = 1.00e-10
  Integral threshold = 0.00e+00

  ==> Primary Basis <==

  Basis Set: AUG-CC-PVTZ
    Blend: AUG-CC-PVTZ
    Number of shells: 221
    Number of basis function: 667
    Number of Cartesian functions: 775
    Spherical Harmonics?: true
    Max angular momentum: 3

   => Loading Basis Set <=

    Name: (AUG-CC-PVTZ AUX)
    Role: JKFIT
    Keyword: DF_BASIS_SCF
    atoms 1            entry N          line   224 file /home/bdw2292/miniconda3/envs/amoebamdpoltype/share/psi4/basis/aug-cc-pvtz-jkfit.gbs 
    atoms 2-9          entry C          line   162 file /home/bdw2292/miniconda3/envs/amoebamdpoltype/share/psi4/basis/aug-cc-pvtz-jkfit.gbs 
    atoms 10-13, 15-19 entry H          line    70 file /home/bdw2292/miniconda3/envs/amoebamdpoltype/share/psi4/basis/aug-cc-pvtz-jkfit.gbs 
    atoms 14           entry O          line   286 file /home/bdw2292/miniconda3/envs/amoebamdpoltype/share/psi4/basis/aug-cc-pvtz-jkfit.gbs 

  ==> Pre-Iterations <==

   -------------------------------------------------------
    Irrep   Nso     Nmo     Nalpha   Nbeta   Ndocc  Nsocc
   -------------------------------------------------------
     A        667     667       0       0       0       0
   -------------------------------------------------------
    Total     667     667      36      36      36       0
   -------------------------------------------------------

  ==> Integral Setup <==

  DFHelper Memory: AOs need 4.644 GiB; user supplied 5.821 GiB. Using in-core AOs.

  ==> MemDFJK: Density-Fitted J/K Matrices <==

    J tasked:                   Yes
    K tasked:                   Yes
    wK tasked:                   No
    OpenMP threads:               1
    Memory [MiB]:              5960
    Algorithm:                 Disk
    Schwarz Cutoff:           1E-12
    Mask sparsity (%):       5.8985
    Fitting Condition:        1E-10

   => Auxiliary Basis Set <=

  Basis Set: (AUG-CC-PVTZ AUX)
    Blend: AUG-CC-PVTZ-JKFIT
    Number of shells: 426
    Number of basis function: 1454
    Number of Cartesian functions: 1805
    Spherical Harmonics?: true
    Max angular momentum: 4

  Minimum eigenvalue in the overlap matrix is 5.2872521191E-07.
  Using Symmetric Orthogonalization.

  SCF Guess: Superposition of Atomic Densities via on-the-fly atomic UHF.

  ==> Iterations <==

                           Total Energy        Delta E     RMS |[F,P]|

   @DF-RHF iter SAD:  -437.02559534323609   -4.37026e+02   0.00000e+00 
   @DF-RHF iter   1:  -437.36289869355090   -3.37303e-01   1.07944e-03 DIIS
   @DF-RHF iter   2:  -437.57337301910070   -2.10474e-01   6.34667e-04 DIIS
   @DF-RHF iter   3:  -437.64299606715372   -6.96230e-02   1.40853e-04 DIIS
   @DF-RHF iter   4:  -437.64755438765172   -4.55832e-03   6.05822e-05 DIIS
   @DF-RHF iter   5:  -437.64841936648054   -8.64979e-04   9.98740e-06 DIIS
   @DF-RHF iter   6:  -437.64847382151515   -5.44550e-05   5.06318e-06 DIIS
   @DF-RHF iter   7:  -437.64848717086500   -1.33493e-05   2.18652e-06 DIIS
   @DF-RHF iter   8:  -437.64849025749413   -3.08663e-06   9.08563e-07 DIIS
   @DF-RHF iter   9:  -437.64849088154051   -6.24046e-07   3.41017e-07 DIIS
   @DF-RHF iter  10:  -437.64849096924388   -8.77034e-08   1.26471e-07 DIIS
   @DF-RHF iter  11:  -437.64849098486530   -1.56214e-08   5.01906e-08 DIIS
   @DF-RHF iter  12:  -437.64849098740495   -2.53965e-09   2.46551e-08 DIIS
   @DF-RHF iter  13:  -437.64849098793650   -5.31543e-10   1.01228e-08 DIIS
   @DF-RHF iter  14:  -437.64849098805507   -1.18575e-10   3.91691e-09 DIIS
   @DF-RHF iter  15:  -437.64849098806212   -7.04858e-12   1.69291e-09 DIIS
   @DF-RHF iter  16:  -437.64849098807406   -1.19371e-11   5.70088e-10 DIIS
   @DF-RHF iter  17:  -437.64849098805183    2.22258e-11   2.43416e-10 DIIS
   @DF-RHF iter  18:  -437.64849098806638   -1.45519e-11   7.28326e-11 DIIS
  Energy and wave function converged.


  ==> Post-Iterations <==

    Orbital Energies [Eh]
    ---------------------

    Doubly Occupied:                                                      

       1A    -20.538214     2A    -15.614072     3A    -11.360669  
       4A    -11.303817     5A    -11.264930     6A    -11.252685  
       7A    -11.251993     8A    -11.247817     9A    -11.245409  
      10A    -11.240340    11A     -1.388531    12A     -1.275400  
      13A     -1.155438    14A     -1.033870    15A     -1.025658  
      16A     -0.969154    17A     -0.871076    18A     -0.835823  
      19A     -0.785927    20A     -0.752689    21A     -0.686724  
      22A     -0.667271    23A     -0.648179    24A     -0.638186  
      25A     -0.618014    26A     -0.606301    27A     -0.591526  
      28A     -0.553573    29A     -0.543692    30A     -0.526768  
      31A     -0.520269    32A     -0.508017    33A     -0.440346  
      34A     -0.433259    35A     -0.353411    36A     -0.317404  

    Virtual:                                                              

      37A      0.024111    38A      0.029156    39A      0.033960  
      40A      0.043391    41A      0.044718    42A      0.049434  
      43A      0.059874    44A      0.061636    45A      0.077731  
      46A      0.079715    47A      0.088133    48A      0.091801  
      49A      0.095866    50A      0.099326    51A      0.106588  
      52A      0.110334    53A      0.114534    54A      0.121743  
      55A      0.122831    56A      0.124378    57A      0.128038  
      58A      0.131304    59A      0.136300    60A      0.137704  
      61A      0.139022    62A      0.143770    63A      0.149690  
      64A      0.153456    65A      0.156239    66A      0.161530  
      67A      0.169234    68A      0.171563    69A      0.174755  
      70A      0.177508    71A      0.182325    72A      0.189718  
      73A      0.201266    74A      0.211617    75A      0.222404  
      76A      0.234662    77A      0.240179    78A      0.247038  
      79A      0.248498    80A      0.251226    81A      0.262912  
      82A      0.266108    83A      0.269010    84A      0.273706  
      85A      0.277070    86A      0.281607    87A      0.285724  
      88A      0.286876    89A      0.288546    90A      0.294458  
      91A      0.297821    92A      0.308792    93A      0.312868  
      94A      0.316581    95A      0.318009    96A      0.321354  
      97A      0.325859    98A      0.330482    99A      0.340654  
     100A      0.344264   101A      0.348755   102A      0.351269  
     103A      0.360115   104A      0.365081   105A      0.374861  
     106A      0.380079   107A      0.385225   108A      0.389973  
     109A      0.397730   110A      0.407817   111A      0.410087  
     112A      0.412141   113A      0.419027   114A      0.421506  
     115A      0.424283   116A      0.427928   117A      0.437782  
     118A      0.441118   119A      0.446798   120A      0.453495  
     121A      0.455294   122A      0.458413   123A      0.463667  
     124A      0.469655   125A      0.473869   126A      0.480658  
     127A      0.481461   128A      0.485861   129A      0.491691  
     130A      0.500692   131A      0.503910   132A      0.506348  
     133A      0.509745   134A      0.513100   135A      0.513807  
     136A      0.521077   137A      0.523882   138A      0.526049  
     139A      0.529931   140A      0.533562   141A      0.542723  
     142A      0.545242   143A      0.549392   144A      0.563326  
     145A      0.564350   146A      0.569609   147A      0.574973  
     148A      0.581655   149A      0.588960   150A      0.590120  
     151A      0.598881   152A      0.606781   153A      0.612575  
     154A      0.615291   155A      0.628881   156A      0.636016  
     157A      0.649092   158A      0.656258   159A      0.657880  
     160A      0.666280   161A      0.668563   162A      0.672886  
     163A      0.686935   164A      0.694862   165A      0.699767  
     166A      0.701401   167A      0.708591   168A      0.710563  
     169A      0.723890   170A      0.725687   171A      0.739214  
     172A      0.749655   173A      0.758944   174A      0.765416  
     175A      0.766413   176A      0.775502   177A      0.787083  
     178A      0.790355   179A      0.801133   180A      0.809036  
     181A      0.811518   182A      0.817881   183A      0.827828  
     184A      0.841467   185A      0.845250   186A      0.852352  
     187A      0.852980   188A      0.861897   189A      0.865796  
     190A      0.872732   191A      0.876835   192A      0.876929  
     193A      0.884218   194A      0.889139   195A      0.893274  
     196A      0.893904   197A      0.901710   198A      0.910283  
     199A      0.917706   200A      0.922902   201A      0.931566  
     202A      0.934370   203A      0.938788   204A      0.947650  
     205A      0.952113   206A      0.963386   207A      0.964317  
     208A      0.969296   209A      0.973757   210A      0.978014  
     211A      0.984937   212A      0.988974   213A      1.000060  
     214A      1.003909   215A      1.011994   216A      1.019606  
     217A      1.025790   218A      1.033730   219A      1.039080  
     220A      1.043091   221A      1.047567   222A      1.055181  
     223A      1.060755   224A      1.064213   225A      1.065832  
     226A      1.076636   227A      1.078964   228A      1.085027  
     229A      1.087159   230A      1.096552   231A      1.101151  
     232A      1.105168   233A      1.113314   234A      1.121208  
     235A      1.126723   236A      1.136924   237A      1.141781  
     238A      1.143867   239A      1.154293   240A      1.158997  
     241A      1.163101   242A      1.168751   243A      1.172771  
     244A      1.176854   245A      1.191828   246A      1.198141  
     247A      1.202481   248A      1.205179   249A      1.217438  
     250A      1.222605   251A      1.227365   252A      1.236046  
     253A      1.237372   254A      1.244775   255A      1.246007  
     256A      1.257200   257A      1.271064   258A      1.274488  
     259A      1.284562   260A      1.299605   261A      1.300266  
     262A      1.313403   263A      1.318512   264A      1.329368  
     265A      1.336928   266A      1.351453   267A      1.356162  
     268A      1.362977   269A      1.369912   270A      1.377353  
     271A      1.386705   272A      1.394040   273A      1.400956  
     274A      1.413390   275A      1.417609   276A      1.423635  
     277A      1.428973   278A      1.434984   279A      1.454564  
     280A      1.460508   281A      1.470633   282A      1.474899  
     283A      1.487105   284A      1.496427   285A      1.502755  
     286A      1.508450   287A      1.528523   288A      1.530831  
     289A      1.539285   290A      1.545372   291A      1.548645  
     292A      1.556066   293A      1.570355   294A      1.571703  
     295A      1.579729   296A      1.593952   297A      1.599447  
     298A      1.606568   299A      1.611207   300A      1.638857  
     301A      1.642020   302A      1.654550   303A      1.661188  
     304A      1.664654   305A      1.673397   306A      1.684718  
     307A      1.691338   308A      1.698028   309A      1.714803  
     310A      1.719039   311A      1.729768   312A      1.741793  
     313A      1.749133   314A      1.752929   315A      1.760061  
     316A      1.771365   317A      1.776079   318A      1.790585  
     319A      1.794010   320A      1.819951   321A      1.824488  
     322A      1.839738   323A      1.842162   324A      1.847473  
     325A      1.861644   326A      1.864748   327A      1.869618  
     328A      1.877678   329A      1.884240   330A      1.894155  
     331A      1.909106   332A      1.923479   333A      1.926517  
     334A      1.936181   335A      1.948471   336A      1.964114  
     337A      1.970117   338A      1.983944   339A      1.989345  
     340A      1.993615   341A      2.005440   342A      2.011836  
     343A      2.028757   344A      2.033037   345A      2.040177  
     346A      2.057364   347A      2.063719   348A      2.071818  
     349A      2.083083   350A      2.095540   351A      2.096247  
     352A      2.104224   353A      2.112009   354A      2.119341  
     355A      2.128113   356A      2.143963   357A      2.146387  
     358A      2.150974   359A      2.161331   360A      2.174170  
     361A      2.188346   362A      2.209146   363A      2.211339  
     364A      2.232695   365A      2.242006   366A      2.244112  
     367A      2.248258   368A      2.265636   369A      2.281972  
     370A      2.290890   371A      2.305805   372A      2.322761  
     373A      2.333784   374A      2.341295   375A      2.359203  
     376A      2.381543   377A      2.384545   378A      2.399660  
     379A      2.415353   380A      2.423927   381A      2.432561  
     382A      2.444767   383A      2.456581   384A      2.462120  
     385A      2.491529   386A      2.501602   387A      2.510538  
     388A      2.531503   389A      2.540635   390A      2.548605  
     391A      2.571784   392A      2.597753   393A      2.602048  
     394A      2.626461   395A      2.637992   396A      2.639856  
     397A      2.645377   398A      2.667606   399A      2.671610  
     400A      2.688900   401A      2.711567   402A      2.721735  
     403A      2.738128   404A      2.762746   405A      2.781235  
     406A      2.788653   407A      2.825794   408A      2.834162  
     409A      2.859056   410A      2.868031   411A      2.872908  
     412A      2.906739   413A      2.926963   414A      2.929133  
     415A      2.965523   416A      2.979476   417A      2.993584  
     418A      3.010345   419A      3.067682   420A      3.086477  
     421A      3.115940   422A      3.144334   423A      3.180124  
     424A      3.190185   425A      3.229788   426A      3.253774  
     427A      3.263714   428A      3.279423   429A      3.296743  
     430A      3.312302   431A      3.331912   432A      3.350882  
     433A      3.372591   434A      3.386208   435A      3.395223  
     436A      3.411389   437A      3.416822   438A      3.421988  
     439A      3.438900   440A      3.446796   441A      3.466435  
     442A      3.482928   443A      3.495256   444A      3.506554  
     445A      3.516520   446A      3.522343   447A      3.532995  
     448A      3.541922   449A      3.544287   450A      3.559198  
     451A      3.570530   452A      3.592952   453A      3.598186  
     454A      3.612366   455A      3.618540   456A      3.634967  
     457A      3.640601   458A      3.660315   459A      3.663691  
     460A      3.679135   461A      3.690175   462A      3.702614  
     463A      3.711164   464A      3.729735   465A      3.731916  
     466A      3.754843   467A      3.757664   468A      3.767452  
     469A      3.782232   470A      3.799831   471A      3.807126  
     472A      3.822727   473A      3.830769   474A      3.847688  
     475A      3.861064   476A      3.869548   477A      3.878619  
     478A      3.885332   479A      3.893525   480A      3.902982  
     481A      3.919744   482A      3.927436   483A      3.933462  
     484A      3.940002   485A      3.957211   486A      3.971261  
     487A      3.975921   488A      3.990355   489A      3.994679  
     490A      4.006824   491A      4.018786   492A      4.026083  
     493A      4.040512   494A      4.047407   495A      4.064513  
     496A      4.066512   497A      4.078129   498A      4.105167  
     499A      4.113975   500A      4.123884   501A      4.142316  
     502A      4.147726   503A      4.162879   504A      4.174745  
     505A      4.186961   506A      4.200482   507A      4.206528  
     508A      4.215757   509A      4.236351   510A      4.243329  
     511A      4.256272   512A      4.271015   513A      4.275196  
     514A      4.286089   515A      4.298544   516A      4.304153  
     517A      4.315491   518A      4.327428   519A      4.341581  
     520A      4.359369   521A      4.370881   522A      4.371697  
     523A      4.379770   524A      4.390699   525A      4.407531  
     526A      4.415946   527A      4.433495   528A      4.441700  
     529A      4.449426   530A      4.469554   531A      4.477092  
     532A      4.486486   533A      4.498599   534A      4.513217  
     535A      4.521580   536A      4.536544   537A      4.559738  
     538A      4.570316   539A      4.577552   540A      4.598912  
     541A      4.610134   542A      4.630506   543A      4.648100  
     544A      4.665634   545A      4.690990   546A      4.707737  
     547A      4.721232   548A      4.737863   549A      4.746310  
     550A      4.754698   551A      4.788523   552A      4.792396  
     553A      4.819300   554A      4.831353   555A      4.858320  
     556A      4.864691   557A      4.880261   558A      4.886384  
     559A      4.915035   560A      4.925847   561A      4.942544  
     562A      4.955837   563A      4.964674   564A      4.994027  
     565A      5.029180   566A      5.048511   567A      5.071294  
     568A      5.074004   569A      5.088123   570A      5.096906  
     571A      5.112245   572A      5.120986   573A      5.129608  
     574A      5.151745   575A      5.163038   576A      5.168188  
     577A      5.170919   578A      5.202007   579A      5.209479  
     580A      5.227905   581A      5.237966   582A      5.253877  
     583A      5.262330   584A      5.285968   585A      5.304290  
     586A      5.320737   587A      5.328679   588A      5.352569  
     589A      5.367728   590A      5.373234   591A      5.381430  
     592A      5.393984   593A      5.417163   594A      5.455381  
     595A      5.483860   596A      5.515002   597A      5.528355  
     598A      5.556735   599A      5.571431   600A      5.592071  
     601A      5.618983   602A      5.650591   603A      5.673309  
     604A      5.684963   605A      5.710621   606A      5.756167  
     607A      5.781662   608A      5.791593   609A      5.808928  
     610A      5.845383   611A      5.855027   612A      5.871178  
     613A      5.885362   614A      5.903555   615A      5.954866  
     616A      5.983046   617A      6.054303   618A      6.085451  
     619A      6.145316   620A      6.155311   621A      6.169739  
     622A      6.227737   623A      6.243568   624A      6.277883  
     625A      6.306853   626A      6.339213   627A      6.353691  
     628A      6.412529   629A      6.420406   630A      6.464476  
     631A      6.540532   632A      6.595477   633A      6.685401  
     634A      6.734513   635A      6.740990   636A      6.758199  
     637A      6.805677   638A      6.820302   639A      6.890700  
     640A      6.898037   641A      6.914604   642A      6.934486  
     643A      6.967581   644A      7.016442   645A      7.055061  
     646A      7.081514   647A      7.212940   648A      7.223674  
     649A      7.284382   650A      7.382044   651A      7.406152  
     652A      7.420764   653A      7.661935   654A      7.693520  
     655A      7.840163   656A      7.915824   657A      8.001119  
     658A     15.665711   659A     16.210037   660A     16.300359  
     661A     16.907805   662A     18.488482   663A     18.900154  
     664A     19.575149   665A     19.854428   666A     20.210208  
     667A     20.871299  

    Final Occupation by Irrep:
              A 
    DOCC [    36 ]

  @DF-RHF Final Energy:  -437.64849098806638

   => Energetics <=

    Nuclear Repulsion Energy =            490.6477520459050652
    One-Electron Energy =               -1566.4595800467325262
    Two-Electron Energy =                 638.1633370127610760
    Total Energy =                       -437.6484909880664418

Computation Completed

*** tstop() called on node44.bme.utexas.edu at Thu Nov  4 15:36:43 2021
Module time:
	user time   =     225.86 seconds =       3.76 minutes
	system time =      35.87 seconds =       0.60 minutes
	total time  =        262 seconds =       4.37 minutes
Total time:
	user time   =     225.86 seconds =       3.76 minutes
	system time =      35.87 seconds =       0.60 minutes
	total time  =        262 seconds =       4.37 minutes
   => Loading Basis Set <=

    Name: (AUG-CC-PVTZ AUX)
    Role: RIFIT
    Keyword: DF_BASIS_MP2
    atoms 1            entry N          line   206 file /home/bdw2292/miniconda3/envs/amoebamdpoltype/share/psi4/basis/aug-cc-pvtz-ri.gbs 
    atoms 2-9          entry C          line   148 file /home/bdw2292/miniconda3/envs/amoebamdpoltype/share/psi4/basis/aug-cc-pvtz-ri.gbs 
    atoms 10-13, 15-19 entry H          line    30 file /home/bdw2292/miniconda3/envs/amoebamdpoltype/share/psi4/basis/aug-cc-pvtz-ri.gbs 
    atoms 14           entry O          line   264 file /home/bdw2292/miniconda3/envs/amoebamdpoltype/share/psi4/basis/aug-cc-pvtz-ri.gbs 


*** tstart() called on node44.bme.utexas.edu
*** at Thu Nov  4 15:36:43 2021


  //>>>>>>>>>>>>>>>>>>>>>>>>>>>>>>>>>>>//
  //               DFMP2               //
  //<<<<<<<<<<<<<<<<<<<<<<<<<<<<<<<<<<<//

	 --------------------------------------------------------
	                          DF-MP2                         
	      2nd-Order Density-Fitted Moller-Plesset Theory     
	              RMP2 Wavefunction,   1 Threads             
	                                                         
	        Rob Parrish, Justin Turney, Andy Simmonett,      
	           Ed Hohenstein, and C. David Sherrill          
	 --------------------------------------------------------

   => Auxiliary Basis Set <=

  Basis Set: (AUG-CC-PVTZ AUX)
    Blend: AUG-CC-PVTZ-RI
    Number of shells: 406
    Number of basis function: 1474
    Number of Cartesian functions: 1855
    Spherical Harmonics?: true
    Max angular momentum: 4

	 --------------------------------------------------------
	                 NBF =   667, NAUX =  1474
	 --------------------------------------------------------
	   CLASS    FOCC     OCC    AOCC    AVIR     VIR    FVIR
	   PAIRS      10      36      26     631     631       0
	 --------------------------------------------------------

  DFHelper Memory: AOs need 4.644 GiB; user supplied 5.821 GiB. Using in-core AOs.


         ------------------------------------------------------------
                                     CPHF                           
                                  Rob Parrish                       
         ------------------------------------------------------------

  ==> Geometry <==

    Molecular point group: c1
    Full point group: C1

    Geometry (in Angstrom), charge = 0, multiplicity = 1:

       Center              X                  Y                   Z               Mass       
    ------------   -----------------  -----------------  -----------------  -----------------
         N            1.235489985856    -0.229429200806     0.102647550597    14.003074004430
         C           -0.170674601785    -0.049776360061     0.126445491015    12.000000000000
         C           -2.976051427231     0.251626594427     0.104607538361    12.000000000000
         C           -2.141329692291     1.366455176747     0.041288238716    12.000000000000
         C           -2.400871163543    -1.011787474029     0.201299480752    12.000000000000
         C           -0.756847261882     1.226372187502     0.052431067046    12.000000000000
         C           -1.015480716914    -1.167256923866     0.201350706965    12.000000000000
         C            2.085705041709     0.723147433111    -0.425377442585    12.000000000000
         C            1.792113191857    -1.568904842563     0.255915116150    12.000000000000
         H           -2.567051172427     2.365218623112    -0.011318252703     1.007825032230
         H           -3.030046053683    -1.895964841507     0.264753817646     1.007825032230
         H           -0.150802232590     2.124555922998     0.072543276932     1.007825032230
         H           -0.605337270733    -2.167565063156     0.268918129165     1.007825032230
         O            3.296364898554     0.578224917732    -0.561033398387    15.994914619570
         H            2.871841218898    -1.476380608250     0.162840647094     1.007825032230
         H            1.424457452391    -2.235356450440    -0.529784238135     1.007825032230
         H            1.533062341898    -1.979879930022     1.233717697094     1.007825032230
         H           -4.055794263938     0.369392926699     0.100673517806     1.007825032230
         H            1.578659732072     1.646949576245    -0.728094923954     1.007825032230

  Nuclear repulsion =  490.647752045905065
  Reference energy  = -437.648490988066385

  ==> Basis Set <==

  Basis Set: AUG-CC-PVTZ
    Blend: AUG-CC-PVTZ
    Number of shells: 221
    Number of basis function: 667
    Number of Cartesian functions: 775
    Spherical Harmonics?: true
    Max angular momentum: 3

  ==> CGRSolver (by Rob Parrish) <==

   Number of roots    =         1
   Preconditioning    =    JACOBI
   Convergence cutoff =     1E-06
   Maximum iterations =       100

  ==> CPHFRHamiltonian (by Rob Parrish) <== 

  ==> MemDFJK: Density-Fitted J/K Matrices <==

    J tasked:                   Yes
    K tasked:                   Yes
    wK tasked:                   No
    OpenMP threads:               1
    Memory [MiB]:              5960
    Algorithm:                 Disk
    Schwarz Cutoff:           1E-12
    Mask sparsity (%):       5.8985
    Fitting Condition:        1E-10

   => Auxiliary Basis Set <=

  Basis Set: (AUG-CC-PVTZ AUX)
    Blend: AUG-CC-PVTZ-JKFIT
    Number of shells: 426
    Number of basis function: 1454
    Number of Cartesian functions: 1805
    Spherical Harmonics?: true
    Max angular momentum: 4

  ==> CPHF Iterations <==

  => Iterations <=

             Iter  Converged  Remaining    Residual
  CGR           1          0          1   1.235E-01
  CGR           2          0          1   3.933E-02
  CGR           3          0          1   1.997E-02
  CGR           4          0          1   8.150E-03
  CGR           5          0          1   3.903E-03
  CGR           6          0          1   1.927E-03
  CGR           7          0          1   6.078E-04
  CGR           8          0          1   2.020E-04
  CGR           9          0          1   5.907E-05
  CGR          10          0          1   1.774E-05
  CGR          11          0          1   6.429E-06
  CGR          12          0          1   2.400E-06
  CGR          13          0          1   1.200E-06
  CGR          14          1          0   4.884E-07

    CGRSolver converged.

	-----------------------------------------------------------
	 ==================> DF-MP2 Energies <==================== 
	-----------------------------------------------------------
	 Reference Energy          =    -437.6484909880663849 [Eh]
	 Singles Energy            =      -0.0000000000000000 [Eh]
	 Same-Spin Energy          =      -0.4418241864927928 [Eh]
	 Opposite-Spin Energy      =      -1.3046166445486003 [Eh]
	 Correlation Energy        =      -1.7464408310413930 [Eh]
	 Total Energy              =    -439.3949318191077964 [Eh]
	-----------------------------------------------------------
	 ================> DF-SCS-MP2 Energies <================== 
	-----------------------------------------------------------
	 SCS Same-Spin Scale       =       0.3333333333333333 [-]
	 SCS Opposite-Spin Scale   =       1.2000000000000000 [-]
	 SCS Same-Spin Energy      =      -0.1472747288309309 [Eh]
	 SCS Opposite-Spin Energy  =      -1.5655399734583202 [Eh]
	 SCS Correlation Energy    =      -1.7128147022892510 [Eh]
	 SCS Total Energy          =    -439.3613056903556640 [Eh]
	-----------------------------------------------------------



Properties will be evaluated at  -0.000000,   0.000000,  -0.000000 [a0]

Properties computed using the MP2 density matrix

  Nuclear Dipole Moment: [e a0]
     X:    -2.8011      Y:    -3.0424      Z:     0.7791

  Electronic Dipole Moment: [e a0]
     X:     1.6239      Y:     2.6739      Z:    -0.5685

  Dipole Moment: [e a0]
     X:    -1.1772      Y:    -0.3685      Z:     0.2106     Total:     1.2514

  Dipole Moment: [D]
     X:    -2.9922      Y:    -0.9366      Z:     0.5352     Total:     3.1807


*** tstop() called on node44.bme.utexas.edu at Thu Nov  4 15:49:08 2021
Module time:
	user time   =     707.42 seconds =      11.79 minutes
	system time =      37.29 seconds =       0.62 minutes
	total time  =        745 seconds =      12.42 minutes
Total time:
	user time   =     933.45 seconds =      15.56 minutes
	system time =      73.16 seconds =       1.22 minutes
	total time  =       1007 seconds =      16.78 minutes
  ==> One Electron Grid Properties (v2.0) <==

  ==> CubicScalarGrid <==

    Filepath     = .
    Total Points =           566100
    XYZ Blocking =               10
    X Points     =              111
    Y Points     =               85
    Z Points     =               60
    X Spacing    =        2.000E-01
    Y Spacing    =        2.000E-01
    Z Spacing    =        2.000E-01
    X Minimum    =       -1.172E+01
    Y Minimum    =       -8.277E+00
    Z Minimum    =       -5.422E+00
    X Maximum    =        1.028E+01
    Y Maximum    =        8.523E+00
    Z Maximum    =        6.378E+00

  Basis Set: AUG-CC-PVTZ
    Blend: AUG-CC-PVTZ
    Number of shells: 221
    Number of basis function: 667
    Number of Cartesian functions: 775
    Spherical Harmonics?: true
    Max angular momentum: 3



Properties will be evaluated at  -0.000000,   0.000000,  -0.000000 [a0]
OEProp: No title given, name of density matrix used for the following properties is 'DF-MP2 relaxed density'
  Mulliken Charges: (a.u.)
   Center  Symbol    Alpha    Beta     Spin     Total
       1     N     3.44272  3.44272  0.00000  0.11457
       2     C     2.47184  2.47184  0.00000  1.05632
       3     C     3.24544  3.24544  0.00000 -0.49088
       4     C     3.30425  3.30425  0.00000 -0.60851
       5     C     3.34175  3.34175  0.00000 -0.68350
       6     C     3.27873  3.27873  0.00000 -0.55746
       7     C     3.17840  3.17840  0.00000 -0.35679
       8     C     3.13619  3.13619  0.00000 -0.27238
       9     C     3.55927  3.55927  0.00000 -1.11854
      10     H     0.32928  0.32928  0.00000  0.34144
      11     H     0.31027  0.31027  0.00000  0.37945
      12     H     0.28140  0.28140  0.00000  0.43719
      13     H     0.32365  0.32365  0.00000  0.35270
      14     O     4.37111  4.37111  0.00000 -0.74222
      15     H     0.33052  0.33052  0.00000  0.33897
      16     H     0.32790  0.32790  0.00000  0.34420
      17     H     0.32722  0.32722  0.00000  0.34555
      18     H     0.24190  0.24190  0.00000  0.51619
      19     H     0.19814  0.19814  0.00000  0.60371

   Total alpha = 36.00000, Total beta = 36.00000, Total charge =  0.00000



  Wiberg Bond Indices using Orthogonal Lowdin Orbitals:

  Irrep: 1 Size: 19 x 19

                 1                   2                   3                   4                   5

    1     0.00000000000000     1.23032517601860     0.02271907322039     0.04829973300121     0.04892838220351
    2     1.23032517601860     0.00000000000000     0.18990501803394     0.39690789610001     0.39558757159149
    3     0.02271907322039     0.18990501803394     0.00000000000000     1.32612831096751     1.33441074688320
    4     0.04829973300121     0.39690789610001     1.32612831096751     0.00000000000000     0.41968241694969
    5     0.04892838220351     0.39558757159149     1.33441074688320     0.41968241694969     0.00000000000000
    6     0.29454733587083     1.20890851511199     0.40604424769900     1.31877122418420     0.19761239439173
    7     0.29755907165050     1.21438405557327     0.40718500806454     0.19792060444649     1.30878730275489
    8     1.38615603930459     0.34044982153072     0.00709637629561     0.01832687634731     0.00888619242402
    9     1.19371082816491     0.29194724665901     0.00558330989102     0.00739041699015     0.02036720986923
   10     0.00399102704286     0.05309434636832     0.31071153690805     0.84233643029839     0.05422374423266
   11     0.00395356314729     0.05244954845584     0.31296211438712     0.05467154750845     0.84292090723503
   12     0.05742144405906     0.28416701352700     0.05275162146931     0.30829147148202     0.02107818788433
   13     0.05942431018469     0.28563533777226     0.05206460317867     0.02082915107805     0.30396556868742
   14     0.43448954848166     0.05779915059079     0.00305946993102     0.00351700921426     0.00333571885103
   15     0.25273505213706     0.03760033179264     0.00044302188260     0.00092119259086     0.00135996103254
   16     0.23782974061623     0.05531003614473     0.00168521393108     0.00136544681000     0.00863990169622
   17     0.24469430317261     0.05415484445641     0.00135495530320     0.00129228186131     0.00600353186344
   18     0.00381708921318     0.02048514915232     0.84913854782907     0.31261863677923     0.31467630709020
   19     0.28082910756863     0.08964197212123     0.00302378912362     0.01694990399451     0.00222838193699

                 6                   7                   8                   9                  10

    1     0.29454733587083     0.29755907165050     1.38615603930459     1.19371082816491     0.00399102704286
    2     1.20890851511199     1.21438405557327     0.34044982153072     0.29194724665901     0.05309434636832
    3     0.40604424769900     0.40718500806454     0.00709637629561     0.00558330989102     0.31071153690805
    4     1.31877122418420     0.19792060444649     0.01832687634731     0.00739041699015     0.84233643029839
    5     0.19761239439173     1.30878730275489     0.00888619242402     0.02036720986923     0.05422374423266
    6     0.00000000000000     0.37083224794617     0.12061174367548     0.04188834775184     0.31663566771066
    7     0.37083224794617     0.00000000000000     0.04832223830453     0.12793529199202     0.02175997591687
    8     0.12061174367548     0.04832223830453     0.00000000000000     0.34483838080563     0.00189861460655
    9     0.04188834775184     0.12793529199202     0.34483838080563     0.00000000000000     0.00096949602141
   10     0.31663566771066     0.02175997591687     0.00189861460655     0.00096949602141     0.00000000000000
   11     0.02188829726583     0.31408097750804     0.00093187033147     0.00227499996727     0.00404973464917
   12     0.79809700155279     0.04723562133489     0.07355619914292     0.00602241443640     0.06414214553562
   13     0.04700425893426     0.79443172519746     0.00738686929694     0.08595212894519     0.00268021913028
   14     0.01950028277082     0.01060513872663     2.72557291572599     0.14531325557470     0.00024910589502
   15     0.00450942483976     0.01408522998198     0.11476921071572     0.80842004857362     0.00017730495182
   16     0.00536401212308     0.05171944120770     0.04831627639656     0.80703848284398     0.00023558428471
   17     0.00538593149143     0.03996849958305     0.04364194662013     0.81722080251335     0.00022512394375
   18     0.05253449901007     0.05327282185741     0.00140192211676     0.00091966145508     0.05928648694418
   19     0.09268107190247     0.00887853628385     0.81999035152782     0.04467782575532     0.00188573339091

                11                  12                  13                  14                  15

    1     0.00395356314729     0.05742144405906     0.05942431018469     0.43448954848166     0.25273505213706
    2     0.05244954845584     0.28416701352700     0.28563533777226     0.05779915059079     0.03760033179264
    3     0.31296211438712     0.05275162146931     0.05206460317867     0.00305946993102     0.00044302188260
    4     0.05467154750845     0.30829147148202     0.02082915107805     0.00351700921426     0.00092119259086
    5     0.84292090723503     0.02107818788433     0.30396556868742     0.00333571885103     0.00135996103254
    6     0.02188829726583     0.79809700155279     0.04700425893426     0.01950028277082     0.00450942483976
    7     0.31408097750804     0.04723562133489     0.79443172519746     0.01060513872663     0.01408522998198
    8     0.00093187033147     0.07355619914292     0.00738686929694     2.72557291572599     0.11476921071572
    9     0.00227499996727     0.00602241443640     0.08595212894519     0.14531325557470     0.80842004857362
   10     0.00404973464917     0.06414214553562     0.00268021913028     0.00024910589502     0.00017730495182
   11     0.00000000000000     0.00277904124684     0.06276383119253     0.00031362993646     0.00014822481335
   12     0.00277904124684     0.00000000000000     0.00340844407066     0.01423430789451     0.00097080118370
   13     0.06276383119253     0.00340844407066     0.00000000000000     0.00221949696212     0.01162954156948
   14     0.00031362993646     0.01423430789451     0.00221949696212     0.00000000000000     0.13815127757118
   15     0.00014822481335     0.00097080118370     0.01162954156948     0.13815127757118     0.00000000000000
   16     0.00093062755729     0.00082143782404     0.04563357274060     0.01496968896018     0.24515006885786
   17     0.00065367494361     0.00084350876605     0.03295681315687     0.01330638910739     0.24591195963033
   18     0.05974926180023     0.00379296698240     0.00377958693075     0.00083247183164     0.00009514371987
   19     0.00036244726869     0.07546527685127     0.00113061898789     0.39169649547360     0.00921655469156

                16                  17                  18                  19

    1     0.23782974061623     0.24469430317261     0.00381708921318     0.28082910756863
    2     0.05531003614473     0.05415484445641     0.02048514915232     0.08964197212123
    3     0.00168521393108     0.00135495530320     0.84913854782907     0.00302378912362
    4     0.00136544681000     0.00129228186131     0.31261863677923     0.01694990399451
    5     0.00863990169622     0.00600353186344     0.31467630709020     0.00222838193699
    6     0.00536401212308     0.00538593149143     0.05253449901007     0.09268107190247
    7     0.05171944120770     0.03996849958305     0.05327282185741     0.00887853628385
    8     0.04831627639656     0.04364194662013     0.00140192211676     0.81999035152782
    9     0.80703848284398     0.81722080251335     0.00091966145508     0.04467782575532
   10     0.00023558428471     0.00022512394375     0.05928648694418     0.00188573339091
   11     0.00093062755729     0.00065367494361     0.05974926180023     0.00036244726869
   12     0.00082143782404     0.00084350876605     0.00379296698240     0.07546527685127
   13     0.04563357274060     0.03295681315687     0.00377958693075     0.00113061898789
   14     0.01496968896018     0.01330638910739     0.00083247183164     0.39169649547360
   15     0.24515006885786     0.24591195963033     0.00009514371987     0.00921655469156
   16     0.00000000000000     0.24611574336949     0.00033187669583     0.00377824046896
   17     0.24611574336949     0.00000000000000     0.00026516855806     0.00349682012047
   18     0.00033187669583     0.00026516855806     0.00000000000000     0.00053501384174
   19     0.00377824046896     0.00349682012047     0.00053501384174     0.00000000000000



  Atomic Valences: 

 #  #
 Irrep: 1
      1:  6.1014308
      2:  6.2587530
      3:  5.2862670
      4:  5.2962206
      5:  5.2926944
      6:  5.3228165
      7:  5.3289638
      8:  6.1121538
      9:  4.7524701
     10:  1.7385523
     11:  1.7378843
     12:  1.8150789
     13:  1.8228961
     14:  3.9791654
     15:  1.8862944
     16:  1.7752354
     17:  1.7574923
     18:  1.7375326
     19:  1.8464681


 Electrostatic potential computed on the grid and written to grid_esp.dat

    Psi4 stopped on: Thursday, 04 November 2021 04:11PM
    Psi4 wall time for execution: 0:39:04.08

*** Psi4 exiting successfully. Buy a developer a beer!
