Generated by Psi4
        SP                        DF-MP2                   AUG-CC-PVTZ
Number of atoms                            I                8
Charge                                     I                0
Multiplicity                               I                1
Number of electrons                        I               32
Number of alpha electrons                  I               16
Number of beta electrons                   I               16
Number of basis functions                  I              276
Number of independent functions            I              276
Atomic numbers                             I   N=           8
           1           6           8           6           1           1
           8           1
Nuclear charges                            R   N=           8
  1.00000000e+00  6.00000000e+00  8.00000000e+00  6.00000000e+00  1.00000000e+00
  1.00000000e+00  8.00000000e+00  1.00000000e+00
Current cartesian coordinates              R   N=          24
 -3.35132334e+00 -3.08327363e-01 -8.26568745e-01 -2.57921647e+00  4.31500509e-01
  9.34861284e-01 -1.77888329e-01  1.63884341e+00  4.81647750e-01  1.59140882e+00
  9.08189421e-02 -4.84906225e-01 -2.36063490e+00 -1.11126693e+00  2.28330206e+00
 -3.78573385e+00  1.90768698e+00  1.70042725e+00  1.30654251e+00 -2.13445059e+00
 -9.69821303e-01  3.34678770e+00  1.15838461e+00 -7.67029827e-01
Integer atomic weights                     I   N=           8
           1          12          16          12           1           1
          16           1
Real atomic weights                        R   N=           8
  1.00782503e+00  1.20000000e+01  1.59949146e+01  1.20000000e+01  1.00782503e+00
  1.00782503e+00  1.59949146e+01  1.00782503e+00
Number of primitive shells                 I              164
Number of contracted shells                I               92
Pure/Cartesian d shells                    I                0
Pure/Cartesian f shells                    I                0
Highest angular momentum                   I                3
Largest degree of contraction              I                8
Shell types                                I   N=          92
           0           0           0           1           1          -2
           0           1          -2           0           0           0
           0           1           1           1          -2          -2
          -3           0           1          -2          -3           0
           0           0           0           1           1           1
          -2          -2          -3           0           1          -2
          -3           0           0           0           0           1
           1           1          -2          -2          -3           0
           1          -2          -3           0           0           0
           1           1          -2           0           1          -2
           0           0           0           1           1          -2
           0           1          -2           0           0           0
           0           1           1           1          -2          -2
          -3           0           1          -2          -3           0
           0           0           1           1          -2           0
           1          -2
Number of primitives per shell             I   N=          92
           3           1           1           1           1           1
           1           1           1           8           8           1
           1           3           1           1           1           1
           1           1           1           1           1           8
           8           1           1           3           1           1
           1           1           1           1           1           1
           1           8           8           1           1           3
           1           1           1           1           1           1
           1           1           1           3           1           1
           1           1           1           1           1           1
           3           1           1           1           1           1
           1           1           1           8           8           1
           1           3           1           1           1           1
           1           1           1           1           1           3
           1           1           1           1           1           1
           1           1
Shell to atom map                          I   N=          92
           1           1           1           1           1           1
           1           1           1           2           2           2
           2           2           2           2           2           2
           2           2           2           2           2           3
           3           3           3           3           3           3
           3           3           3           3           3           3
           3           4           4           4           4           4
           4           4           4           4           4           4
           4           4           4           5           5           5
           5           5           5           5           5           5
           6           6           6           6           6           6
           6           6           6           7           7           7
           7           7           7           7           7           7
           7           7           7           7           7           8
           8           8           8           8           8           8
           8           8
Primitive exponents                        R   N=         164
  3.38700000e+01  5.09500000e+00  1.15900000e+00  3.25800000e-01  1.02700000e-01
  1.40700000e+00  3.88000000e-01  1.05700000e+00  2.52600000e-02  1.02000000e-01
  2.47000000e-01  8.23600000e+03  1.23500000e+03  2.80800000e+02  7.92700000e+01
  2.55900000e+01  8.99700000e+00  3.31900000e+00  3.64300000e-01  8.23600000e+03
  1.23500000e+03  2.80800000e+02  7.92700000e+01  2.55900000e+01  8.99700000e+00
  3.31900000e+00  3.64300000e-01  9.05900000e-01  1.28500000e-01  1.87100000e+01
  4.13300000e+00  1.20000000e+00  3.82700000e-01  1.20900000e-01  1.09700000e+00
  3.18000000e-01  7.61000000e-01  4.40200000e-02  3.56900000e-02  1.00000000e-01
  2.68000000e-01  1.53300000e+04  2.29900000e+03  5.22400000e+02  1.47300000e+02
  4.75500000e+01  1.67600000e+01  6.20700000e+00  6.88200000e-01  1.53300000e+04
  2.29900000e+03  5.22400000e+02  1.47300000e+02  4.75500000e+01  1.67600000e+01
  6.20700000e+00  6.88200000e-01  1.75200000e+00  2.38400000e-01  3.44600000e+01
  7.74900000e+00  2.28000000e+00  7.15600000e-01  2.14000000e-01  2.31400000e+00
  6.45000000e-01  1.42800000e+00  7.37600000e-02  5.97400000e-02  2.14000000e-01
  5.00000000e-01  8.23600000e+03  1.23500000e+03  2.80800000e+02  7.92700000e+01
  2.55900000e+01  8.99700000e+00  3.31900000e+00  3.64300000e-01  8.23600000e+03
  1.23500000e+03  2.80800000e+02  7.92700000e+01  2.55900000e+01  8.99700000e+00
  3.31900000e+00  3.64300000e-01  9.05900000e-01  1.28500000e-01  1.87100000e+01
  4.13300000e+00  1.20000000e+00  3.82700000e-01  1.20900000e-01  1.09700000e+00
  3.18000000e-01  7.61000000e-01  4.40200000e-02  3.56900000e-02  1.00000000e-01
  2.68000000e-01  3.38700000e+01  5.09500000e+00  1.15900000e+00  3.25800000e-01
  1.02700000e-01  1.40700000e+00  3.88000000e-01  1.05700000e+00  2.52600000e-02
  1.02000000e-01  2.47000000e-01  3.38700000e+01  5.09500000e+00  1.15900000e+00
  3.25800000e-01  1.02700000e-01  1.40700000e+00  3.88000000e-01  1.05700000e+00
  2.52600000e-02  1.02000000e-01  2.47000000e-01  1.53300000e+04  2.29900000e+03
  5.22400000e+02  1.47300000e+02  4.75500000e+01  1.67600000e+01  6.20700000e+00
  6.88200000e-01  1.53300000e+04  2.29900000e+03  5.22400000e+02  1.47300000e+02
  4.75500000e+01  1.67600000e+01  6.20700000e+00  6.88200000e-01  1.75200000e+00
  2.38400000e-01  3.44600000e+01  7.74900000e+00  2.28000000e+00  7.15600000e-01
  2.14000000e-01  2.31400000e+00  6.45000000e-01  1.42800000e+00  7.37600000e-02
  5.97400000e-02  2.14000000e-01  5.00000000e-01  3.38700000e+01  5.09500000e+00
  1.15900000e+00  3.25800000e-01  1.02700000e-01  1.40700000e+00  3.88000000e-01
  1.05700000e+00  2.52600000e-02  1.02000000e-01  2.47000000e-01
Contraction coefficients                   R   N=         164
  2.54948632e-02  1.90362766e-01  8.52162022e-01  1.00000000e+00  1.00000000e+00
  1.00000000e+00  1.00000000e+00  1.00000000e+00  1.00000000e+00  1.00000000e+00
  1.00000000e+00  5.42430189e-04  4.19642790e-03  2.15409141e-02  8.36149496e-02
  2.39871619e-01  4.43751820e-01  3.53579696e-01 -9.17636608e-03 -1.96392234e-04
 -1.52595027e-03 -7.89044903e-03 -3.15148705e-02 -9.69100083e-02 -2.20541526e-01
 -2.96069113e-01  1.04050343e+00  1.00000000e+00  1.00000000e+00  3.94263872e-02
  2.44088985e-01  8.15492009e-01  1.00000000e+00  1.00000000e+00  1.00000000e+00
  1.00000000e+00  1.00000000e+00  1.00000000e+00  1.00000000e+00  1.00000000e+00
  1.00000000e+00  5.20198307e-04  4.02334478e-03  2.07290833e-02  8.10823271e-02
  2.36226352e-01  4.43518209e-01  3.58670589e-01 -8.34979724e-03 -1.97236012e-04
 -1.53501070e-03 -7.95118391e-03 -3.21134529e-02 -1.00269643e-01 -2.34047112e-01
 -3.01410928e-01  1.03491965e+00  1.00000000e+00  1.00000000e+00  4.11634896e-02
  2.57762836e-01  8.02419274e-01  1.00000000e+00  1.00000000e+00  1.00000000e+00
  1.00000000e+00  1.00000000e+00  1.00000000e+00  1.00000000e+00  1.00000000e+00
  1.00000000e+00  5.42430189e-04  4.19642790e-03  2.15409141e-02  8.36149496e-02
  2.39871619e-01  4.43751820e-01  3.53579696e-01 -9.17636608e-03 -1.96392234e-04
 -1.52595027e-03 -7.89044903e-03 -3.15148705e-02 -9.69100083e-02 -2.20541526e-01
 -2.96069113e-01  1.04050343e+00  1.00000000e+00  1.00000000e+00  3.94263872e-02
  2.44088985e-01  8.15492009e-01  1.00000000e+00  1.00000000e+00  1.00000000e+00
  1.00000000e+00  1.00000000e+00  1.00000000e+00  1.00000000e+00  1.00000000e+00
  1.00000000e+00  2.54948632e-02  1.90362766e-01  8.52162022e-01  1.00000000e+00
  1.00000000e+00  1.00000000e+00  1.00000000e+00  1.00000000e+00  1.00000000e+00
  1.00000000e+00  1.00000000e+00  2.54948632e-02  1.90362766e-01  8.52162022e-01
  1.00000000e+00  1.00000000e+00  1.00000000e+00  1.00000000e+00  1.00000000e+00
  1.00000000e+00  1.00000000e+00  1.00000000e+00  5.20198307e-04  4.02334478e-03
  2.07290833e-02  8.10823271e-02  2.36226352e-01  4.43518209e-01  3.58670589e-01
 -8.34979724e-03 -1.97236012e-04 -1.53501070e-03 -7.95118391e-03 -3.21134529e-02
 -1.00269643e-01 -2.34047112e-01 -3.01410928e-01  1.03491965e+00  1.00000000e+00
  1.00000000e+00  4.11634896e-02  2.57762836e-01  8.02419274e-01  1.00000000e+00
  1.00000000e+00  1.00000000e+00  1.00000000e+00  1.00000000e+00  1.00000000e+00
  1.00000000e+00  1.00000000e+00  1.00000000e+00  2.54948632e-02  1.90362766e-01
  8.52162022e-01  1.00000000e+00  1.00000000e+00  1.00000000e+00  1.00000000e+00
  1.00000000e+00  1.00000000e+00  1.00000000e+00  1.00000000e+00
Coordinates of each shell                  R   N=         276
 -3.35132334e+00 -3.08327363e-01 -8.26568745e-01 -3.35132334e+00 -3.08327363e-01
 -8.26568745e-01 -3.35132334e+00 -3.08327363e-01 -8.26568745e-01 -3.35132334e+00
 -3.08327363e-01 -8.26568745e-01 -3.35132334e+00 -3.08327363e-01 -8.26568745e-01
 -3.35132334e+00 -3.08327363e-01 -8.26568745e-01 -3.35132334e+00 -3.08327363e-01
 -8.26568745e-01 -3.35132334e+00 -3.08327363e-01 -8.26568745e-01 -3.35132334e+00
 -3.08327363e-01 -8.26568745e-01 -2.57921647e+00  4.31500509e-01  9.34861284e-01
 -2.57921647e+00  4.31500509e-01  9.34861284e-01 -2.57921647e+00  4.31500509e-01
  9.34861284e-01 -2.57921647e+00  4.31500509e-01  9.34861284e-01 -2.57921647e+00
  4.31500509e-01  9.34861284e-01 -2.57921647e+00  4.31500509e-01  9.34861284e-01
 -2.57921647e+00  4.31500509e-01  9.34861284e-01 -2.57921647e+00  4.31500509e-01
  9.34861284e-01 -2.57921647e+00  4.31500509e-01  9.34861284e-01 -2.57921647e+00
  4.31500509e-01  9.34861284e-01 -2.57921647e+00  4.31500509e-01  9.34861284e-01
 -2.57921647e+00  4.31500509e-01  9.34861284e-01 -2.57921647e+00  4.31500509e-01
  9.34861284e-01 -2.57921647e+00  4.31500509e-01  9.34861284e-01 -1.77888329e-01
  1.63884341e+00  4.81647750e-01 -1.77888329e-01  1.63884341e+00  4.81647750e-01
 -1.77888329e-01  1.63884341e+00  4.81647750e-01 -1.77888329e-01  1.63884341e+00
  4.81647750e-01 -1.77888329e-01  1.63884341e+00  4.81647750e-01 -1.77888329e-01
  1.63884341e+00  4.81647750e-01 -1.77888329e-01  1.63884341e+00  4.81647750e-01
 -1.77888329e-01  1.63884341e+00  4.81647750e-01 -1.77888329e-01  1.63884341e+00
  4.81647750e-01 -1.77888329e-01  1.63884341e+00  4.81647750e-01 -1.77888329e-01
  1.63884341e+00  4.81647750e-01 -1.77888329e-01  1.63884341e+00  4.81647750e-01
 -1.77888329e-01  1.63884341e+00  4.81647750e-01 -1.77888329e-01  1.63884341e+00
  4.81647750e-01  1.59140882e+00  9.08189421e-02 -4.84906225e-01  1.59140882e+00
  9.08189421e-02 -4.84906225e-01  1.59140882e+00  9.08189421e-02 -4.84906225e-01
  1.59140882e+00  9.08189421e-02 -4.84906225e-01  1.59140882e+00  9.08189421e-02
 -4.84906225e-01  1.59140882e+00  9.08189421e-02 -4.84906225e-01  1.59140882e+00
  9.08189421e-02 -4.84906225e-01  1.59140882e+00  9.08189421e-02 -4.84906225e-01
  1.59140882e+00  9.08189421e-02 -4.84906225e-01  1.59140882e+00  9.08189421e-02
 -4.84906225e-01  1.59140882e+00  9.08189421e-02 -4.84906225e-01  1.59140882e+00
  9.08189421e-02 -4.84906225e-01  1.59140882e+00  9.08189421e-02 -4.84906225e-01
  1.59140882e+00  9.08189421e-02 -4.84906225e-01 -2.36063490e+00 -1.11126693e+00
  2.28330206e+00 -2.36063490e+00 -1.11126693e+00  2.28330206e+00 -2.36063490e+00
 -1.11126693e+00  2.28330206e+00 -2.36063490e+00 -1.11126693e+00  2.28330206e+00
 -2.36063490e+00 -1.11126693e+00  2.28330206e+00 -2.36063490e+00 -1.11126693e+00
  2.28330206e+00 -2.36063490e+00 -1.11126693e+00  2.28330206e+00 -2.36063490e+00
 -1.11126693e+00  2.28330206e+00 -2.36063490e+00 -1.11126693e+00  2.28330206e+00
 -3.78573385e+00  1.90768698e+00  1.70042725e+00 -3.78573385e+00  1.90768698e+00
  1.70042725e+00 -3.78573385e+00  1.90768698e+00  1.70042725e+00 -3.78573385e+00
  1.90768698e+00  1.70042725e+00 -3.78573385e+00  1.90768698e+00  1.70042725e+00
 -3.78573385e+00  1.90768698e+00  1.70042725e+00 -3.78573385e+00  1.90768698e+00
  1.70042725e+00 -3.78573385e+00  1.90768698e+00  1.70042725e+00 -3.78573385e+00
  1.90768698e+00  1.70042725e+00  1.30654251e+00 -2.13445059e+00 -9.69821303e-01
  1.30654251e+00 -2.13445059e+00 -9.69821303e-01  1.30654251e+00 -2.13445059e+00
 -9.69821303e-01  1.30654251e+00 -2.13445059e+00 -9.69821303e-01  1.30654251e+00
 -2.13445059e+00 -9.69821303e-01  1.30654251e+00 -2.13445059e+00 -9.69821303e-01
  1.30654251e+00 -2.13445059e+00 -9.69821303e-01  1.30654251e+00 -2.13445059e+00
 -9.69821303e-01  1.30654251e+00 -2.13445059e+00 -9.69821303e-01  1.30654251e+00
 -2.13445059e+00 -9.69821303e-01  1.30654251e+00 -2.13445059e+00 -9.69821303e-01
  1.30654251e+00 -2.13445059e+00 -9.69821303e-01  1.30654251e+00 -2.13445059e+00
 -9.69821303e-01  1.30654251e+00 -2.13445059e+00 -9.69821303e-01  3.34678770e+00
  1.15838461e+00 -7.67029827e-01  3.34678770e+00  1.15838461e+00 -7.67029827e-01
  3.34678770e+00  1.15838461e+00 -7.67029827e-01  3.34678770e+00  1.15838461e+00
 -7.67029827e-01  3.34678770e+00  1.15838461e+00 -7.67029827e-01  3.34678770e+00
  1.15838461e+00 -7.67029827e-01  3.34678770e+00  1.15838461e+00 -7.67029827e-01
  3.34678770e+00  1.15838461e+00 -7.67029827e-01  3.34678770e+00  1.15838461e+00
 -7.67029827e-01
Total Energy                               R     -2.286946767941818e+02
Alpha Orbital Energies                     R   N=         276
 -2.06185512e+01 -2.05602414e+01 -1.13891787e+01 -1.12931926e+01 -1.46536787e+00
 -1.36635824e+00 -9.89284705e-01 -8.22827959e-01 -7.37759225e-01 -6.80209896e-01
 -6.75600124e-01 -5.95136538e-01 -5.52829992e-01 -5.40557504e-01 -4.71351622e-01
 -4.66776002e-01  2.85196959e-02  3.79381268e-02  4.80422732e-02  4.86069508e-02
  8.55825912e-02  8.82291009e-02  9.15002763e-02  1.18525159e-01  1.29944336e-01
  1.32988918e-01  1.41683908e-01  1.57403415e-01  1.59997523e-01  1.67390111e-01
  1.95715672e-01  2.12004960e-01  2.12764149e-01  2.26224830e-01  2.35829707e-01
  2.45396493e-01  2.49392869e-01  2.80333618e-01  2.89909365e-01  2.96359253e-01
  3.08327756e-01  3.25890249e-01  3.29547922e-01  3.46831715e-01  3.50131416e-01
  3.50362399e-01  3.74613690e-01  3.79265496e-01  3.91520836e-01  3.96671537e-01
  4.16939715e-01  4.23722507e-01  4.31729903e-01  4.44036048e-01  4.49752454e-01
  4.63181322e-01  4.66457041e-01  4.88047928e-01  4.96819882e-01  5.13842572e-01
  5.18936057e-01  5.31333814e-01  5.37803694e-01  5.72981688e-01  5.74464981e-01
  6.02010515e-01  6.68926014e-01  6.85501555e-01  6.96952972e-01  7.26621292e-01
  7.28372612e-01  7.61728888e-01  7.78637596e-01  7.84196708e-01  7.97430878e-01
  8.28641917e-01  8.37910234e-01  8.47340923e-01  8.64147869e-01  8.70222289e-01
  8.83349449e-01  8.93481957e-01  9.12523591e-01  9.20914950e-01  9.31612736e-01
  9.43418283e-01  9.51352433e-01  9.63545196e-01  9.70693156e-01  9.80731596e-01
  1.01143676e+00  1.01919074e+00  1.03471344e+00  1.03633595e+00  1.05704734e+00
  1.07517946e+00  1.08806967e+00  1.10818868e+00  1.11776527e+00  1.13036557e+00
  1.14858532e+00  1.15375234e+00  1.15589190e+00  1.18937357e+00  1.20241304e+00
  1.20816829e+00  1.25131401e+00  1.25478978e+00  1.27922035e+00  1.29094942e+00
  1.33605471e+00  1.34248525e+00  1.38900372e+00  1.40400034e+00  1.43926966e+00
  1.46647172e+00  1.47689888e+00  1.49630528e+00  1.52675884e+00  1.53888025e+00
  1.55378139e+00  1.56669946e+00  1.58112850e+00  1.61609386e+00  1.62487841e+00
  1.64277143e+00  1.65429491e+00  1.65766718e+00  1.68701763e+00  1.71359699e+00
  1.73267848e+00  1.75241058e+00  1.79411720e+00  1.81547734e+00  1.83262042e+00
  1.88740714e+00  1.90602271e+00  1.95373992e+00  1.96567410e+00  1.97706610e+00
  2.02295533e+00  2.05441551e+00  2.11906902e+00  2.12138605e+00  2.14373912e+00
  2.16156032e+00  2.16174795e+00  2.20177610e+00  2.34248302e+00  2.39321587e+00
  2.39526246e+00  2.43377683e+00  2.43831264e+00  2.49295525e+00  2.49497244e+00
  2.51264528e+00  2.54416564e+00  2.56897047e+00  2.61658451e+00  2.64746732e+00
  2.67479161e+00  2.68897392e+00  2.71478223e+00  2.74535855e+00  2.77279266e+00
  2.79198408e+00  2.86582889e+00  2.89187824e+00  2.89881754e+00  2.95286884e+00
  2.96216240e+00  2.98037949e+00  3.08706904e+00  3.11703138e+00  3.20297719e+00
  3.22910192e+00  3.28169300e+00  3.34010104e+00  3.35397723e+00  3.39591713e+00
  3.41231566e+00  3.45176743e+00  3.57154587e+00  3.57612148e+00  3.60971990e+00
  3.65146423e+00  3.65611750e+00  3.66071680e+00  3.68841369e+00  3.74226351e+00
  3.79424046e+00  3.84480559e+00  3.85939607e+00  3.88550878e+00  3.94157732e+00
  3.96031265e+00  3.97381733e+00  4.01696969e+00  4.03638673e+00  4.06495224e+00
  4.12069836e+00  4.14401884e+00  4.17206086e+00  4.17320499e+00  4.20675530e+00
  4.23378539e+00  4.28531243e+00  4.28983382e+00  4.32910086e+00  4.38143771e+00
  4.38306692e+00  4.45971624e+00  4.50331696e+00  4.55122218e+00  4.57928959e+00
  4.67233649e+00  4.72919800e+00  4.76010302e+00  4.78337614e+00  4.83616506e+00
  4.85050699e+00  4.85551263e+00  4.95654168e+00  5.01503946e+00  5.02177930e+00
  5.05152874e+00  5.18104025e+00  5.18220960e+00  5.25405082e+00  5.27878305e+00
  5.29303527e+00  5.34955549e+00  5.39124582e+00  5.41299704e+00  5.55941948e+00
  5.57362295e+00  5.65422955e+00  5.66171405e+00  5.68143625e+00  5.93341273e+00
  6.03223838e+00  6.06968351e+00  6.11676678e+00  6.16191901e+00  6.34365413e+00
  6.56555306e+00  6.62751104e+00  6.67263934e+00  6.70514554e+00  6.74888395e+00
  6.84553000e+00  6.87644033e+00  6.93679298e+00  6.98680765e+00  7.06371551e+00
  7.06993769e+00  7.19598195e+00  7.19764742e+00  7.23141847e+00  7.28958924e+00
  7.35882764e+00  7.44833391e+00  7.48677933e+00  7.55490320e+00  7.59471637e+00
  7.64271248e+00  7.79425883e+00  7.84158954e+00  7.87748888e+00  8.02454199e+00
  8.20373671e+00  8.43626422e+00  1.43232511e+01  1.57538984e+01  1.74392624e+01
  1.81019007e+01
Alpha MO coefficients                      R   N=       76176
  1.72124536e-06  1.85775543e-03  9.98153563e-04  9.21161830e-07  1.97628637e-06
  1.56883217e-05  6.27751047e-04  3.18918994e-04  1.47738257e-04 -1.61876151e-05
  2.61744852e-05  1.18857665e-05  1.32397993e-05  1.07400686e-05  6.16834954e-06
  4.51860389e-04 -3.84729655e-07  2.68814871e-04 -8.67768439e-05  8.76290833e-05
  1.27171538e-06  8.25820325e-05  1.62114723e-04  3.23352605e-04  6.64936502e-04
 -1.92436857e-04 -6.11212200e-03 -1.18759661e-04 -6.78400863e-05  2.02949666e-05
  1.65438599e-03  1.08884550e-03 -2.45421921e-04  1.11574347e-03 -1.51279542e-04
 -3.94288365e-04 -1.16919363e-04 -6.01055575e-05 -1.82191440e-05  9.69239391e-05
  1.54489587e-04 -1.06484639e-03 -6.01454198e-04 -3.25694107e-04  1.23565137e-03
  1.60158774e-03  1.10319655e-04 -1.57170755e-04 -5.15543743e-05 -4.04479969e-05
 -6.41383580e-05  3.43439310e-05  2.69119321e-04  4.73400527e-04  1.67897488e-04
 -5.43525510e-05 -6.77427703e-05  1.60608305e-04  4.14607775e-05 -3.38623877e-04
  5.19208952e-04  3.32377197e-04  6.36454426e-04 -2.44762685e-04  3.03773625e-04
  1.13555072e-04  3.08257478e-04 -1.40074441e-05  3.75548218e-04  9.75173152e-01
 -1.84387878e-03  4.38394512e-02 -1.79905369e-03 -2.24568769e-04 -1.78006574e-03
 -3.90513121e-04  2.69327758e-04  1.99545987e-03  4.32019230e-04 -2.89410997e-04
  1.49005561e-03  4.78555374e-04 -6.20861722e-05 -6.58593767e-05  3.45020249e-05
  4.32592939e-05 -3.16465756e-05  6.01783273e-04  6.27124861e-04 -2.47431667e-04
 -5.36756663e-04  1.49117855e-04 -1.82208160e-05 -1.13596918e-06 -1.39612410e-05
 -1.06707133e-06 -2.11558847e-05  1.35328472e-06  1.58745798e-05 -2.72257492e-03
  2.06353533e-04  3.29022059e-04  1.96833443e-05  3.69725144e-05  3.57150871e-05
 -8.95278645e-05  8.97575483e-05  1.28052865e-04 -4.32744101e-05 -8.14073959e-05
 -6.56115673e-05 -7.31112031e-06 -2.32825575e-04  1.36090566e-04  3.54192583e-04
  3.85670068e-04  8.28769486e-04 -2.33407498e-04  1.38936858e-03  8.70298521e-06
 -2.79289884e-05 -9.97879868e-06 -1.89685186e-03  1.80129776e-03  1.07250824e-03
 -8.54249662e-04 -4.00006973e-05  2.62139093e-04 -8.31613088e-05 -1.64713456e-04
  1.34536413e-04  5.70341752e-05 -2.79442436e-04 -1.85621874e-04 -6.16121874e-04
  6.13922344e-04  8.21289904e-05 -1.43889149e-03 -1.55911843e-04  4.05048143e-05
 -5.94256412e-05 -3.34246573e-07 -1.76303365e-04  8.49102448e-05  9.15704720e-05
  3.01336656e-04  1.04252502e-04  1.17097448e-04 -2.93325610e-06 -1.13031882e-04
 -2.71986463e-05  8.67504894e-05 -1.28704008e-04  1.63247511e-05 -5.68039894e-05
 -1.83702910e-06  1.86755819e-05  1.89371983e-04 -1.95158450e-04 -3.17670778e-05
  4.25879658e-04  1.74636696e-06  1.85703573e-03  9.96148501e-04 -7.50432273e-06
  8.82087971e-06 -1.07693594e-05  4.82345651e-04  4.35437229e-04 -3.06693168e-04
  3.64728850e-06 -2.62245382e-05 -1.59829869e-05 -1.10173097e-05  1.72231410e-05
  6.37170598e-06  2.26385551e-04  1.82222800e-04 -4.37384204e-04 -2.49293051e-05
 -7.98034407e-05 -8.99671474e-05  4.49600062e-06  1.81911530e-04  3.89614829e-05
  1.83335564e-03  2.86286669e-03  2.18162523e-05 -4.15237306e-06 -8.01858635e-06
  4.07446470e-04  3.35905653e-05 -1.20970227e-04  1.79503023e-05  4.13669194e-06
 -9.26363036e-06  1.36442274e-05 -1.02204488e-05  4.78823280e-05  6.42066349e-04
 -2.12532373e-04 -2.58944185e-04 -2.65371173e-05 -1.65419749e-05 -2.13387590e-05
  5.50077826e-05  5.97014146e-05 -2.90687094e-04 -3.33027262e-05 -4.83218965e-05
  1.70842822e-04  1.56585768e-05 -3.45680953e-05 -1.39626494e-05 -6.16771110e-05
  1.83338576e-04  6.72346222e-05 -3.99542533e-04  5.64240101e-04  2.73650398e-04
 -2.59247395e-06 -3.13038946e-06  7.11692095e-07  3.64638072e-06 -5.82619116e-07
 -4.28080588e-05 -9.70412288e-07  4.39019175e-05 -8.32365555e-05 -4.74902177e-07
 -1.18012778e-05  1.65347632e-06 -7.35649369e-06 -5.44011637e-06 -1.12936126e-05
  7.30266848e-06 -2.53561402e-07  1.45700718e-05 -3.09763942e-05  6.01755900e-06
  1.13302657e-05 -1.17110863e-04 -8.79303171e-05  1.59941502e-04 -1.35607783e-04
 -1.70583859e-04  3.59793194e-05 -3.22978794e-05 -9.15344048e-06  3.76129468e-06
  2.57277395e-05 -4.40127842e-05  2.43948926e-05  2.37738472e-06  5.88263238e-04
  6.46730604e-04 -4.09414525e-06  7.49992394e-06  3.22514603e-06 -2.76286234e-04
 -2.44180827e-04  2.51709563e-05 -3.28296001e-06  2.27117027e-05 -5.66027319e-06
 -3.36148252e-05  4.25956584e-05 -1.67824605e-04 -2.20073209e-04 -2.88882816e-04
 -4.47950046e-06 -3.83033490e-05  1.14065466e-05 -1.43670756e-05 -1.14875873e-05
  1.02747369e-04 -7.18652592e-06 -2.51987665e-04  4.45565592e-05 -2.02515537e-06
  6.75249498e-06  1.97787192e-07 -3.01933165e-05 -4.81632398e-05 -8.49446596e-05
 -1.41062923e-05  1.17023024e-06 -2.29338761e-06  5.21971244e-06 -9.24771400e-06
  4.46736495e-05  4.76859382e-05  6.29674138e-07 -1.25140929e-04 -1.70364912e-05
 -4.00445909e-05  1.24005879e-05  1.05369536e-05 -3.92776611e-05 -6.23014890e-05
 -1.31090069e-04 -7.09953984e-05  1.20388027e-03 -2.93950034e-06  8.89521732e-06
  3.22367729e-06 -4.16737944e-05 -2.16836482e-04 -4.27315529e-05 -6.64630791e-04
  8.53243327e-04  4.29264040e-04  1.09044330e-05  8.51669166e-06 -8.79806431e-06
  2.36699682e-06  6.44801317e-06 -1.66818972e-05  1.57446836e-05  6.12619344e-05
 -1.31550201e-04 -5.19813573e-05  2.07273875e-05 -1.31143199e-05 -4.70029489e-06
 -1.81121376e-05  2.86123645e-05 -1.12357052e-05 -3.12496921e-05  3.91582591e-04
 -1.08942693e-04  2.56818116e-04  1.01409889e-04 -1.10859741e-04  5.59518161e-05
  8.47648947e-05 -2.73531708e-04  1.17125468e-04 -1.03473063e-04  8.56082032e-06
 -5.94938942e-05 -3.28609681e-05 -1.32838716e-04  8.42452903e-05  6.52824510e-05
  2.80638548e-04 -9.53611431e-06 -4.09019605e-05  4.50886285e-04 -2.13366619e-05
  3.02083669e-05  1.46363395e-05  1.25769785e-04 -1.58705899e-04 -8.12673144e-05
  1.68302487e-04 -4.44137025e-04 -1.68485060e-04 -3.48367651e-06  1.04417168e-06
  4.22715127e-06 -9.87234696e-06  3.04400320e-07 -4.00677913e-05 -6.95605206e-05
  4.77843220e-05  3.67932112e-05 -9.51492485e-05  8.99761992e-06 -1.50534869e-07
  5.77884186e-06  1.07816153e-05  1.34155613e-05 -1.84600854e-05 -4.10290651e-07
  4.21762020e-05  5.89584612e-04  1.52253979e-04 -1.49529995e-04 -1.63501580e-04
  7.38873234e-06  1.05786856e-05 -9.04202622e-05  2.69430031e-04 -1.08153744e-05
 -5.55164499e-06 -1.87470506e-05 -6.26123814e-05 -1.35487506e-05  6.66379225e-05
 -4.99403156e-05  4.99893659e-04  1.13787340e-03  1.14450998e-04 -8.51966660e-05
 -1.21326503e-05 -1.80911677e-04 -4.28801961e-05 -9.00636765e-04 -3.23950790e-03
 -5.51878060e-04  1.43229342e-04 -2.64040977e-06 -4.53786646e-05 -1.67997263e-04
  4.25530982e-05  1.57578313e-04 -3.87914280e-04  7.86447039e-05 -2.27765188e-04
  3.54740588e-04  4.08682613e-04 -1.37885843e-03  1.49878815e-04  5.07765258e-05
  3.94828340e-05  8.74670819e-05  6.42498111e-05  6.15671686e-05 -1.44050703e-05
 -1.72311359e-05 -4.01578978e-04  3.09208548e-05 -2.55680890e-04 -7.59047430e-05
  2.46620983e-04 -2.31040725e-04 -2.05909290e-04  8.38543981e-04 -3.63918147e-04
  1.27822834e-04  5.30407941e-05  2.64996737e-04  1.63226870e-04 -1.29300527e-04
  2.97994044e-04  3.89789061e-04 -7.18675968e-06 -2.51509126e-04  5.52702367e-05
 -8.09482102e-07  5.80495344e-06  3.99950894e-06  1.41168853e-05 -8.41893224e-05
  5.55566200e-05  2.72615138e-06 -1.43356578e-05  9.69602265e-06  2.98113264e-06
  2.43047633e-07  4.42842905e-05  1.07200318e-04 -4.63120791e-05  6.13924924e-05
 -2.07552175e-05 -2.11677170e-05  2.92540706e-05  2.13100827e-05 -3.95320831e-05
  1.96592234e-06 -4.35499523e-04 -8.19909455e-04 -8.12940922e-06 -3.77372926e-06
  1.65738125e-06  3.20627671e-05 -8.14388418e-05 -3.16630386e-05 -7.59811062e-06
 -3.90894977e-06  1.20873777e-05 -1.48083268e-05 -1.17106689e-05 -2.07597396e-04
 -1.47289689e-04 -3.47846481e-05  3.76708521e-05 -2.41660754e-05 -3.41780686e-05
  3.29688763e-05  9.12676372e-07 -5.44185295e-05  9.74979030e-01 -2.30150003e-03
  4.36261903e-02  1.87408776e-03  1.60439591e-04  1.90667690e-03  4.41880692e-04
 -1.70297155e-04 -2.23410468e-03 -5.23591945e-04 -2.21625493e-04 -5.30430629e-04
 -6.72203883e-05 -1.32848501e-04 -4.08074099e-05  8.30936592e-05 -1.04798468e-04
  3.93867346e-05  2.82588144e-04 -1.03380684e-04 -2.74254671e-04  7.25095449e-04
 -1.55766135e-04  2.43118602e-05  8.13656050e-06  3.37445637e-05  1.80433789e-05
  1.28585661e-05  1.33890218e-05  1.11357049e-05 -1.18199037e-05 -1.46504220e-04
 -4.71940459e-05  3.46147789e-05  4.72771410e-05 -4.98321129e-05 -3.77806051e-05
  1.67146175e-04 -7.95517229e-05  3.68372334e-05  9.23367983e-06  7.83989045e-05
  8.27583626e-05 -5.56536515e-05  6.02294205e-05  1.80493642e-04  1.05762356e-05
  1.41493087e-03 -3.19003636e-04 -5.79735227e-05 -4.83141309e-05  5.93423231e-06
 -6.71047867e-04 -4.07257295e-04  1.08213473e-04 -2.42691145e-05 -1.17402505e-05
 -1.40416165e-05  3.52664168e-05  4.97318958e-05  6.08413574e-05 -1.60598444e-04
  4.82867115e-04  1.75238339e-04 -1.35282940e-04 -6.03402389e-05  5.79957200e-05
 -2.97237932e-05  5.93441299e-05  1.08460584e-08  1.34860220e-03  1.80357552e-03
  3.68250446e-05  1.72747216e-05  1.68174703e-05  9.99501411e-05  5.84289480e-05
 -8.15925590e-05 -1.41654550e-05 -2.41159384e-05  2.11016975e-06  1.78760007e-05
  4.04010989e-06  1.67545979e-04  2.38578188e-04  4.77975735e-04  2.67172442e-04
  9.50496601e-06 -6.90756942e-05  8.29253804e-06 -5.03692306e-05 -3.96347046e-05
  8.42630831e-05  3.79550297e-04  3.47977695e-04 -9.69433721e-03  4.03516628e-05
 -2.42162019e-05 -1.91445766e-05 -1.85337222e-04  2.05167506e-05  6.37451505e-05
 -3.15976981e-03  2.11910541e-03  1.55785729e-03  2.25444600e-05  2.00622200e-05
  4.98051130e-07 -2.92570509e-05 -1.42961729e-05 -2.24273196e-05  4.29537043e-04