
    -----------------------------------------------------------------------
          Psi4: An Open-Source Ab Initio Electronic Structure Package
                               Psi4 1.3.2 release

                         Git: Rev {HEAD} ecbda83 


    R. M. Parrish, L. A. Burns, D. G. A. Smith, A. C. Simmonett,
    A. E. DePrince III, E. G. Hohenstein, U. Bozkaya, A. Yu. Sokolov,
    R. Di Remigio, R. M. Richard, J. F. Gonthier, A. M. James,
    H. R. McAlexander, A. Kumar, M. Saitow, X. Wang, B. P. Pritchard,
    P. Verma, H. F. Schaefer III, K. Patkowski, R. A. King, E. F. Valeev,
    F. A. Evangelista, J. M. Turney, T. D. Crawford, and C. D. Sherrill,
    J. Chem. Theory Comput. 13(7) pp 3185--3197 (2017).
    (doi: 10.1021/acs.jctc.7b00174)


                         Additional Contributions by
    P. Kraus, H. Kruse, M. H. Lechner, M. C. Schieber, R. A. Shaw,
    A. Alenaizan, R. Galvelis, Z. L. Glick, S. Lehtola, and J. P. Misiewicz

    -----------------------------------------------------------------------


    Psi4 started on: Thursday, 04 November 2021 02:14PM

    Process ID: 36502
    Host:       node44.bme.utexas.edu
    PSIDATADIR: /home/bdw2292/miniconda3/envs/amoebamdpoltype/share/psi4
    Memory:     500.0 MiB
    Threads:    1
    
  ==> Input File <==

--------------------------------------------------------------------------
molecule { 
0 1
 N   -1.659800   -0.597700   -0.295700
 C   -2.615900    0.459200   -0.031900
 C   -0.262700   -0.327000   -0.309600
 C    0.241000    0.933700   -0.076400
 C    0.660400   -1.322700   -0.559200
 C    1.617200    1.166600   -0.096900
 C    2.018600   -1.103100   -0.581600
 C    2.514000    0.151200   -0.349300
 H   -1.973900   -1.576300   -0.480500
 H   -0.406700    1.764400    0.125800
 H    0.252900   -2.308900   -0.741000
 H    2.037300    2.151300    0.083900
 H    2.709900   -1.910700   -0.781300
 H   -2.459300    1.347200   -0.679400
 H   -3.641100    0.094200   -0.249900
 H   -2.632300    0.739700    1.057100
 H    3.600400    0.339000   -0.364800
}
set {
  geom_maxiter 400
  g_convergence GAU
  dynamic_level 1
}
set optking { 
  frozen_dihedral = ("
    3 1 2 14
, 2 1 3 4
  ")
}
memory 8.333333333333334GB
set_num_threads(1)
psi4_io.set_default_path("/scratch/bdw2292/Psi4-1_Index_0-farH_in17")
for _ in range(1):
  try:
    set opt_coordinates both
    optimize('mp2/6-31G*')
    break
  except OptimizationConvergenceError:
    break
  else:
    try:
      set opt_coordinates cartesian
      optimize('mp2/6-31G*')
      break
    except OptimizationConvergenceError:
      pass
clean()
--------------------------------------------------------------------------

  Memory set to   7.761 GiB by Python driver.
  Threads set to 1 by Python driver.
gradient() will perform analytic gradient computation.
    SCF Algorithm Type (re)set to DF.

*** tstart() called on node44.bme.utexas.edu
*** at Thu Nov  4 14:14:15 2021

   => Loading Basis Set <=

    Name: 6-31G*
    Role: ORBITAL
    Keyword: BASIS
    atoms 1    entry N          line   128 file /home/bdw2292/miniconda3/envs/amoebamdpoltype/share/psi4/basis/6-31gs.gbs 
    atoms 2-8  entry C          line   111 file /home/bdw2292/miniconda3/envs/amoebamdpoltype/share/psi4/basis/6-31gs.gbs 
    atoms 9-17 entry H          line    44 file /home/bdw2292/miniconda3/envs/amoebamdpoltype/share/psi4/basis/6-31gs.gbs 


         ---------------------------------------------------------
                                   SCF
               by Justin Turney, Rob Parrish, Andy Simmonett
                          and Daniel G. A. Smith
                              RHF Reference
                        1 Threads,   7947 MiB Core
         ---------------------------------------------------------

  ==> Geometry <==

    Molecular point group: c1
    Full point group: C1

    Geometry (in Angstrom), charge = 0, multiplicity = 1:

       Center              X                  Y                   Z               Mass       
    ------------   -----------------  -----------------  -----------------  -----------------
         N           -1.886713617156    -0.520837562996    -0.013225860457    14.003074004430
         C           -2.842813617156     0.536062437004     0.250574139543    12.000000000000
         C           -0.489613617156    -0.250137562996    -0.027125860457    12.000000000000
         C            0.014086382844     1.010562437004     0.206074139543    12.000000000000
         C            0.433486382844    -1.245837562996    -0.276725860457    12.000000000000
         C            1.390286382844     1.243462437004     0.185574139543    12.000000000000
         C            1.791686382844    -1.026237562996    -0.299125860457    12.000000000000
         C            2.287086382844     0.228062437004    -0.066825860457    12.000000000000
         H           -2.200813617156    -1.499437562996    -0.198025860457     1.007825032230
         H           -0.633613617156     1.841262437004     0.408274139543     1.007825032230
         H            0.025986382844    -2.232037562996    -0.458525860457     1.007825032230
         H            1.810386382844     2.228162437004     0.366374139543     1.007825032230
         H            2.482986382844    -1.833837562996    -0.498825860457     1.007825032230
         H           -2.686213617156     1.424062437004    -0.396925860457     1.007825032230
         H           -3.868013617156     0.171062437004     0.032574139543     1.007825032230
         H           -2.859213617156     0.816562437004     1.339574139543     1.007825032230
         H            3.373486382844     0.415862437004    -0.082325860457     1.007825032230

  Running in c1 symmetry.

  Rotational constants: A =      0.17228  B =      0.05011  C =      0.03913 [cm^-1]
  Rotational constants: A =   5164.90994  B =   1502.32758  C =   1173.06288 [MHz]
  Nuclear repulsion =  344.812982698800852

  Charge       = 0
  Multiplicity = 1
  Electrons    = 58
  Nalpha       = 29
  Nbeta        = 29

  ==> Algorithm <==

  SCF Algorithm Type is DF.
  DIIS enabled.
  MOM disabled.
  Fractional occupation disabled.
  Guess Type is SAD.
  Energy threshold   = 1.00e-10
  Density threshold  = 1.00e-10
  Integral threshold = 0.00e+00

  ==> Primary Basis <==

  Basis Set: 6-31G*
    Blend: 6-31G*
    Number of shells: 66
    Number of basis function: 138
    Number of Cartesian functions: 138
    Spherical Harmonics?: false
    Max angular momentum: 2

   => Loading Basis Set <=

    Name: (6-31G* AUX)
    Role: JKFIT
    Keyword: DF_BASIS_SCF
    atoms 1    entry N          line   171 file /home/bdw2292/miniconda3/envs/amoebamdpoltype/share/psi4/basis/cc-pvdz-jkfit.gbs 
    atoms 2-8  entry C          line   121 file /home/bdw2292/miniconda3/envs/amoebamdpoltype/share/psi4/basis/cc-pvdz-jkfit.gbs 
    atoms 9-17 entry H          line    51 file /home/bdw2292/miniconda3/envs/amoebamdpoltype/share/psi4/basis/cc-pvdz-jkfit.gbs 

  ==> Pre-Iterations <==

   -------------------------------------------------------
    Irrep   Nso     Nmo     Nalpha   Nbeta   Ndocc  Nsocc
   -------------------------------------------------------
     A        138     138       0       0       0       0
   -------------------------------------------------------
    Total     138     138      29      29      29       0
   -------------------------------------------------------

  ==> Integral Setup <==

  DFHelper Memory: AOs need 0.129 GiB; user supplied 5.821 GiB. Using in-core AOs.

  ==> MemDFJK: Density-Fitted J/K Matrices <==

    J tasked:                   Yes
    K tasked:                   Yes
    wK tasked:                   No
    OpenMP threads:               1
    Memory [MiB]:              5960
    Algorithm:                 Core
    Schwarz Cutoff:           1E-12
    Mask sparsity (%):       4.1378
    Fitting Condition:        1E-10

   => Auxiliary Basis Set <=

  Basis Set: (6-31G* AUX)
    Blend: CC-PVDZ-JKFIT
    Number of shells: 273
    Number of basis function: 873
    Number of Cartesian functions: 873
    Spherical Harmonics?: false
    Max angular momentum: 3

  Minimum eigenvalue in the overlap matrix is 3.9202938634E-04.
  Using Symmetric Orthogonalization.

  SCF Guess: Superposition of Atomic Densities via on-the-fly atomic UHF.

  ==> Iterations <==

                           Total Energy        Delta E     RMS |[F,P]|

   @DF-RHF iter SAD:  -324.01134053706295   -3.24011e+02   0.00000e+00 
   @DF-RHF iter   1:  -324.59712105377417   -5.85781e-01   3.34886e-03 DIIS
   @DF-RHF iter   2:  -324.72533930394638   -1.28218e-01   1.34060e-03 DIIS
   @DF-RHF iter   3:  -324.74277245523672   -1.74332e-02   2.96595e-04 DIIS
   @DF-RHF iter   4:  -324.74430598129209   -1.53353e-03   5.92800e-05 DIIS
   @DF-RHF iter   5:  -324.74435372245443   -4.77412e-05   2.61085e-05 DIIS
   @DF-RHF iter   6:  -324.74436523673489   -1.15143e-05   7.50672e-06 DIIS
   @DF-RHF iter   7:  -324.74436654560071   -1.30887e-06   2.42973e-06 DIIS
   @DF-RHF iter   8:  -324.74436670672009   -1.61119e-07   8.07035e-07 DIIS
   @DF-RHF iter   9:  -324.74436672770184   -2.09818e-08   3.07942e-07 DIIS
   @DF-RHF iter  10:  -324.74436673172443   -4.02258e-09   1.60690e-07 DIIS
   @DF-RHF iter  11:  -324.74436673296805   -1.24362e-09   6.63398e-08 DIIS
   @DF-RHF iter  12:  -324.74436673319696   -2.28908e-10   1.64030e-08 DIIS
   @DF-RHF iter  13:  -324.74436673320508   -8.12861e-12   6.32352e-09 DIIS
   @DF-RHF iter  14:  -324.74436673320656   -1.47793e-12   1.75038e-09 DIIS
   @DF-RHF iter  15:  -324.74436673320702   -4.54747e-13   6.68193e-10 DIIS
   @DF-RHF iter  16:  -324.74436673320605    9.66338e-13   2.75291e-10 DIIS
   @DF-RHF iter  17:  -324.74436673320719   -1.13687e-12   1.28606e-10 DIIS
   @DF-RHF iter  18:  -324.74436673320594    1.25056e-12   5.21612e-11 DIIS
  Energy and wave function converged.


  ==> Post-Iterations <==

    Orbital Energies [Eh]
    ---------------------

    Doubly Occupied:                                                      

       1A    -15.567232     2A    -11.269149     3A    -11.264313  
       4A    -11.225761     5A    -11.223800     6A    -11.213145  
       7A    -11.213130     8A    -11.210096     9A     -1.219070  
      10A     -1.131117    11A     -1.004299    12A     -1.002473  
      13A     -0.907186    14A     -0.823805    15A     -0.792310  
      16A     -0.704714    17A     -0.665125    18A     -0.627040  
      19A     -0.606293    20A     -0.599880    21A     -0.580203  
      22A     -0.568971    23A     -0.526860    24A     -0.506100  
      25A     -0.497889    26A     -0.475893    27A     -0.413020  
      28A     -0.326310    29A     -0.281906  

    Virtual:                                                              

      30A      0.154516    31A      0.177263    32A      0.224365  
      33A      0.244229    34A      0.256249    35A      0.304735  
      36A      0.311494    37A      0.316316    38A      0.328133  
      39A      0.348287    40A      0.368258    41A      0.392152  
      42A      0.393418    43A      0.457831    44A      0.494131  
      45A      0.520076    46A      0.536179    47A      0.560062  
      48A      0.658655    49A      0.739848    50A      0.754030  
      51A      0.759951    52A      0.775286    53A      0.792081  
      54A      0.823774    55A      0.835608    56A      0.836895  
      57A      0.848700    58A      0.853555    59A      0.859084  
      60A      0.864924    61A      0.877759    62A      0.921681  
      63A      0.940924    64A      1.023659    65A      1.028265  
      66A      1.055210    67A      1.087702    68A      1.101080  
      69A      1.114333    70A      1.120492    71A      1.131237  
      72A      1.139397    73A      1.165797    74A      1.172139  
      75A      1.192803    76A      1.212636    77A      1.230016  
      78A      1.238313    79A      1.298384    80A      1.309953  
      81A      1.339028    82A      1.364823    83A      1.454729  
      84A      1.468251    85A      1.516006    86A      1.525475  
      87A      1.607863    88A      1.670653    89A      1.715690  
      90A      1.727169    91A      1.743364    92A      1.790231  
      93A      1.799550    94A      1.818599    95A      1.840838  
      96A      1.853663    97A      2.069782    98A      2.109309  
      99A      2.138502   100A      2.196117   101A      2.221120  
     102A      2.249127   103A      2.296632   104A      2.336452  
     105A      2.352903   106A      2.400814   107A      2.422067  
     108A      2.432364   109A      2.476797   110A      2.500109  
     111A      2.503729   112A      2.545815   113A      2.568299  
     114A      2.630849   115A      2.661314   116A      2.688655  
     117A      2.770684   118A      2.842355   119A      2.860541  
     120A      2.922146   121A      2.953818   122A      2.981473  
     123A      3.050313   124A      3.125041   125A      3.142695  
     126A      3.172637   127A      3.257499   128A      3.281857  
     129A      3.552177   130A      3.859306   131A      4.409392  
     132A      4.542580   133A      4.556441   134A      4.580874  
     135A      4.683652   136A      4.777513   137A      4.822326  
     138A      5.161870  

    Final Occupation by Irrep:
              A 
    DOCC [    29 ]

  @DF-RHF Final Energy:  -324.74436673320594

   => Energetics <=

    Nuclear Repulsion Energy =            344.8129826988008517
    One-Electron Energy =               -1122.2205168652301381
    Two-Electron Energy =                 452.6631674332233501
    Total Energy =                       -324.7443667332059363

Computation Completed


Properties will be evaluated at   0.000000,   0.000000,   0.000000 [a0]

Properties computed using the SCF density matrix

  Nuclear Dipole Moment: [e a0]
     X:    -4.2647      Y:     1.2499      Z:     0.4802

  Electronic Dipole Moment: [e a0]
     X:     3.7454      Y:    -1.3945      Z:    -0.5071

  Dipole Moment: [e a0]
     X:    -0.5193      Y:    -0.1446      Z:    -0.0269     Total:     0.5397

  Dipole Moment: [D]
     X:    -1.3199      Y:    -0.3675      Z:    -0.0685     Total:     1.3718


*** tstop() called on node44.bme.utexas.edu at Thu Nov  4 14:14:21 2021
Module time:
	user time   =       5.71 seconds =       0.10 minutes
	system time =       0.11 seconds =       0.00 minutes
	total time  =          6 seconds =       0.10 minutes
Total time:
	user time   =       5.71 seconds =       0.10 minutes
	system time =       0.11 seconds =       0.00 minutes
	total time  =          6 seconds =       0.10 minutes

*** tstart() called on node44.bme.utexas.edu
*** at Thu Nov  4 14:14:21 2021


  //>>>>>>>>>>>>>>>>>>>>>>>>>>>>>>>>>>>//
  //               DFMP2               //
  //<<<<<<<<<<<<<<<<<<<<<<<<<<<<<<<<<<<//

   => Loading Basis Set <=

    Name: (6-31G* AUX)
    Role: RIFIT
    Keyword: DF_BASIS_MP2
    atoms 1    entry N          line   197 file /home/bdw2292/miniconda3/envs/amoebamdpoltype/share/psi4/basis/cc-pvdz-ri.gbs 
    atoms 2-8  entry C          line   159 file /home/bdw2292/miniconda3/envs/amoebamdpoltype/share/psi4/basis/cc-pvdz-ri.gbs 
    atoms 9-17 entry H          line    19 file /home/bdw2292/miniconda3/envs/amoebamdpoltype/share/psi4/basis/cc-pvdz-ri.gbs 

	 --------------------------------------------------------
	                          DF-MP2                         
	      2nd-Order Density-Fitted Moller-Plesset Theory     
	              RMP2 Wavefunction,   1 Threads             
	                                                         
	        Rob Parrish, Justin Turney, Andy Simmonett,      
	           Ed Hohenstein, and C. David Sherrill          
	 --------------------------------------------------------

   => Auxiliary Basis Set <=

  Basis Set: (6-31G* AUX)
    Blend: CC-PVDZ-RI
    Number of shells: 198
    Number of basis function: 574
    Number of Cartesian functions: 663
    Spherical Harmonics?: true
    Max angular momentum: 3

	 --------------------------------------------------------
	                 NBF =   138, NAUX =   574
	 --------------------------------------------------------
	   CLASS    FOCC     OCC    AOCC    AVIR     VIR    FVIR
	   PAIRS       0      29      29     109     109       0
	 --------------------------------------------------------

  DFHelper Memory: AOs need 0.129 GiB; user supplied 5.821 GiB. Using in-core AOs.


         ------------------------------------------------------------
                                     CPHF                           
                                  Rob Parrish                       
         ------------------------------------------------------------

  ==> Geometry <==

    Molecular point group: c1
    Full point group: C1

    Geometry (in Angstrom), charge = 0, multiplicity = 1:

       Center              X                  Y                   Z               Mass       
    ------------   -----------------  -----------------  -----------------  -----------------
         N           -1.886713617156    -0.520837562996    -0.013225860457    14.003074004430
         C           -2.842813617156     0.536062437004     0.250574139543    12.000000000000
         C           -0.489613617156    -0.250137562996    -0.027125860457    12.000000000000
         C            0.014086382844     1.010562437004     0.206074139543    12.000000000000
         C            0.433486382844    -1.245837562996    -0.276725860457    12.000000000000
         C            1.390286382844     1.243462437004     0.185574139543    12.000000000000
         C            1.791686382844    -1.026237562996    -0.299125860457    12.000000000000
         C            2.287086382844     0.228062437004    -0.066825860457    12.000000000000
         H           -2.200813617156    -1.499437562996    -0.198025860457     1.007825032230
         H           -0.633613617156     1.841262437004     0.408274139543     1.007825032230
         H            0.025986382844    -2.232037562996    -0.458525860457     1.007825032230
         H            1.810386382844     2.228162437004     0.366374139543     1.007825032230
         H            2.482986382844    -1.833837562996    -0.498825860457     1.007825032230
         H           -2.686213617156     1.424062437004    -0.396925860457     1.007825032230
         H           -3.868013617156     0.171062437004     0.032574139543     1.007825032230
         H           -2.859213617156     0.816562437004     1.339574139543     1.007825032230
         H            3.373486382844     0.415862437004    -0.082325860457     1.007825032230

  Nuclear repulsion =  344.812982698800852
  Reference energy  = -324.744366733205936

  ==> Basis Set <==

  Basis Set: 6-31G*
    Blend: 6-31G*
    Number of shells: 66
    Number of basis function: 138
    Number of Cartesian functions: 138
    Spherical Harmonics?: false
    Max angular momentum: 2

  ==> CGRSolver (by Rob Parrish) <==

   Number of roots    =         1
   Preconditioning    =    JACOBI
   Convergence cutoff =     1E-06
   Maximum iterations =       100

  ==> CPHFRHamiltonian (by Rob Parrish) <== 

  ==> MemDFJK: Density-Fitted J/K Matrices <==

    J tasked:                   Yes
    K tasked:                   Yes
    wK tasked:                   No
    OpenMP threads:               1
    Memory [MiB]:              5960
    Algorithm:                 Core
    Schwarz Cutoff:           1E-12
    Mask sparsity (%):       4.1378
    Fitting Condition:        1E-10

   => Auxiliary Basis Set <=

  Basis Set: (6-31G* AUX)
    Blend: CC-PVDZ-JKFIT
    Number of shells: 273
    Number of basis function: 873
    Number of Cartesian functions: 873
    Spherical Harmonics?: false
    Max angular momentum: 3

  ==> CPHF Iterations <==

  => Iterations <=

             Iter  Converged  Remaining    Residual
  CGR           1          0          1   9.779E-02
  CGR           2          0          1   2.600E-02
  CGR           3          0          1   1.618E-02
  CGR           4          0          1   5.493E-03
  CGR           5          0          1   2.205E-03
  CGR           6          0          1   8.451E-04
  CGR           7          0          1   2.669E-04
  CGR           8          0          1   6.691E-05
  CGR           9          0          1   1.816E-05
  CGR          10          0          1   5.321E-06
  CGR          11          0          1   1.832E-06
  CGR          12          1          0   5.124E-07

    CGRSolver converged.

  ==> DFCorrGrad: Density-Fitted Correlated Gradients <==

    OpenMP threads:              1
    Integrals threads:           1
    Memory [GiB]:            5.821
    Schwarz Cutoff:          0E+00
    Fitting Condition:       1E-10

   => Auxiliary Basis Set <=

  Basis Set: (6-31G* AUX)
    Blend: CC-PVDZ-JKFIT
    Number of shells: 273
    Number of basis function: 873
    Number of Cartesian functions: 873
    Spherical Harmonics?: false
    Max angular momentum: 3

	-----------------------------------------------------------
	 ==================> DF-MP2 Energies <==================== 
	-----------------------------------------------------------
	 Reference Energy          =    -324.7443667332059363 [Eh]
	 Singles Energy            =      -0.0000000000000000 [Eh]
	 Same-Spin Energy          =      -0.2853010978247310 [Eh]
	 Opposite-Spin Energy      =      -0.8044143759410455 [Eh]
	 Correlation Energy        =      -1.0897154737657764 [Eh]
	 Total Energy              =    -325.8340822069716864 [Eh]
	-----------------------------------------------------------
	 ================> DF-SCS-MP2 Energies <================== 
	-----------------------------------------------------------
	 SCS Same-Spin Scale       =       0.3333333333333333 [-]
	 SCS Opposite-Spin Scale   =       1.2000000000000000 [-]
	 SCS Same-Spin Energy      =      -0.0951003659415770 [Eh]
	 SCS Opposite-Spin Energy  =      -0.9652972511292546 [Eh]
	 SCS Correlation Energy    =      -1.0603976170708316 [Eh]
	 SCS Total Energy          =    -325.8047643502767414 [Eh]
	-----------------------------------------------------------


  -Total Gradient:
     Atom            X                  Y                   Z
    ------   -----------------  -----------------  -----------------
       1       -0.021125553794     0.008744320433     0.007334413015
       2        0.014739703955     0.007242545581    -0.009475604979
       3        0.038843139325     0.006892196648    -0.001528121888
       4       -0.010791812747    -0.023789631948    -0.004215603881
       5        0.008904955152     0.027680734520     0.005186571448
       6       -0.000336918733    -0.009646697672    -0.001783855028
       7       -0.003583415271     0.016916287553     0.003679304675
       8       -0.023859836482    -0.012626818639    -0.001387921862
       9       -0.007995413393    -0.028819614745    -0.005445306830
      10        0.006400267200    -0.006900530283    -0.002462879432
      11       -0.003076015596     0.007692008783     0.001724552206
      12        0.007003982256    -0.004463379075    -0.001271517427
      13        0.000838346033     0.006057743123     0.001209016835
      14       -0.001820148073     0.007402106365    -0.008631509584
      15       -0.011186366587    -0.000418884058     0.000128112447
      16       -0.003848968168    -0.002775352249     0.017361281186
      17        0.010894054922     0.000812965670    -0.000420930901


*** tstop() called on node44.bme.utexas.edu at Thu Nov  4 14:14:41 2021
Module time:
	user time   =      18.56 seconds =       0.31 minutes
	system time =       0.54 seconds =       0.01 minutes
	total time  =         20 seconds =       0.33 minutes
Total time:
	user time   =      24.28 seconds =       0.40 minutes
	system time =       0.65 seconds =       0.01 minutes
	total time  =         26 seconds =       0.43 minutes

			-----------------------------------------
			 OPTKING 2.0: for geometry optimizations 
			  - R.A. King,  Bethel University        
			-----------------------------------------
	At level 1: Red. Int., RFO, no backsteps, dynamic trust

	Internal coordinates to be generated automatically.
	Detected frag 1 with atoms:  1 2 3 4 5 6 7 8 9 10 11 12 13 14 15 16 17
	---Fragment 1 Bond Connectivity---
	 1 : 2 3 9
	 2 : 1 14 15 16
	 3 : 1 4 5
	 4 : 3 6 10
	 5 : 3 7 11
	 6 : 4 8 12
	 7 : 5 8 13
	 8 : 6 7 17
	 9 : 1
	 10 : 4
	 11 : 5
	 12 : 6
	 13 : 7
	 14 : 2
	 15 : 2
	 16 : 2
	 17 : 8

	Assuming in current code that numbering for constraints corresponds to unified fragment.
	Frozen dihedral atom list: 
	     3     1     2    14
	     2     1     3     4
	---Fragment 1 Geometry and Gradient---
	 N          -3.5653720136       -0.9842403499       -0.0249932540
	 C          -5.3721391621        1.0130111921        0.4735164979
	 C          -0.9252356437       -0.4726914878       -0.0512604472
	 C           0.0266194057        1.9096862386        0.3894236853
	 C           0.8191705427       -2.3542917909       -0.5229360881
	 C           2.6272604995        2.3498034532        0.3506842997
	 C           3.3857965663       -1.9393079337       -0.5652659533
	 C           4.3219668888        0.4309755454       -0.1262825744
	 H          -4.1589349896       -2.8335263363       -0.3742146420
	 H          -1.1973562058        3.4794817310        0.7715263078
	 H           0.0491071466       -4.2179396958       -0.8664882977
	 H           3.4211344448        4.2106167690        0.6923467832
	 H           4.6921642368       -3.4654507526       -0.9426442606
	 H          -5.0762080509        2.6910879915       -0.7500811684
	 H          -7.3094863860        0.3232611563        0.0615562025
	 H          -5.4031306706        1.5430793703        2.5314282485
	 H           6.3749653515        0.7858661118       -0.1555733293
	            -0.0211255538        0.0087443204        0.0073344130
	             0.0147397040        0.0072425456       -0.0094756050
	             0.0388431393        0.0068921966       -0.0015281219
	            -0.0107918127       -0.0237896319       -0.0042156039
	             0.0089049552        0.0276807345        0.0051865714
	            -0.0003369187       -0.0096466977       -0.0017838550
	            -0.0035834153        0.0169162876        0.0036793047
	            -0.0238598365       -0.0126268186       -0.0013879219
	            -0.0079954134       -0.0288196147       -0.0054453068
	             0.0064002672       -0.0069005303       -0.0024628794
	            -0.0030760156        0.0076920088        0.0017245522
	             0.0070039823       -0.0044633791       -0.0012715174
	             0.0008383460        0.0060577431        0.0012090168
	            -0.0018201481        0.0074021064       -0.0086315096
	            -0.0111863666       -0.0004188841        0.0001281124
	            -0.0038489682       -0.0027753522        0.0173612812
	             0.0108940549        0.0008129657       -0.0004209309

	Previous optimization step data not found.  Starting new optimization.

	---Fragment 1 Intrafragment Coordinates---
	 - Coordinate -           - BOHR/RAD -       - ANG/DEG -
	 R(1,2)           =         2.738966	       1.449398
	 R(1,3)           =         2.689367	       1.423151
	 R(1,9)           =         1.973355	       1.044255
	 R(2,14)          =         2.097787	       1.110101
	 R(2,15)          =         2.097327	       1.109858
	 R(2,16)          =         2.125308	       1.124664
	 R(3,4)           =         2.603066	       1.377483
	 R(3,5)           =         2.608803	       1.380519
	 R(4,6)           =         2.637904	       1.395919
	 R(4,10)          =         2.026913	       1.072596
	 R(5,7)           =         2.600302	       1.376021
	 R(5,11)          =         2.045534	       1.082450
	 R(6,8)           =         2.604117	       1.378040
	 R(6,12)          =         2.051730	       1.085729
	 R(7,8)           =         2.585994	       1.368449
	 R(7,13)          =         2.044046	       1.081662
	 R(8,17)          =         2.083653	       1.102621
	 B(1,2,14)        =         1.965018	     112.587220
	 B(1,2,15)        =         1.911100	     109.497979
	 B(1,2,16)        =         1.947354	     111.575193
	 B(1,3,4)         =         2.131055	     122.100441
	 B(1,3,5)         =         2.118815	     121.399159
	 B(2,1,3)         =         2.106741	     120.707355
	 B(2,1,9)         =         2.114309	     121.141003
	 B(3,1,9)         =         2.062135	     118.151642
	 B(3,4,6)         =         2.106811	     120.711383
	 B(3,4,10)        =         2.117551	     121.326743
	 B(3,5,7)         =         2.150577	     123.218972
	 B(3,5,11)        =         2.021678	     115.833606
	 B(4,3,5)         =         2.033316	     116.500399
	 B(4,6,8)         =         2.119215	     121.422101
	 B(4,6,12)        =         2.129794	     122.028180
	 B(5,7,8)         =         2.095368	     120.055734
	 B(5,7,13)        =         2.111433	     120.976223
	 B(6,4,10)        =         2.058823	     117.961874
	 B(6,8,7)         =         2.061084	     118.091411
	 B(6,8,17)        =         2.115635	     121.216945
	 B(7,5,11)        =         2.110931	     120.947422
	 B(7,8,17)        =         2.106467	     120.691644
	 B(8,6,12)        =         2.034176	     116.549719
	 B(8,7,13)        =         2.076384	     118.968043
	 B(14,2,15)       =         1.853353	     106.189310
	 B(14,2,16)       =         1.946936	     111.551221
	 B(15,2,16)       =         1.832520	     104.995664
	 D(1,3,4,6)       =         3.141508	     179.995124
	 D(1,3,4,10)      =        -0.000085	      -0.004875
	 D(1,3,5,7)       =        -3.141567	    -179.998554
	 D(1,3,5,11)      =         0.000155	       0.008867
	*D(2,1,3,4)       =         0.000089	       0.005106
	 D(2,1,3,5)       =         3.141564	     179.998375
	*D(3,1,2,14)      =         0.901579	      51.656668
	 D(3,1,2,15)      =         2.958996	     169.537980
	 D(3,1,2,16)      =        -1.303155	     -74.665272
	 D(3,4,6,8)       =         0.000029	       0.001674
	 D(3,4,6,12)      =         3.141566	     179.998490
	 D(3,5,7,8)       =         0.000088	       0.005056
	 D(3,5,7,13)      =        -3.141487	    -179.993971
	 D(4,3,1,9)       =        -3.141556	    -179.997911
	 D(4,3,5,7)       =        -0.000086	      -0.004926
	 D(4,3,5,11)      =        -3.141549	    -179.997505
	 D(4,6,8,7)       =        -0.000029	      -0.001669
	 D(4,6,8,17)      =         3.141463	     179.992589
	 D(5,3,1,9)       =        -0.000081	      -0.004642
	 D(5,3,4,6)       =         0.000027	       0.001544
	 D(5,3,4,10)      =        -3.141566	    -179.998455
	 D(5,7,8,6)       =        -0.000027	      -0.001569
	 D(5,7,8,17)      =        -3.141520	    -179.995858
	 D(6,8,7,13)      =         3.141549	     179.997479
	 D(7,8,6,12)      =        -3.141569	    -179.998651
	 D(8,6,4,10)      =        -3.141563	    -179.998327
	 D(8,7,5,11)      =         3.141545	     179.997268
	 D(9,1,2,14)      =        -2.239959	    -128.340224
	 D(9,1,2,15)      =        -0.182542	     -10.458912
	 D(9,1,2,16)      =         1.838492	     105.337836
	 D(10,4,6,12)     =        -0.000026	      -0.001511
	 D(11,5,7,13)     =        -0.000031	      -0.001760
	 D(12,6,8,17)     =        -0.000077	      -0.004393
	 D(13,7,8,17)     =         0.000056	       0.003189

	Current energy   :      -325.8340822070

	Generating empirical Hessian (Schlegel '84) for each fragment.
	Taking RFO optimization step.
	Going to follow RFO solution 1.
	Using RFO vector 1.
	Norm of target step-size    0.24398
	Projected energy change by RFO approximation:        -0.0174236610

	Back-transformation to cartesian coordinates...
	Could not converge backtransformation.
	Using first guess instead.

	Back-transformation to cartesian coordinates to adjust frozen coordinates...
	Successfully converged to displaced geometry.

	--- Internal Coordinate Step in ANG or DEG, aJ/ANG or AJ/DEG ---
	 ---------------------------------------------------------------------------
	   Coordinate                Previous        Force       Change         New 
	   ----------                --------       ------       ------       ------
	    1 R(1,2)          =      1.449398    -0.079363    -0.011743     1.437655
	    2 R(1,3)          =      1.423151    -0.266258    -0.039106     1.384046
	    3 R(1,9)          =      1.044255    -0.250261    -0.037817     1.006437
	    4 R(2,14)         =      1.110101    -0.088146    -0.016456     1.093645
	    5 R(2,15)         =      1.109858    -0.086059    -0.014831     1.095027
	    6 R(2,16)         =      1.124664    -0.133259    -0.024370     1.100294
	    7 R(3,4)          =      1.377483     0.218755     0.027262     1.404745
	    8 R(3,5)          =      1.380519     0.196238     0.026419     1.406938
	    9 R(4,6)          =      1.395919    -0.009563    -0.001930     1.393989
	   10 R(4,10)         =      1.072596     0.079697     0.013324     1.085921
	   11 R(5,7)          =      1.376021     0.086724     0.011486     1.387507
	   12 R(5,11)         =      1.082450     0.050583     0.008830     1.091280
	   13 R(6,8)          =      1.378040     0.151120     0.018690     1.396730
	   14 R(6,12)         =      1.085729     0.012768     0.002831     1.088560
	   15 R(7,8)          =      1.368449     0.256592     0.031247     1.399696
	   16 R(7,13)         =      1.081662     0.034688     0.006241     1.087903
	   17 R(8,17)         =      1.102621    -0.089622    -0.016387     1.086235
	   18 B(1,2,14)       =    112.587220    -0.000228    -1.529748   111.057472
	   19 B(1,2,15)       =    109.497979    -0.000323    -0.638925   108.859054
	   20 B(1,2,16)       =    111.575193     0.000345     1.133752   112.708945
	   21 B(1,3,4)        =    122.100441    -0.000146    -0.477781   121.622660
	   22 B(1,3,5)        =    121.399159    -0.000685    -1.949198   119.449961
	   23 B(2,1,3)        =    120.707355     0.000729     2.338159   123.045514
	   24 B(2,1,9)        =    121.141003    -0.000454    -1.536489   119.604514
	   25 B(3,1,9)        =    118.151642    -0.000275    -0.805270   117.346372
	   26 B(3,4,6)        =    120.711383    -0.000211    -0.800647   119.910736
	   27 B(3,4,10)       =    121.326743     0.000048     0.153839   121.480582
	   28 B(3,5,7)        =    123.218972    -0.000871    -2.394639   120.824332
	   29 B(3,5,11)       =    115.833606     0.000889     3.095658   118.929264
	   30 B(4,3,5)        =    116.500399     0.000831     2.426634   118.927033
	   31 B(4,6,8)        =    121.422101    -0.000107    -0.548145   120.873955
	   32 B(4,6,12)       =    122.028180    -0.000591    -2.453195   119.574985
	   33 B(5,7,8)        =    120.055734    -0.000049     0.085254   120.140988
	   34 B(5,7,13)       =    120.976223    -0.000333    -1.551064   119.425159
	   35 B(6,4,10)       =    117.961874     0.000163     0.645448   118.607322
	   36 B(6,8,7)        =    118.091411     0.000406     1.231512   119.322923
	   37 B(6,8,17)       =    121.216945    -0.000289    -0.974234   120.242711
	   38 B(7,5,11)       =    120.947422    -0.000018    -0.701093   120.246329
	   39 B(7,8,17)       =    120.691644    -0.000117    -0.257318   120.434326
	   40 B(8,6,12)       =    116.549719     0.000698     3.001242   119.550961
	   41 B(8,7,13)       =    118.968043     0.000382     1.465810   120.433852
	   42 B(14,2,15)      =    106.189310     0.000253     1.453284   107.642594
	   43 B(14,2,16)      =    111.551221    -0.000330    -2.716809   108.834412
	   44 B(15,2,16)      =    104.995664     0.000310     2.558928   107.554592
	   45 D(1,3,4,6)      =    179.995124     0.000002     0.274536   180.269660
	   46 D(1,3,4,10)     =     -0.004875     0.000007     0.704699     0.699825
	   47 D(1,3,5,7)      =   -179.998554    -0.000002    -0.275571  -180.274125
	   48 D(1,3,5,11)     =      0.008867    -0.000001    -0.183629    -0.174762
	   49 *D(2,1,3,4)     =      0.005106    -0.000000     0.000000     0.005106
	   50 D(2,1,3,5)      =    179.998375     0.000000     0.222723   180.221098
	   51 *D(3,1,2,14)    =     51.656668    -0.000000     0.000000    51.656668
	   52 D(3,1,2,15)     =    169.537980    -0.000009     0.458678   169.996658
	   53 D(3,1,2,16)     =    -74.665272     0.000079     3.901158   -70.764114
	   54 D(3,4,6,8)      =      0.001674    -0.000001    -0.010637    -0.008963
	   55 D(3,4,6,12)     =    179.998490     0.000001     0.107210   180.105701
	   56 D(3,5,7,8)      =      0.005056     0.000001     0.021670     0.026727
	   57 D(3,5,7,13)     =   -179.993971     0.000001     0.034223  -179.959749
	   58 D(4,3,1,9)      =   -179.997911     0.000014     0.697061  -179.300849
	   59 D(4,3,5,7)      =     -0.004926    -0.000002    -0.059060    -0.063986
	   60 D(4,3,5,11)     =   -179.997505    -0.000001     0.032881  -179.964623
	   61 D(4,6,8,7)      =     -0.001669    -0.000001    -0.027186    -0.028854
	   62 D(4,6,8,17)     =    179.992589     0.000001     0.051979   180.044568
	   63 D(5,3,1,9)      =     -0.004642     0.000014     0.919784     0.915142
	   64 D(5,3,4,6)      =      0.001544     0.000002     0.053223     0.054767
	   65 D(5,3,4,10)     =   -179.998455     0.000006     0.483386  -179.515069
	   66 D(5,7,8,6)      =     -0.001569     0.000001     0.021537     0.019968
	   67 D(5,7,8,17)     =   -179.995858    -0.000001    -0.057741  -180.053599
	   68 D(6,8,7,13)     =    179.997479     0.000001     0.008827   180.006306
	   69 D(7,8,6,12)     =   -179.998651    -0.000002    -0.144839  -180.143491
	   70 D(8,6,4,10)     =   -179.998327    -0.000005    -0.428499  -180.426826
	   71 D(8,7,5,11)     =    179.997268    -0.000001    -0.071210   179.926058
	   72 D(9,1,2,14)     =   -128.340224    -0.000014    -0.712152  -129.052376
	   73 D(9,1,2,15)     =    -10.458912    -0.000023    -0.253474   -10.712386
	   74 D(9,1,2,16)     =    105.337836     0.000065     3.189006   108.526842
	   75 D(10,4,6,12)    =     -0.001511    -0.000004    -0.310652    -0.312163
	   76 D(11,5,7,13)    =     -0.001760    -0.000001    -0.058658    -0.060418
	   77 D(12,6,8,17)    =     -0.004393    -0.000001    -0.065675    -0.070068
	   78 D(13,7,8,17)    =      0.003189    -0.000001    -0.070450    -0.067261
	 ---------------------------------------------------------------------------
	Successfully symmetrized geometry.

  ==> Convergence Check <==

  Measures of convergence in internal coordinates in au.
  Criteria marked as inactive (o), active & met (*), and active & unmet ( ).
  --------------------------------------------------------------------------------------------- ~
   Step     Total Energy     Delta E     MAX Force     RMS Force      MAX Disp      RMS Disp    ~
  --------------------------------------------------------------------------------------------- ~
    Convergence Criteria             o    4.50e-04 *    3.00e-04 *    1.80e-03 *    1.20e-03 *  ~
  --------------------------------------------------------------------------------------------- ~
      1    -325.83408221   -3.26e+02 o    3.23e-02      9.13e-03      7.39e-02      2.77e-02    ~
  ---------------------------------------------------------------------------------------------

	Writing optimization data to binary file.
	Structure for next step:
	Cartesian Geometry (in Angstrom)
	    N    -1.8516836027  -0.4937295506  -0.0084559047
	    C    -2.8392190494   0.5188788006   0.2489344482
	    C    -0.4918738939  -0.2361224251  -0.0202359985
	    C     0.0160805330   1.0508859625   0.2224596067
	    C     0.4084465964  -1.2841974743  -0.2856337992
	    C     1.3922774432   1.2713524629   0.1963719703
	    C     1.7769773411  -1.0568184575  -0.3100615860
	    C     2.2806162050   0.2266315492  -0.0687072975
	    H    -2.1442179759  -1.4413293289  -0.1799031973
	    H    -0.6406019441   1.8881357938   0.4392640907
	    H     0.0138507201  -2.2839076757  -0.4747541776
	    H     1.7800444447   2.2704983923   0.3869161539
	    H     2.4525333589  -1.8837335079  -0.5183132468
	    H    -2.6875005710   1.3887511160  -0.3963276403
	    H    -3.8308874393   0.1105183470   0.0277561500
	    H    -2.8435285296   0.8511215738   1.2978592983
	    H     3.3511548868   0.4098258459  -0.0858084997
			--------------------------
			 OPTKING Finished Execution 
			--------------------------

    Structure for next step:
    Molecular point group: c1
    Full point group: C1

    Geometry (in Angstrom), charge = 0, multiplicity = 1:

    N           -1.851736370636    -0.496472752354    -0.010134144519
    C           -2.839271821150     0.516135602836     0.247256209361
    C           -0.491926656452    -0.238865625768    -0.021914238360
    C            0.016027772470     1.048142766843     0.220781367765
    C            0.408393837342    -1.286940679080    -0.287312040068
    C            1.392224688027     1.268609268096     0.194693731255
    C            1.776924587457    -1.059561661412    -0.311739827020
    C            2.280563453356     0.223888350320    -0.070385537588
    H           -2.144270745001    -1.444072534300    -0.181581437786
    H           -0.640654707216     1.885392601435     0.437585852686
    H            0.013797959569    -2.286650884493    -0.476432419218
    H            1.779991691103     2.267755201488     0.385237915593
    H            2.452480607945    -1.886476715113    -0.519991488643
    H           -2.687553342190     1.386007921707    -0.398005881618
    H           -3.830940214972     0.107775147667     0.026077910322
    H           -2.843581301403     0.848378377326     1.296181063654
    H            3.351102139324     0.407082647690    -0.087486739840

gradient() will perform analytic gradient computation.
    SCF Algorithm Type (re)set to DF.

*** tstart() called on node44.bme.utexas.edu
*** at Thu Nov  4 14:14:41 2021

   => Loading Basis Set <=

    Name: 6-31G*
    Role: ORBITAL
    Keyword: BASIS
    atoms 1    entry N          line   128 file /home/bdw2292/miniconda3/envs/amoebamdpoltype/share/psi4/basis/6-31gs.gbs 
    atoms 2-8  entry C          line   111 file /home/bdw2292/miniconda3/envs/amoebamdpoltype/share/psi4/basis/6-31gs.gbs 
    atoms 9-17 entry H          line    44 file /home/bdw2292/miniconda3/envs/amoebamdpoltype/share/psi4/basis/6-31gs.gbs 


         ---------------------------------------------------------
                                   SCF
               by Justin Turney, Rob Parrish, Andy Simmonett
                          and Daniel G. A. Smith
                              RHF Reference
                        1 Threads,   7947 MiB Core
         ---------------------------------------------------------

  ==> Geometry <==

    Molecular point group: c1
    Full point group: C1

    Geometry (in Angstrom), charge = 0, multiplicity = 1:

       Center              X                  Y                   Z               Mass       
    ------------   -----------------  -----------------  -----------------  -----------------
         N           -1.851736370636    -0.496472752354    -0.010134144519    14.003074004430
         C           -2.839271821150     0.516135602836     0.247256209361    12.000000000000
         C           -0.491926656452    -0.238865625768    -0.021914238360    12.000000000000
         C            0.016027772470     1.048142766843     0.220781367765    12.000000000000
         C            0.408393837342    -1.286940679080    -0.287312040068    12.000000000000
         C            1.392224688027     1.268609268096     0.194693731255    12.000000000000
         C            1.776924587457    -1.059561661412    -0.311739827020    12.000000000000
         C            2.280563453356     0.223888350320    -0.070385537588    12.000000000000
         H           -2.144270745001    -1.444072534300    -0.181581437786     1.007825032230
         H           -0.640654707216     1.885392601435     0.437585852686     1.007825032230
         H            0.013797959569    -2.286650884493    -0.476432419218     1.007825032230
         H            1.779991691103     2.267755201488     0.385237915593     1.007825032230
         H            2.452480607945    -1.886476715113    -0.519991488643     1.007825032230
         H           -2.687553342190     1.386007921707    -0.398005881618     1.007825032230
         H           -3.830940214972     0.107775147667     0.026077910322     1.007825032230
         H           -2.843581301403     0.848378377326     1.296181063654     1.007825032230
         H            3.351102139324     0.407082647690    -0.087486739840     1.007825032230

  Running in c1 symmetry.

  Rotational constants: A =      0.16586  B =      0.05076  C =      0.03916 [cm^-1]
  Rotational constants: A =   4972.33407  B =   1521.74755  C =   1173.84512 [MHz]
  Nuclear repulsion =  344.020309387153475

  Charge       = 0
  Multiplicity = 1
  Electrons    = 58
  Nalpha       = 29
  Nbeta        = 29

  ==> Algorithm <==

  SCF Algorithm Type is DF.
  DIIS enabled.
  MOM disabled.
  Fractional occupation disabled.
  Guess Type is READ.
  Energy threshold   = 1.00e-10
  Density threshold  = 1.00e-10
  Integral threshold = 0.00e+00

  ==> Primary Basis <==

  Basis Set: 6-31G*
    Blend: 6-31G*
    Number of shells: 66
    Number of basis function: 138
    Number of Cartesian functions: 138
    Spherical Harmonics?: false
    Max angular momentum: 2

   => Loading Basis Set <=

    Name: (6-31G* AUX)
    Role: JKFIT
    Keyword: DF_BASIS_SCF
    atoms 1    entry N          line   171 file /home/bdw2292/miniconda3/envs/amoebamdpoltype/share/psi4/basis/cc-pvdz-jkfit.gbs 
    atoms 2-8  entry C          line   121 file /home/bdw2292/miniconda3/envs/amoebamdpoltype/share/psi4/basis/cc-pvdz-jkfit.gbs 
    atoms 9-17 entry H          line    51 file /home/bdw2292/miniconda3/envs/amoebamdpoltype/share/psi4/basis/cc-pvdz-jkfit.gbs 

   => Loading Basis Set <=

    Name: 6-31G*
    Role: ORBITAL
    Keyword: BASIS
    atoms 1    entry N          line   128 file /home/bdw2292/miniconda3/envs/amoebamdpoltype/share/psi4/basis/6-31gs.gbs 
    atoms 2-8  entry C          line   111 file /home/bdw2292/miniconda3/envs/amoebamdpoltype/share/psi4/basis/6-31gs.gbs 
    atoms 9-17 entry H          line    44 file /home/bdw2292/miniconda3/envs/amoebamdpoltype/share/psi4/basis/6-31gs.gbs 

  Reading orbitals from file 180, no projection.

  ==> Pre-Iterations <==

   -------------------------------------------------------
    Irrep   Nso     Nmo     Nalpha   Nbeta   Ndocc  Nsocc
   -------------------------------------------------------
     A        138     138       0       0       0       0
   -------------------------------------------------------
    Total     138     138      29      29      29       0
   -------------------------------------------------------

  ==> Integral Setup <==

  DFHelper Memory: AOs need 0.129 GiB; user supplied 5.821 GiB. Using in-core AOs.

  ==> MemDFJK: Density-Fitted J/K Matrices <==

    J tasked:                   Yes
    K tasked:                   Yes
    wK tasked:                   No
    OpenMP threads:               1
    Memory [MiB]:              5960
    Algorithm:                 Core
    Schwarz Cutoff:           1E-12
    Mask sparsity (%):       4.1273
    Fitting Condition:        1E-10

   => Auxiliary Basis Set <=

  Basis Set: (6-31G* AUX)
    Blend: CC-PVDZ-JKFIT
    Number of shells: 273
    Number of basis function: 873
    Number of Cartesian functions: 873
    Spherical Harmonics?: false
    Max angular momentum: 3

  Minimum eigenvalue in the overlap matrix is 4.6378403144E-04.
  Using Symmetric Orthogonalization.

  SCF Guess: Orbitals guess was supplied from a previous computation.

  ==> Iterations <==

                           Total Energy        Delta E     RMS |[F,P]|

   @DF-RHF iter   0:  -324.74652492898940   -3.24747e+02   1.34688e-03 
   @DF-RHF iter   1:  -324.75276261855771   -6.23769e-03   2.20221e-04 DIIS
   @DF-RHF iter   2:  -324.75322882375912   -4.66205e-04   1.15117e-04 DIIS
   @DF-RHF iter   3:  -324.75335947182430   -1.30648e-04   2.70124e-05 DIIS
   @DF-RHF iter   4:  -324.75337587806155   -1.64062e-05   1.10753e-05 DIIS
   @DF-RHF iter   5:  -324.75337963077891   -3.75272e-06   5.73649e-06 DIIS
   @DF-RHF iter   6:  -324.75338115105001   -1.52027e-06   2.49093e-06 DIIS
   @DF-RHF iter   7:  -324.75338145425508   -3.03205e-07   9.80011e-07 DIIS
   @DF-RHF iter   8:  -324.75338149576362   -4.15085e-08   2.75192e-07 DIIS
   @DF-RHF iter   9:  -324.75338149846471   -2.70109e-09   7.90896e-08 DIIS
   @DF-RHF iter  10:  -324.75338149862381   -1.59105e-10   3.29682e-08 DIIS
   @DF-RHF iter  11:  -324.75338149864342   -1.96110e-11   8.21027e-09 DIIS
   @DF-RHF iter  12:  -324.75338149864598   -2.55795e-12   3.44636e-09 DIIS
   @DF-RHF iter  13:  -324.75338149864632   -3.41061e-13   1.07087e-09 DIIS
   @DF-RHF iter  14:  -324.75338149864513    1.19371e-12   4.81001e-10 DIIS
   @DF-RHF iter  15:  -324.75338149864689   -1.76215e-12   2.31296e-10 DIIS
   @DF-RHF iter  16:  -324.75338149864490    1.98952e-12   8.72582e-11 DIIS
  Energy and wave function converged.


  ==> Post-Iterations <==

    Orbital Energies [Eh]
    ---------------------

    Doubly Occupied:                                                      

       1A    -15.564363     2A    -11.274377     3A    -11.258669  
       4A    -11.230045     5A    -11.229305     6A    -11.217143  
       7A    -11.215201     8A    -11.211229     9A     -1.235576  
      10A     -1.120661    11A     -1.003605    12A     -0.994176  
      13A     -0.914907    14A     -0.819209    15A     -0.793416  
      16A     -0.707583    17A     -0.666363    18A     -0.634314  
      19A     -0.607138    20A     -0.600912    21A     -0.576759  
      22A     -0.572389    23A     -0.536319    24A     -0.501063  
      25A     -0.496245    26A     -0.477948    27A     -0.414109  
      28A     -0.326793    29A     -0.271515  

    Virtual:                                                              

      30A      0.152746    31A      0.173936    32A      0.227841  
      33A      0.247087    34A      0.259077    35A      0.303755  
      36A      0.312337    37A      0.322345    38A      0.330794  
      39A      0.345591    40A      0.367780    41A      0.383676  
      42A      0.392349    43A      0.458765    44A      0.487886  
      45A      0.512777    46A      0.531131    47A      0.565829  
      48A      0.662750    49A      0.739088    50A      0.751046  
      51A      0.758272    52A      0.767783    53A      0.782521  
      54A      0.815193    55A      0.829988    56A      0.837331  
      57A      0.839654    58A      0.849776    59A      0.854081  
      60A      0.856573    61A      0.878716    62A      0.921368  
      63A      0.938320    64A      1.016796    65A      1.022786  
      66A      1.064045    67A      1.088383    68A      1.101536  
      69A      1.116582    70A      1.125303    71A      1.130974  
      72A      1.146352    73A      1.173289    74A      1.190844  
      75A      1.196918    76A      1.219804    77A      1.226742  
      78A      1.233783    79A      1.286832    80A      1.293827  
      81A      1.337162    82A      1.357473    83A      1.445921  
      84A      1.454488    85A      1.516074    86A      1.526747  
      87A      1.612819    88A      1.669083    89A      1.706315  
      90A      1.721819    91A      1.731313    92A      1.785914  
      93A      1.796808    94A      1.808323    95A      1.830370  
      96A      1.853326    97A      2.074230    98A      2.098743  
      99A      2.147621   100A      2.179632   101A      2.238350  
     102A      2.253885   103A      2.301490   104A      2.314300  
     105A      2.352432   106A      2.401259   107A      2.412630  
     108A      2.431818   109A      2.477647   110A      2.481394  
     111A      2.490575   112A      2.534072   113A      2.561771  
     114A      2.615988   115A      2.653479   116A      2.675125  
     117A      2.790260   118A      2.854686   119A      2.875458  
     120A      2.908924   121A      2.947677   122A      2.984802  
     123A      3.016426   124A      3.103601   125A      3.113496  
     126A      3.132207   127A      3.249427   128A      3.273307  
     129A      3.560411   130A      3.808588   131A      4.425209  
     132A      4.524003   133A      4.554312   134A      4.571828  
     135A      4.692125   136A      4.766202   137A      4.823046  
     138A      5.145320  

    Final Occupation by Irrep:
              A 
    DOCC [    29 ]

  @DF-RHF Final Energy:  -324.75338149864490

   => Energetics <=

    Nuclear Repulsion Energy =            344.0203093871534747
    One-Electron Energy =               -1120.6047181543717670
    Two-Electron Energy =                 451.8310272685733935
    Total Energy =                       -324.7533814986448988

Computation Completed


Properties will be evaluated at   0.000000,   0.000000,   0.000000 [a0]

Properties computed using the SCF density matrix

  Nuclear Dipole Moment: [e a0]
     X:    -4.2598      Y:     1.2063      Z:     0.4515

  Electronic Dipole Moment: [e a0]
     X:     3.6368      Y:    -1.3671      Z:    -0.4619

  Dipole Moment: [e a0]
     X:    -0.6229      Y:    -0.1608      Z:    -0.0104     Total:     0.6434

  Dipole Moment: [D]
     X:    -1.5833      Y:    -0.4088      Z:    -0.0265     Total:     1.6354


*** tstop() called on node44.bme.utexas.edu at Thu Nov  4 14:14:46 2021
Module time:
	user time   =       4.71 seconds =       0.08 minutes
	system time =       0.08 seconds =       0.00 minutes
	total time  =          5 seconds =       0.08 minutes
Total time:
	user time   =      29.09 seconds =       0.48 minutes
	system time =       0.77 seconds =       0.01 minutes
	total time  =         31 seconds =       0.52 minutes

*** tstart() called on node44.bme.utexas.edu
*** at Thu Nov  4 14:14:46 2021


  //>>>>>>>>>>>>>>>>>>>>>>>>>>>>>>>>>>>//
  //               DFMP2               //
  //<<<<<<<<<<<<<<<<<<<<<<<<<<<<<<<<<<<//

   => Loading Basis Set <=

    Name: (6-31G* AUX)
    Role: RIFIT
    Keyword: DF_BASIS_MP2
    atoms 1    entry N          line   197 file /home/bdw2292/miniconda3/envs/amoebamdpoltype/share/psi4/basis/cc-pvdz-ri.gbs 
    atoms 2-8  entry C          line   159 file /home/bdw2292/miniconda3/envs/amoebamdpoltype/share/psi4/basis/cc-pvdz-ri.gbs 
    atoms 9-17 entry H          line    19 file /home/bdw2292/miniconda3/envs/amoebamdpoltype/share/psi4/basis/cc-pvdz-ri.gbs 

	 --------------------------------------------------------
	                          DF-MP2                         
	      2nd-Order Density-Fitted Moller-Plesset Theory     
	              RMP2 Wavefunction,   1 Threads             
	                                                         
	        Rob Parrish, Justin Turney, Andy Simmonett,      
	           Ed Hohenstein, and C. David Sherrill          
	 --------------------------------------------------------

   => Auxiliary Basis Set <=

  Basis Set: (6-31G* AUX)
    Blend: CC-PVDZ-RI
    Number of shells: 198
    Number of basis function: 574
    Number of Cartesian functions: 663
    Spherical Harmonics?: true
    Max angular momentum: 3

	 --------------------------------------------------------
	                 NBF =   138, NAUX =   574
	 --------------------------------------------------------
	   CLASS    FOCC     OCC    AOCC    AVIR     VIR    FVIR
	   PAIRS       0      29      29     109     109       0
	 --------------------------------------------------------

  DFHelper Memory: AOs need 0.129 GiB; user supplied 5.821 GiB. Using in-core AOs.


         ------------------------------------------------------------
                                     CPHF                           
                                  Rob Parrish                       
         ------------------------------------------------------------

  ==> Geometry <==

    Molecular point group: c1
    Full point group: C1

    Geometry (in Angstrom), charge = 0, multiplicity = 1:

       Center              X                  Y                   Z               Mass       
    ------------   -----------------  -----------------  -----------------  -----------------
         N           -1.851736370636    -0.496472752354    -0.010134144519    14.003074004430
         C           -2.839271821150     0.516135602836     0.247256209361    12.000000000000
         C           -0.491926656452    -0.238865625768    -0.021914238360    12.000000000000
         C            0.016027772470     1.048142766843     0.220781367765    12.000000000000
         C            0.408393837342    -1.286940679080    -0.287312040068    12.000000000000
         C            1.392224688027     1.268609268096     0.194693731255    12.000000000000
         C            1.776924587457    -1.059561661412    -0.311739827020    12.000000000000
         C            2.280563453356     0.223888350320    -0.070385537588    12.000000000000
         H           -2.144270745001    -1.444072534300    -0.181581437786     1.007825032230
         H           -0.640654707216     1.885392601435     0.437585852686     1.007825032230
         H            0.013797959569    -2.286650884493    -0.476432419218     1.007825032230
         H            1.779991691103     2.267755201488     0.385237915593     1.007825032230
         H            2.452480607945    -1.886476715113    -0.519991488643     1.007825032230
         H           -2.687553342190     1.386007921707    -0.398005881618     1.007825032230
         H           -3.830940214972     0.107775147667     0.026077910322     1.007825032230
         H           -2.843581301403     0.848378377326     1.296181063654     1.007825032230
         H            3.351102139324     0.407082647690    -0.087486739840     1.007825032230

  Nuclear repulsion =  344.020309387153475
  Reference energy  = -324.753381498644899

  ==> Basis Set <==

  Basis Set: 6-31G*
    Blend: 6-31G*
    Number of shells: 66
    Number of basis function: 138
    Number of Cartesian functions: 138
    Spherical Harmonics?: false
    Max angular momentum: 2

  ==> CGRSolver (by Rob Parrish) <==

   Number of roots    =         1
   Preconditioning    =    JACOBI
   Convergence cutoff =     1E-06
   Maximum iterations =       100

  ==> CPHFRHamiltonian (by Rob Parrish) <== 

  ==> MemDFJK: Density-Fitted J/K Matrices <==

    J tasked:                   Yes
    K tasked:                   Yes
    wK tasked:                   No
    OpenMP threads:               1
    Memory [MiB]:              5960
    Algorithm:                 Core
    Schwarz Cutoff:           1E-12
    Mask sparsity (%):       4.1273
    Fitting Condition:        1E-10

   => Auxiliary Basis Set <=

  Basis Set: (6-31G* AUX)
    Blend: CC-PVDZ-JKFIT
    Number of shells: 273
    Number of basis function: 873
    Number of Cartesian functions: 873
    Spherical Harmonics?: false
    Max angular momentum: 3

  ==> CPHF Iterations <==

  => Iterations <=

             Iter  Converged  Remaining    Residual
  CGR           1          0          1   1.034E-01
  CGR           2          0          1   3.227E-02
  CGR           3          0          1   2.035E-02
  CGR           4          0          1   6.411E-03
  CGR           5          0          1   2.481E-03
  CGR           6          0          1   8.818E-04
  CGR           7          0          1   2.707E-04
  CGR           8          0          1   7.120E-05
  CGR           9          0          1   1.988E-05
  CGR          10          0          1   6.531E-06
  CGR          11          0          1   2.263E-06
  CGR          12          1          0   7.163E-07

    CGRSolver converged.

  ==> DFCorrGrad: Density-Fitted Correlated Gradients <==

    OpenMP threads:              1
    Integrals threads:           1
    Memory [GiB]:            5.821
    Schwarz Cutoff:          0E+00
    Fitting Condition:       1E-10

   => Auxiliary Basis Set <=

  Basis Set: (6-31G* AUX)
    Blend: CC-PVDZ-JKFIT
    Number of shells: 273
    Number of basis function: 873
    Number of Cartesian functions: 873
    Spherical Harmonics?: false
    Max angular momentum: 3

	-----------------------------------------------------------
	 ==================> DF-MP2 Energies <==================== 
	-----------------------------------------------------------
	 Reference Energy          =    -324.7533814986448988 [Eh]
	 Singles Energy            =      -0.0000000000000000 [Eh]
	 Same-Spin Energy          =      -0.2851140062663063 [Eh]
	 Opposite-Spin Energy      =      -0.8042954310942650 [Eh]
	 Correlation Energy        =      -1.0894094373605714 [Eh]
	 Total Energy              =    -325.8427909360054855 [Eh]
	-----------------------------------------------------------
	 ================> DF-SCS-MP2 Energies <================== 
	-----------------------------------------------------------
	 SCS Same-Spin Scale       =       0.3333333333333333 [-]
	 SCS Opposite-Spin Scale   =       1.2000000000000000 [-]
	 SCS Same-Spin Energy      =      -0.0950380020887688 [Eh]
	 SCS Opposite-Spin Energy  =      -0.9651545173131180 [Eh]
	 SCS Correlation Energy    =      -1.0601925194018866 [Eh]
	 SCS Total Energy          =    -325.8135740180467792 [Eh]
	-----------------------------------------------------------


  -Total Gradient:
     Atom            X                  Y                   Z
    ------   -----------------  -----------------  -----------------
       1       -0.006597334513    -0.003612240791     0.001330003260
       2        0.005340871076     0.003179843415    -0.001667446458
       3        0.005821176730     0.001169740029    -0.000894096874
       4       -0.002170044238    -0.001270498657    -0.000344415557
       5        0.001630717083     0.001195995825     0.000295795341
       6       -0.003716078429     0.004387723611     0.001138308552
       7       -0.000798113452    -0.003774530188    -0.000750091311
       8        0.000660092034    -0.000462943046    -0.000069058187
       9        0.001799188214     0.001088914726    -0.000296725644
      10        0.001299164217     0.001709420841    -0.000111282578
      11       -0.000883153806    -0.001206649264    -0.000233245508
      12        0.001062124463     0.000424473843     0.000062784819
      13        0.000031907590    -0.000517196835    -0.000128838934
      14        0.000148870236    -0.001316919187     0.000238125712
      15       -0.002271375728    -0.000178874078    -0.000215581137
      16       -0.001230915878    -0.001001458671     0.001610872856
      17       -0.000127095602     0.000185198427     0.000034891649


*** tstop() called on node44.bme.utexas.edu at Thu Nov  4 14:15:05 2021
Module time:
	user time   =      18.80 seconds =       0.31 minutes
	system time =       0.42 seconds =       0.01 minutes
	total time  =         19 seconds =       0.32 minutes
Total time:
	user time   =      47.89 seconds =       0.80 minutes
	system time =       1.19 seconds =       0.02 minutes
	total time  =         50 seconds =       0.83 minutes

			-----------------------------------------
			 OPTKING 2.0: for geometry optimizations 
			  - R.A. King,  Bethel University        
			-----------------------------------------
	At level 1: Red. Int., RFO, no backsteps, dynamic trust

	Previous internal coordinate definitions found.
	---Fragment 1 Geometry and Gradient---
	 N          -3.4992745971       -0.9381975307       -0.0191507577
	 C          -5.3654461377        0.9753549330        0.4672465185
	 C          -0.9296066545       -0.4513906135       -0.0414119087
	 C           0.0302881004        1.9807027697        0.4172163187
	 C           0.7717525039       -2.4319654232       -0.5429410683
	 C           2.6309233655        2.3973240769        0.3679178304
	 C           3.3579008159       -2.0022813531       -0.5891028955
	 C           4.3096403386        0.4230876648       -0.1330093892
	 H          -4.0520844469       -2.7289015951       -0.3431391869
	 H          -1.2106619376        3.5628756557        0.8269174180
	 H           0.0260743647       -4.3211439162       -0.9003267896
	 H           3.3636968018        4.2854362504        0.7279941536
	 H           4.6345166770       -3.5649243336       -0.9826415011
	 H          -5.0787397643        2.6191753797       -0.7521221126
	 H          -7.2394278093        0.2036655122        0.0492801084
	 H          -5.3735898751        1.6032027839        2.4494272193
	 H           6.3326652618        0.7692747146       -0.1653259779
	            -0.0065973345       -0.0036122408        0.0013300033
	             0.0053408711        0.0031798434       -0.0016674465
	             0.0058211767        0.0011697400       -0.0008940969
	            -0.0021700442       -0.0012704987       -0.0003444156
	             0.0016307171        0.0011959958        0.0002957953
	            -0.0037160784        0.0043877236        0.0011383086
	            -0.0007981135       -0.0037745302       -0.0007500913
	             0.0006600920       -0.0004629430       -0.0000690582
	             0.0017991882        0.0010889147       -0.0002967256
	             0.0012991642        0.0017094208       -0.0001112826
	            -0.0008831538       -0.0012066493       -0.0002332455
	             0.0010621245        0.0004244738        0.0000627848
	             0.0000319076       -0.0005171968       -0.0001288389
	             0.0001488702       -0.0013169192        0.0002381257
	            -0.0022713757       -0.0001788741       -0.0002155811
	            -0.0012309159       -0.0010014587        0.0016108729
	            -0.0001270956        0.0001851984        0.0000348916

	---Fragment 1 Intrafragment Coordinates---
	 - Coordinate -           - BOHR/RAD -       - ANG/DEG -
	 R(1,2)           =         2.716774	       1.437655
	 R(1,3)           =         2.615467	       1.384046
	 R(1,9)           =         1.901891	       1.006437
	 R(2,14)          =         2.066690	       1.093645
	 R(2,15)          =         2.069301	       1.095027
	 R(2,16)          =         2.079255	       1.100294
	 R(3,4)           =         2.654584	       1.404745
	 R(3,5)           =         2.658727	       1.406938
	 R(4,6)           =         2.634257	       1.393989
	 R(4,10)          =         2.052092	       1.085921
	 R(5,7)           =         2.622007	       1.387507
	 R(5,11)          =         2.062221	       1.091280
	 R(6,8)           =         2.639437	       1.396730
	 R(6,12)          =         2.057080	       1.088560
	 R(7,8)           =         2.645041	       1.399696
	 R(7,13)          =         2.055839	       1.087903
	 R(8,17)          =         2.052686	       1.086235
	 B(1,2,14)        =         1.938319	     111.057472
	 B(1,2,15)        =         1.899949	     108.859054
	 B(1,2,16)        =         1.967142	     112.708945
	 B(1,3,4)         =         2.122716	     121.622660
	 B(1,3,5)         =         2.084795	     119.449961
	 B(2,1,3)         =         2.147549	     123.045514
	 B(2,1,9)         =         2.087493	     119.604514
	 B(3,1,9)         =         2.048081	     117.346372
	 B(3,4,6)         =         2.092837	     119.910736
	 B(3,4,10)        =         2.120236	     121.480582
	 B(3,5,7)         =         2.108782	     120.824332
	 B(3,5,11)        =         2.075707	     118.929264
	 B(4,3,5)         =         2.075668	     118.927033
	 B(4,6,8)         =         2.109649	     120.873955
	 B(4,6,12)        =         2.086977	     119.574985
	 B(5,7,8)         =         2.096856	     120.140988
	 B(5,7,13)        =         2.084362	     119.425159
	 B(6,4,10)        =         2.070088	     118.607322
	 B(6,8,7)         =         2.082578	     119.322923
	 B(6,8,17)        =         2.098631	     120.242711
	 B(7,5,11)        =         2.098694	     120.246329
	 B(7,8,17)        =         2.101976	     120.434326
	 B(8,6,12)        =         2.086558	     119.550961
	 B(8,7,13)        =         2.101967	     120.433852
	 B(14,2,15)       =         1.878718	     107.642594
	 B(14,2,16)       =         1.899519	     108.834412
	 B(15,2,16)       =         1.877182	     107.554592
	 D(1,3,4,6)       =        -3.136886	    -179.730340
	 D(1,3,4,10)      =         0.012214	       0.699825
	 D(1,3,5,7)       =         3.136808	     179.725875
	 D(1,3,5,11)      =        -0.003050	      -0.174762
	*D(2,1,3,4)       =         0.000089	       0.005106
	 D(2,1,3,5)       =        -3.137734	    -179.778902
	*D(3,1,2,14)      =         0.901579	      51.656668
	 D(3,1,2,15)      =         2.967001	     169.996658
	 D(3,1,2,16)      =        -1.235067	     -70.764114
	 D(3,4,6,8)       =        -0.000156	      -0.008963
	 D(3,4,6,12)      =        -3.139748	    -179.894299
	 D(3,5,7,8)       =         0.000466	       0.026727
	 D(3,5,7,13)      =        -3.140890	    -179.959749
	 D(4,3,1,9)       =        -3.129390	    -179.300849
	 D(4,3,5,7)       =        -0.001117	      -0.063986
	 D(4,3,5,11)      =        -3.140975	    -179.964623
	 D(4,6,8,7)       =        -0.000504	      -0.028854
	 D(4,6,8,17)      =        -3.140815	    -179.955432
	 D(5,3,1,9)       =         0.015972	       0.915142
	 D(5,3,4,6)       =         0.000956	       0.054767
	 D(5,3,4,10)      =        -3.133129	    -179.515069
	 D(5,7,8,6)       =         0.000349	       0.019968
	 D(5,7,8,17)      =         3.140657	     179.946401
	 D(6,8,7,13)      =        -3.141483	    -179.993694
	 D(7,8,6,12)      =         3.139088	     179.856509
	 D(8,6,4,10)      =         3.134143	     179.573174
	 D(8,7,5,11)      =         3.140302	     179.926058
	 D(9,1,2,14)      =        -2.252389	    -129.052376
	 D(9,1,2,15)      =        -0.186966	     -10.712386
	 D(9,1,2,16)      =         1.894151	     108.526842
	 D(10,4,6,12)     =        -0.005448	      -0.312163
	 D(11,5,7,13)     =        -0.001054	      -0.060418
	 D(12,6,8,17)     =        -0.001223	      -0.070068
	 D(13,7,8,17)     =        -0.001174	      -0.067261

	Current energy   :      -325.8427909360

	Energy change for the previous step:
		Projected    :        -0.0174236610
		Actual       :        -0.0087087290

	Performing BFGS update.
	Previous computed or guess Hessian on step 1.
	Steps to be used in Hessian update: 1
	Taking RFO optimization step.
	Going to follow RFO solution 1.
	Using RFO vector 1.
	Norm of target step-size    0.07741
	Projected energy change by RFO approximation:        -0.0005867973

	Back-transformation to cartesian coordinates...
	Could not converge backtransformation.
	Using first guess instead.

	Back-transformation to cartesian coordinates to adjust frozen coordinates...
	Successfully converged to displaced geometry.

	--- Internal Coordinate Step in ANG or DEG, aJ/ANG or AJ/DEG ---
	 ---------------------------------------------------------------------------
	   Coordinate                Previous        Force       Change         New 
	   ----------                --------       ------       ------       ------
	    1 R(1,2)          =      1.437655     0.007337     0.001093     1.438748
	    2 R(1,3)          =      1.384046    -0.025644    -0.004837     1.379209
	    3 R(1,9)          =      1.006437     0.012339     0.001303     1.007740
	    4 R(2,14)         =      1.093645     0.009617     0.001551     1.095196
	    5 R(2,15)         =      1.095027    -0.017855    -0.003737     1.091290
	    6 R(2,16)         =      1.100294    -0.010200    -0.002489     1.097805
	    7 R(3,4)          =      1.404745    -0.005211     0.000097     1.404842
	    8 R(3,5)          =      1.406938    -0.001958     0.000519     1.407457
	    9 R(4,6)          =      1.393989     0.010035     0.001326     1.395314
	   10 R(4,10)         =      1.085921    -0.004203    -0.000347     1.085573
	   11 R(5,7)          =      1.387507     0.013210     0.002026     1.389533
	   12 R(5,11)         =      1.091280    -0.012071    -0.001970     1.089310
	   13 R(6,8)          =      1.396730    -0.030244    -0.003656     1.393074
	   14 R(6,12)         =      1.088560    -0.006418    -0.001087     1.087473
	   15 R(7,8)          =      1.399696    -0.024457    -0.002430     1.397266
	   16 R(7,13)         =      1.087903    -0.003605    -0.000498     1.087405
	   17 R(8,17)         =      1.086235     0.000779    -0.000218     1.086017
	   18 B(1,2,14)       =    111.057472     0.000056     0.097126   111.154598
	   19 B(1,2,15)       =    108.859054    -0.000059     0.041502   108.900556
	   20 B(1,2,16)       =    112.708945    -0.000006    -0.256334   112.452611
	   21 B(1,3,4)        =    121.622660     0.000104     0.280062   121.902722
	   22 B(1,3,5)        =    119.449961     0.000076     0.161692   119.611653
	   23 B(2,1,3)        =    123.045514     0.000228     0.835898   123.881411
	   24 B(2,1,9)        =    119.604514    -0.000219    -0.927917   118.676597
	   25 B(3,1,9)        =    117.346372    -0.000010     0.064219   117.410591
	   26 B(3,4,6)        =    119.910736     0.000064     0.206398   120.117134
	   27 B(3,4,10)       =    121.480582    -0.000192    -0.868390   120.612192
	   28 B(3,5,7)        =    120.824332     0.000004    -0.006055   120.818278
	   29 B(3,5,11)       =    118.929264     0.000028     0.186757   119.116021
	   30 B(4,3,5)        =    118.927033    -0.000180    -0.444726   118.482308
	   31 B(4,6,8)        =    120.873955     0.000103     0.284730   121.158685
	   32 B(4,6,12)       =    119.574985    -0.000117    -0.515084   119.059900
	   33 B(5,7,8)        =    120.140988     0.000130     0.422704   120.563692
	   34 B(5,7,13)       =    119.425159    -0.000041    -0.131962   119.293197
	   35 B(6,4,10)       =    118.607322     0.000128     0.658397   119.265719
	   36 B(6,8,7)        =    119.322923    -0.000121    -0.463121   118.859802
	   37 B(6,8,17)       =    120.242711     0.000076     0.299662   120.542373
	   38 B(7,5,11)       =    120.246329    -0.000032    -0.180795   120.065534
	   39 B(7,8,17)       =    120.434326     0.000044     0.163311   120.597637
	   40 B(8,6,12)       =    119.550961     0.000014     0.230282   119.781243
	   41 B(8,7,13)       =    120.433852    -0.000089    -0.290763   120.143089
	   42 B(14,2,15)      =    107.642594     0.000030     0.605365   108.247959
	   43 B(14,2,16)      =    108.834412    -0.000095    -1.094453   107.739959
	   44 B(15,2,16)      =    107.554592     0.000078     0.665312   108.219904
	   45 D(1,3,4,6)      =   -179.730340     0.000002     0.464101  -179.266238
	   46 D(1,3,4,10)     =      0.699825     0.000004     0.849659     1.549484
	   47 D(1,3,5,7)      =    179.725875    -0.000002    -0.428749   179.297126
	   48 D(1,3,5,11)     =     -0.174762    -0.000001    -0.379395    -0.554158
	   49 *D(2,1,3,4)     =      0.005106     0.000000    -0.000000     0.005106
	   50 D(2,1,3,5)      =   -179.778902     0.000001     0.456831  -179.322071
	   51 *D(3,1,2,14)    =     51.656668    -0.000000    -0.000000    51.656668
	   52 D(3,1,2,15)     =    169.996658     0.000008     0.828717   170.825375
	   53 D(3,1,2,16)     =    -70.764114     0.000020     1.528682   -69.235433
	   54 D(3,4,6,8)      =     -0.008963    -0.000000     0.011281     0.002318
	   55 D(3,4,6,12)     =   -179.894299     0.000000     0.047491  -179.846809
	   56 D(3,5,7,8)      =      0.026727    -0.000000    -0.060158    -0.033431
	   57 D(3,5,7,13)     =   -179.959749     0.000000    -0.018565  -179.978314
	   58 D(4,3,1,9)      =   -179.300849     0.000008     1.375565  -177.925284
	   59 D(4,3,5,7)      =     -0.063986    -0.000001     0.010956    -0.053031
	   60 D(4,3,5,11)     =   -179.964623    -0.000000     0.060310  -179.904314
	   61 D(4,6,8,7)      =     -0.028854    -0.000001    -0.059645    -0.088499
	   62 D(4,6,8,17)     =   -179.955432     0.000000     0.023963  -179.931469
	   63 D(5,3,1,9)      =      0.915142     0.000009     1.832396     2.747538
	   64 D(5,3,4,6)      =      0.054767     0.000001     0.013498     0.068265
	   65 D(5,3,4,10)     =   -179.515069     0.000003     0.399055  -179.116013
	   66 D(5,7,8,6)      =      0.019968     0.000001     0.083771     0.103739
	   67 D(5,7,8,17)     =    179.946401    -0.000000     0.000218   179.946619
	   68 D(6,8,7,13)     =   -179.993694     0.000001     0.041847  -179.951847
	   69 D(7,8,6,12)     =    179.856509    -0.000001    -0.096957   179.759552
	   70 D(8,6,4,10)     =    179.573174    -0.000003    -0.375611   179.197563
	   71 D(8,7,5,11)     =    179.926058    -0.000001    -0.109613   179.816445
	   72 D(9,1,2,14)     =   -129.052376    -0.000008    -1.385081  -130.437457
	   73 D(9,1,2,15)     =    -10.712386    -0.000000    -0.556364   -11.268750
	   74 D(9,1,2,16)     =    108.526842     0.000012     0.143601   108.670443
	   75 D(10,4,6,12)    =     -0.312163    -0.000002    -0.339400    -0.651563
	   76 D(11,5,7,13)    =     -0.060418    -0.000000    -0.068020    -0.128437
	   77 D(12,6,8,17)    =     -0.070068    -0.000000    -0.013350    -0.083418
	   78 D(13,7,8,17)    =     -0.067261    -0.000000    -0.041706    -0.108967
	 ---------------------------------------------------------------------------
	Successfully symmetrized geometry.

  ==> Convergence Check <==

  Measures of convergence in internal coordinates in au.
  Criteria marked as inactive (o), active & met (*), and active & unmet ( ).
  ---------------------------------------------------------------------------------------------
   Step     Total Energy     Delta E     MAX Force     RMS Force      MAX Disp      RMS Disp   
  ---------------------------------------------------------------------------------------------
    Convergence Criteria             o    4.50e-04 *    3.00e-04 *    1.80e-03 *    1.20e-03 *
  ---------------------------------------------------------------------------------------------
      2    -325.84279094   -8.71e-03 o    3.67e-03      1.16e-03      3.20e-02      8.76e-03    ~
  ---------------------------------------------------------------------------------------------

	Writing optimization data to binary file.
	Structure for next step:
	Cartesian Geometry (in Angstrom)
	    N    -1.8500678712  -0.4888878725  -0.0110831080
	    C    -2.8513136858   0.5135652316   0.2390980777
	    C    -0.4941400723  -0.2366144178  -0.0170535671
	    C     0.0233646106   1.0465890144   0.2261732552
	    C     0.4068662163  -1.2836475853  -0.2869515356
	    C     1.4014618608   1.2630191587   0.1960405744
	    C     1.7771228185  -1.0545509391  -0.3136429143
	    C     2.2886652823   0.2232681398  -0.0731124986
	    H    -2.1455931707  -1.4404091317  -0.1621222385
	    H    -0.6393175022   1.8762365962   0.4520205854
	    H     0.0167191965  -2.2824756283  -0.4785867235
	    H     1.7835031268   2.2626687055   0.3892860272
	    H     2.4507972321  -1.8815304426  -0.5251069987
	    H    -2.7057112653   1.3870723166  -0.4052928451
	    H    -3.8349159365   0.0917293880   0.0258022789
	    H    -2.8454307658   0.8613292830   1.2803485118
	    H     3.3595615187   0.4027652114  -0.0929865868
			--------------------------
			 OPTKING Finished Execution 
			--------------------------

    Structure for next step:
    Molecular point group: c1
    Full point group: C1

    Geometry (in Angstrom), charge = 0, multiplicity = 1:

    N           -1.851203680595    -0.489831077502    -0.010882904026
    C           -2.852449499067     0.512622030540     0.239298282710
    C           -0.495275876337    -0.237557621869    -0.016853363113
    C            0.022228808570     1.045645815440     0.226373460165
    C            0.405730415835    -1.284590793419    -0.286751332694
    C            1.400326064216     1.262075960548     0.196240779221
    C            1.775987023355    -1.055494146339    -0.313442711525
    C            2.287529489164     0.222324937537    -0.072912294867
    H           -2.146728981275    -1.441352340459    -0.161922035127
[...]
	 R(7,X)           =         3.269795	       1.730301
	 R(7,Y)           =        -2.108148	      -1.115584
	 R(7,Z)           =        -0.652311	      -0.345188
	 R(8,X)           =         4.327971	       2.290264
	 R(8,Y)           =         0.259613	       0.137381
	 R(8,Z)           =        -0.158396	      -0.083819
	 R(9,X)           =        -4.082529	      -2.160381
	 R(9,Y)           =        -2.555872	      -1.352509
	 R(9,Z)           =         0.562731	       0.297784
	 R(10,X)          =        -1.072591	      -0.567591
	 R(10,Y)          =         3.549622	       1.878379
	 R(10,Z)          =         0.984601	       0.521028
	 R(11,X)          =        -0.150832	      -0.079817
	 R(11,Y)          =        -4.277439	      -2.263523
	 R(11,Z)          =        -1.038428	      -0.549513
	 R(12,X)          =         3.525974	       1.865865
	 R(12,Y)          =         4.127925	       2.184404
	 R(12,Z)          =         0.812035	       0.429711
	 R(13,X)          =         4.481009	       2.371248
	 R(13,Y)          =        -3.708843	      -1.962635
	 R(13,Z)          =        -1.092453	      -0.578101
	 R(14,X)          =        -4.881160	      -2.582999
	 R(14,Y)          =         2.815734	       1.490022
	 R(14,Z)          =        -0.705942	      -0.373569
	 R(15,X)          =        -7.222251	      -3.821850
	 R(15,Y)          =         0.544756	       0.288272
	 R(15,Z)          =         0.040904	       0.021645
	 R(16,X)          =        -5.280810	      -2.794484
	 R(16,Y)          =         1.833264	       0.970121
	 R(16,Z)          =         2.467757	       1.305881
	 R(17,X)          =         6.363255	       3.367290
	 R(17,Y)          =         0.522221	       0.276348
	 R(17,Z)          =        -0.210316	      -0.111294

	Current energy   :      -325.8438180205

	Energy change for the previous step:
		Projected    :        -0.0000000830
		Actual       :        -0.0000002445

	Performing BFGS update.
	Previous computed or guess Hessian on step 1.
	Steps to be used in Hessian update: 22 21
	Taking RFO optimization step.
	Going to follow RFO solution 1.
	Rejecting RFO root 1 because normalization gives large value.
	Rejecting RFO root 2 because normalization gives large value.
	Using RFO vector 3.
	Norm of target step-size    0.00405
	Projected energy change by RFO approximation:         0.0000003923

	Back-transformation to cartesian coordinates...
	Successfully converged to displaced geometry.

	Back-transformation to cartesian coordinates to adjust frozen coordinates...
	Successfully converged to displaced geometry.

	--- Internal Coordinate Step in ANG or DEG, aJ/ANG or AJ/DEG ---
	 ---------------------------------------------------------------------------
	   Coordinate                Previous        Force       Change         New 
	   ----------                --------       ------       ------       ------
	    1 R(1,2)          =      1.445170     0.000006    -0.000002     1.445169
	    2 R(1,3)          =      1.393702    -0.000080    -0.000049     1.393653
	    3 R(1,9)          =      1.012076     0.000095     0.000051     1.012128
	    4 R(2,14)         =      1.092084     0.000071    -0.000003     1.092081
	    5 R(2,15)         =      1.091635     0.000011    -0.000038     1.091597
	    6 R(2,16)         =      1.101130     0.000052    -0.000000     1.101130
	    7 R(3,4)          =      1.402790     0.000165     0.000048     1.402839
	    8 R(3,5)          =      1.405905    -0.000001     0.000008     1.405913
	    9 R(4,6)          =      1.395774     0.000000    -0.000003     1.395770
	   10 R(4,10)         =      1.085298     0.000007     0.000002     1.085300
	   11 R(5,7)          =      1.389042     0.000005     0.000000     1.389043
	   12 R(5,11)         =      1.088656    -0.000017    -0.000007     1.088649
	   13 R(6,8)          =      1.392102     0.000018    -0.000007     1.392096
	   14 R(6,12)         =      1.087570     0.000033     0.000010     1.087580
	   15 R(7,8)          =      1.397066    -0.000052    -0.000014     1.397052
	   16 R(7,13)         =      1.087454    -0.000018    -0.000012     1.087443
	   17 R(8,17)         =      1.086302    -0.000005    -0.000004     1.086298
	   18 B(1,2,14)       =    109.268898    -0.000000     0.004690   109.273588
	   19 B(1,2,15)       =    108.756226     0.000000     0.005206   108.761431
	   20 B(1,2,16)       =    114.071693     0.000002    -0.008934   114.062759
	   21 B(1,3,4)        =    122.739631     0.000000    -0.005850   122.733781
	   22 B(1,3,5)        =    118.743919     0.000000     0.010212   118.754130
	   23 B(2,1,3)        =    121.275097    -0.000000     0.004343   121.279440
	   24 B(2,1,9)        =    115.153161    -0.000001     0.010464   115.163625
	   25 B(3,1,9)        =    114.438530     0.000001     0.020160   114.458690
	   26 B(3,4,6)        =    120.209386     0.000000     0.003486   120.212872
	   27 B(3,4,10)       =    120.517199     0.000000     0.002937   120.520136
	   28 B(3,5,7)        =    120.810438     0.000000    -0.000701   120.809737
	   29 B(3,5,11)       =    118.979686     0.000000     0.006337   118.986024
	   30 B(4,3,5)        =    118.515420    -0.000001    -0.004474   118.510946
	   31 B(4,6,8)        =    120.967802    -0.000000    -0.000529   120.967272
	   32 B(4,6,12)       =    119.035279     0.000000     0.000827   119.036106
	   33 B(5,7,8)        =    120.496320     0.000001     0.004821   120.501141
	   34 B(5,7,13)       =    119.341598    -0.000001    -0.002929   119.338669
	   35 B(6,4,10)       =    119.272549    -0.000001    -0.006469   119.266080
	   36 B(6,8,7)        =    118.981758    -0.000000    -0.002561   118.979197
	   37 B(6,8,17)       =    120.528113     0.000000     0.001363   120.529477
	   38 B(7,5,11)       =    120.202346    -0.000000    -0.005695   120.196651
	   39 B(7,8,17)       =    120.490124     0.000000     0.001183   120.491307
	   40 B(8,6,12)       =    119.986093    -0.000000    -0.000467   119.985626
	   41 B(8,7,13)       =    120.160077     0.000000    -0.001883   120.158194
	   42 B(14,2,15)      =    108.355160    -0.000000     0.007882   108.363042
	   43 B(14,2,16)      =    107.680578    -0.000001    -0.010282   107.670297
	   44 B(15,2,16)      =    108.567464     0.000000     0.002171   108.569636
	   45 D(1,3,4,6)      =   -178.125623     0.000000     0.018369  -178.107253
	   46 D(1,3,4,10)     =      2.215590     0.000000     0.027229     2.242819
	   47 D(1,3,5,7)      =    179.117839    -0.000000    -0.018683   179.099156
	   48 D(1,3,5,11)     =      0.114062     0.000000    -0.014748     0.099314
	   49 *D(2,1,3,4)     =      0.005106    -0.000000     0.000000     0.005106
	   50 D(2,1,3,5)      =   -179.619701    -0.000000     0.019790  -179.599911
	   51 *D(3,1,2,14)    =     51.656668    -0.000000     0.000000    51.656668
	   52 D(3,1,2,15)     =    169.756801    -0.000000     0.015178   169.771980
	   53 D(3,1,2,16)     =    -68.910483     0.000000     0.015782   -68.894701
	   54 D(3,4,6,8)      =     -1.494313    -0.000000    -0.010644    -1.504957
	   55 D(3,4,6,12)     =    179.702919    -0.000000    -0.001290   179.701629
	   56 D(3,5,7,8)      =     -0.490398     0.000000     0.012688    -0.477710
	   57 D(3,5,7,13)     =   -179.976254     0.000000     0.011621  -179.964633
	   58 D(4,3,1,9)      =   -145.308004     0.000000    -0.063493  -145.371497
	   59 D(4,3,5,7)      =     -0.523003    -0.000000     0.000270    -0.522733
	   60 D(4,3,5,11)     =   -179.526780    -0.000000     0.004206  -179.522575
	   61 D(4,6,8,7)      =      0.466093     0.000000     0.023238     0.489330
	   62 D(4,6,8,17)     =   -179.558137     0.000000    -0.002263  -179.560401
	   63 D(5,3,1,9)      =     35.067188     0.000000    -0.043703    35.023486
	   64 D(5,3,4,6)      =      1.500001     0.000000    -0.001323     1.498678
	   65 D(5,3,4,10)     =   -178.158786     0.000000     0.007537  -178.151250
	   66 D(5,7,8,6)      =      0.523779    -0.000000    -0.024205     0.499574
	   67 D(5,7,8,17)     =   -179.452001    -0.000000     0.001286  -179.450715
	   68 D(6,8,7,13)     =   -179.994580    -0.000000    -0.023135  -180.017715
	   69 D(7,8,6,12)     =    179.257560     0.000000     0.013810   179.271371
	   70 D(8,6,4,10)     =    178.168710    -0.000000    -0.019361   178.149349
	   71 D(8,7,5,11)     =    178.501231    -0.000000     0.008825   178.510056
	   72 D(9,1,2,14)     =   -163.259694    -0.000000     0.066998  -163.192696
	   73 D(9,1,2,15)     =    -45.159560    -0.000000     0.082176   -45.077384
	   74 D(9,1,2,16)     =     76.173155     0.000000     0.082780    76.255935
	   75 D(10,4,6,12)    =     -0.634058    -0.000000    -0.010007    -0.644065
	   76 D(11,5,7,13)    =     -0.984625    -0.000000     0.007758    -0.976867
	   77 D(12,6,8,17)    =     -0.766670    -0.000000    -0.011690    -0.778360
	   78 D(13,7,8,17)    =      0.029640     0.000000     0.002356     0.031996
	   79 R(1,X)          =     -1.881142    -0.000048    -0.000032    -1.881174
	   80 R(1,Y)          =     -0.436750    -0.000131    -0.000011    -0.436760
	   81 R(1,Z)          =     -0.030405    -0.000063     0.000136    -0.030269
	   82 R(2,X)          =     -2.812495     0.000037    -0.000013    -2.812508
	   83 R(2,Y)          =      0.629760    -0.000074     0.000093     0.629853
	   84 R(2,Z)          =      0.258829     0.000029    -0.000192     0.258637
	   85 R(3,X)          =     -0.504890    -0.000131    -0.000054    -0.504944
	   86 R(3,Y)          =     -0.216983    -0.000122    -0.000183    -0.217166
	   87 R(3,Z)          =     -0.024321    -0.000026     0.000216    -0.024106
	   88 R(4,X)          =      0.062303     0.000013    -0.000041     0.062262
	   89 R(4,Y)          =      1.034461    -0.000031    -0.000093     1.034369
	   90 R(4,Z)          =      0.258522     0.000103     0.000029     0.258551
	   91 R(5,X)          =      0.352568     0.000005     0.000032     0.352600
	   92 R(5,Y)          =     -1.290846    -0.000033    -0.000103    -1.290948
	   93 R(5,Z)          =     -0.321230     0.000049     0.000140    -0.321090
	   94 R(6,X)          =      1.446861    -0.000001    -0.000069     1.446792
	   95 R(6,Y)          =      1.204740     0.000032     0.000045     1.204784
	   96 R(6,Z)          =      0.211761    -0.000060    -0.000199     0.211563
	   97 R(7,X)          =      1.730301    -0.000007     0.000005     1.730306
	   98 R(7,Y)          =     -1.115584     0.000090     0.000081    -1.115503
	   99 R(7,Z)          =     -0.345188     0.000003    -0.000099    -0.345287
	  100 R(8,X)          =      2.290264     0.000029    -0.000007     2.290257
	  101 R(8,Y)          =      0.137381     0.000016     0.000056     0.137438
	  102 R(8,Z)          =     -0.083819     0.000003    -0.000031    -0.083851
	  103 R(9,X)          =     -2.160381    -0.000279    -0.000467    -2.160849
	  104 R(9,Y)          =     -1.352509    -0.000136    -0.000229    -1.352738
	  105 R(9,Z)          =      0.297784     0.000023    -0.000685     0.297099
	  106 R(10,X)         =     -0.567591     0.000145     0.000021    -0.567570
	  107 R(10,Y)         =      1.878379     0.000041    -0.000101     1.878278
	  108 R(10,Z)         =      0.521028     0.000217     0.000213     0.521241
	  109 R(11,X)         =     -0.079817     0.000186     0.000224    -0.079593
	  110 R(11,Y)         =     -2.263523    -0.000074    -0.000194    -2.263718
	  111 R(11,Z)         =     -0.549513    -0.000038     0.000199    -0.549313
	  112 R(12,X)         =      1.865865     0.000008    -0.000119     1.865746
	  113 R(12,Y)         =      2.184404     0.000077     0.000113     2.184517
	  114 R(12,Z)         =      0.429711    -0.000114    -0.000360     0.429351
	  115 R(13,X)         =      2.371248    -0.000065     0.000020     2.371268
	  116 R(13,Y)         =     -1.962635     0.000071     0.000174    -1.962462
	  117 R(13,Z)         =     -0.578101    -0.000007    -0.000340    -0.578441
	  118 R(14,X)         =     -2.582999     0.000160     0.000029    -2.582970
	  119 R(14,Y)         =      1.490022    -0.000017    -0.000008     1.490014
	  120 R(14,Z)         =     -0.373569     0.000029    -0.000310    -0.373878
	  121 R(15,X)         =     -3.821850     0.000008    -0.000033    -3.821883
	  122 R(15,Y)         =      0.288272     0.000067     0.000096     0.288368
	  123 R(15,Z)         =      0.021645    -0.000102     0.000061     0.021706
	  124 R(16,X)         =     -2.794484    -0.000084     0.000204    -2.794280
	  125 R(16,Y)         =      0.970121     0.000202     0.000385     0.970506
	  126 R(16,Z)         =      1.305881    -0.000003    -0.000291     1.305590
	  127 R(17,X)         =      3.367290     0.000022    -0.000027     3.367263
	  128 R(17,Y)         =      0.276348     0.000021     0.000139     0.276487
	  129 R(17,Z)         =     -0.111294    -0.000045    -0.000254    -0.111548
	 ---------------------------------------------------------------------------
	Successfully symmetrized geometry.

  ==> Convergence Check <==

  Measures of convergence in internal coordinates in au.
  Criteria marked as inactive (o), active & met (*), and active & unmet ( ).
  ---------------------------------------------------------------------------------------------
   Step     Total Energy     Delta E     MAX Force     RMS Force      MAX Disp      RMS Disp   
  ---------------------------------------------------------------------------------------------
    Convergence Criteria             o    4.50e-04 *    3.00e-04 *    1.80e-03 *    1.20e-03 *
  ---------------------------------------------------------------------------------------------
     23    -325.84381802   -2.45e-07 o    3.38e-05 *    9.31e-06 *    1.44e-03 *    3.57e-04 *  ~
  ---------------------------------------------------------------------------------------------


  **** Optimization is complete! (in 23 steps) ****

  ==> Optimization Summary <==

  Measures of convergence in internal coordinates in au.
  --------------------------------------------------------------------------------------------------------------- ~
   Step         Total Energy             Delta E       MAX Force       RMS Force        MAX Disp        RMS Disp  ~
  --------------------------------------------------------------------------------------------------------------- ~
      1    -325.843106845481   -325.843106845481      0.00078767      0.00013395      0.00624867      0.00142485  ~
      2    -325.843118630483     -0.000011785002      0.00018225      0.00004630      0.01576612      0.00341217  ~
      3    -325.843132153970     -0.000013523487      0.00049157      0.00008743      0.02504275      0.00543386  ~
      4    -325.843152298243     -0.000020144273      0.00074827      0.00012851      0.04340056      0.00880603  ~
      5    -325.843195636099     -0.000043337856      0.00034324      0.00008862      0.04685566      0.00880606  ~
      6    -325.843243041227     -0.000047405128      0.00045339      0.00011158      0.04783983      0.00880648  ~
      7    -325.843290181036     -0.000047139809      0.00085296      0.00017235      0.05296907      0.00880551  ~
      8    -325.843352802867     -0.000062621831      0.00111556      0.00018837      0.05163516      0.00880666  ~
      9    -325.843421815994     -0.000069013126      0.00050887      0.00011207      0.05089888      0.00880747  ~
     10    -325.843489180162     -0.000067364168      0.00037987      0.00008629      0.05117518      0.00880800  ~
     11    -325.843550813187     -0.000061633025      0.00048552      0.00010814      0.04788504      0.00880749  ~
     12    -325.843611969451     -0.000061156264      0.00041631      0.00010352      0.05200034      0.00880835  ~
     13    -325.843669907589     -0.000057938139      0.00042624      0.00007324      0.05295349      0.00880884  ~
     14    -325.843719993403     -0.000050085814      0.00046932      0.00007242      0.05240069      0.00880908  ~
     15    -325.843761627332     -0.000041633928      0.00040014      0.00006062      0.05263990      0.00880928  ~
     16    -325.843792942600     -0.000031315268      0.00021839      0.00004281      0.05024156      0.00881074  ~
     17    -325.843810016532     -0.000017073932      0.00042481      0.00006330      0.04373573      0.00750425  ~
     18    -325.843812555686     -0.000002539154      0.00037627      0.00007548      0.00846954      0.00218866  ~
     19    -325.843815490689     -0.000002935003      0.00012516      0.00002896      0.00302756      0.00073602  ~
     20    -325.843816279901     -0.000000789212      0.00008384      0.00001693      0.00256368      0.00066572  ~
     21    -325.843817019957     -0.000000740056      0.00009092      0.00001517      0.00354477      0.00111167  ~
     22    -325.843817775959     -0.000000756002      0.00003843      0.00001109      0.00210362      0.00058751  ~
     23    -325.843818020493     -0.000000244535      0.00003384      0.00000931      0.00144478      0.00035653  ~
  --------------------------------------------------------------------------------------------------------------- ~

	Writing optimization data to binary file.
	Final energy is   -325.8438180204931
	Final (previous) structure:
	Cartesian Geometry (in Angstrom)
	    N    -1.8811420438  -0.4367497112  -0.0304045813
	    C    -2.8124952777   0.6297598034   0.2588292768
	    C    -0.5048897281  -0.2169830877  -0.0243214364
	    C     0.0623026166   1.0344611475   0.2585220757
	    C     0.3525680945  -1.2908455456  -0.3212297809
	    C     1.4468614259   1.2047395323   0.2117611675
	    C     1.7303011421  -1.1155839441  -0.3451881220
	    C     2.2902636265   0.1373814959  -0.0838194369
	    H    -2.1603814759  -1.3525092066   0.2977844084
	    H    -0.5675908220   1.8783788034   0.5210283425
	    H    -0.0798170123  -2.2635234334  -0.5495125800
	    H     1.8658648926   2.1844040222   0.4297105255
	    H     2.3712480310  -1.9626351681  -0.5781011357
	    H    -2.5829986189   1.4900224078  -0.3735686650
	    H    -3.8218504346   0.2882723136   0.0216454368
	    H    -2.7944842333   0.9701213259   1.3058808326
	    H     3.3672895548   0.2763476191  -0.1112944767
	Saving final (previous) structure.
			--------------------------
			 OPTKING Finished Execution 
			--------------------------

    Final optimized geometry and variables:
    Molecular point group: c1
    Full point group: C1

    Geometry (in Angstrom), charge = 0, multiplicity = 1:

    N           -1.881142051244    -0.436749712957    -0.030404581389
    C           -2.812495288730     0.629759805862     0.258829277794
    C           -0.504889730087    -0.216983088539    -0.024321436538
    C            0.062302616874     1.034461151525     0.258522076727
    C            0.352568095897    -1.290845550659    -0.321229782164
    C            1.446861431582     1.204739537014     0.211761168354
    C            1.730301148855    -1.115583948489    -0.345188123330
    C            2.290263635550     0.137381496427    -0.083819437201
    H           -2.160381484384    -1.352509211933     0.297784409576
    H           -0.567590824274     1.878378810742     0.521028344503
    H           -0.079817012662    -2.263523442248    -0.549512582114
    H            1.865864899966     2.184404030814     0.429710527174
    H            2.371248040314    -1.962635175823    -0.578101137977
    H           -2.582998629057     1.490022413705    -0.373568666438
    H           -3.821850449607     0.288272314745     0.021645436874
    H           -2.794484244273     0.970121329709     1.305880837687
    H            3.367289568063     0.276347620175    -0.111294477097

	Removing binary optimization data file.
	Cleaning optimization helper files.

    Psi4 stopped on: Thursday, 04 November 2021 02:29PM
    Psi4 wall time for execution: 0:15:17.93

*** Psi4 exiting successfully. Buy a developer a beer!
