
    -----------------------------------------------------------------------
          Psi4: An Open-Source Ab Initio Electronic Structure Package
                               Psi4 1.3.2 release

                         Git: Rev {HEAD} ecbda83 


    R. M. Parrish, L. A. Burns, D. G. A. Smith, A. C. Simmonett,
    A. E. DePrince III, E. G. Hohenstein, U. Bozkaya, A. Yu. Sokolov,
    R. Di Remigio, R. M. Richard, J. F. Gonthier, A. M. James,
    H. R. McAlexander, A. Kumar, M. Saitow, X. Wang, B. P. Pritchard,
    P. Verma, H. F. Schaefer III, K. Patkowski, R. A. King, E. F. Valeev,
    F. A. Evangelista, J. M. Turney, T. D. Crawford, and C. D. Sherrill,
    J. Chem. Theory Comput. 13(7) pp 3185--3197 (2017).
    (doi: 10.1021/acs.jctc.7b00174)


                         Additional Contributions by
    P. Kraus, H. Kruse, M. H. Lechner, M. C. Schieber, R. A. Shaw,
    A. Alenaizan, R. Galvelis, Z. L. Glick, S. Lehtola, and J. P. Misiewicz

    -----------------------------------------------------------------------


    Psi4 started on: Thursday, 04 November 2021 02:08PM

    Process ID: 33892
    Host:       node44.bme.utexas.edu
    PSIDATADIR: /home/bdw2292/miniconda3/envs/amoebamdpoltype/share/psi4
    Memory:     500.0 MiB
    Threads:    1
    
  ==> Input File <==

--------------------------------------------------------------------------
molecule { 
0 1
N          4.75960       -0.28370        3.57990
C          3.68450        0.32970        2.90270
C          4.10300        0.54460        1.49040
C          5.45820        0.01300        1.45740
C          5.83990       -0.47630        2.69740
H          4.76100       -0.55540        4.58480
O          2.58000        0.63820        3.39650
C          3.32760        1.04510        0.55700
H          6.05830        0.00180        0.61790
H          6.74980       -0.90370        2.93090
H          3.68720        1.16550       -0.40280
H          2.35840        1.31820        0.78290
}
memory 100GB
set_num_threads(12)
psi4_io.set_default_path("/scratch/bdw2292/Psi4-farH_in17")
set maxiter 500
set freeze_core True
set PROPERTIES_ORIGIN ["COM"]
set cubeprop_tasks ['esp']
E, wfn = properties('hf/MINIX',properties=['dipole'],return_wfn=True)
cubeprop(wfn)
fchk(wfn, "farH_in17-esp_frag.fchk")
oeprop(wfn,"WIBERG_LOWDIN_INDICES","MULLIKEN_CHARGES")
clean()
--------------------------------------------------------------------------

  Memory set to  93.132 GiB by Python driver.
  Threads set to 12 by Python driver.

*** tstart() called on node44.bme.utexas.edu
*** at Thu Nov  4 14:08:43 2021

   => Loading Basis Set <=

    Name: MINIX
    Role: ORBITAL
    Keyword: BASIS
    atoms 1       entry N          line    88 file /home/bdw2292/miniconda3/envs/amoebamdpoltype/share/psi4/basis/minix.gbs 
    atoms 2-5, 8  entry C          line    74 file /home/bdw2292/miniconda3/envs/amoebamdpoltype/share/psi4/basis/minix.gbs 
    atoms 6, 9-12 entry H          line    24 file /home/bdw2292/miniconda3/envs/amoebamdpoltype/share/psi4/basis/minix.gbs 
    atoms 7       entry O          line   102 file /home/bdw2292/miniconda3/envs/amoebamdpoltype/share/psi4/basis/minix.gbs 


         ---------------------------------------------------------
                                   SCF
               by Justin Turney, Rob Parrish, Andy Simmonett
                          and Daniel G. A. Smith
                              RHF Reference
                       12 Threads,  95367 MiB Core
         ---------------------------------------------------------

  ==> Geometry <==

    Molecular point group: c1
    Full point group: C1

    Geometry (in Angstrom), charge = 0, multiplicity = 1:

       Center              X                  Y                   Z               Mass       
    ------------   -----------------  -----------------  -----------------  -----------------
         N            0.543628148788    -0.544050015302     1.240861667951    14.003074004430
         C           -0.531471851212     0.069349984698     0.563661667951    12.000000000000
         C           -0.112971851212     0.284249984698    -0.848638332049    12.000000000000
         C            1.242228148788    -0.247350015302    -0.881638332049    12.000000000000
         C            1.623928148788    -0.736650015302     0.358361667951    12.000000000000
         H            0.545028148788    -0.815750015302     2.245761667951     1.007825032230
         O           -1.635971851212     0.377849984698     1.057461667951    15.994914619570
         C           -0.888371851212     0.784749984698    -1.782038332049    12.000000000000
         H            1.842328148788    -0.258550015302    -1.721138332049     1.007825032230
         H            2.533828148788    -1.164050015302     0.591861667951     1.007825032230
         H           -0.528771851212     0.905149984698    -2.741838332049     1.007825032230
         H           -1.857571851212     1.057849984698    -1.556138332049     1.007825032230

  Running in c1 symmetry.

  Rotational constants: A =      0.13644  B =      0.11546  C =      0.06255 [cm^-1]
  Rotational constants: A =   4090.34274  B =   3461.38875  C =   1875.11144 [MHz]
  Nuclear repulsion =  273.908953944887742

  Charge       = 0
  Multiplicity = 1
  Electrons    = 50
  Nalpha       = 25
  Nbeta        = 25

  ==> Algorithm <==

  SCF Algorithm Type is DF.
  DIIS enabled.
  MOM disabled.
  Fractional occupation disabled.
  Guess Type is SAD.
  Energy threshold   = 1.00e-06
  Density threshold  = 1.00e-06
  Integral threshold = 0.00e+00

  ==> Primary Basis <==

  Basis Set: MINIX
    Blend: MINIX
    Number of shells: 26
    Number of basis function: 40
    Number of Cartesian functions: 40
    Spherical Harmonics?: true
    Max angular momentum: 1

   => Loading Basis Set <=

    Name: (MINIX AUX)
    Role: JKFIT
    Keyword: DF_BASIS_SCF
    atoms 1       entry N          line   263 file /home/bdw2292/miniconda3/envs/amoebamdpoltype/share/psi4/basis/def2-svp-jkfit.gbs 
    atoms 2-5, 8  entry C          line   203 file /home/bdw2292/miniconda3/envs/amoebamdpoltype/share/psi4/basis/def2-svp-jkfit.gbs 
    atoms 6, 9-12 entry H          line    23 file /home/bdw2292/miniconda3/envs/amoebamdpoltype/share/psi4/basis/def2-svp-jkfit.gbs 
    atoms 7       entry O          line   323 file /home/bdw2292/miniconda3/envs/amoebamdpoltype/share/psi4/basis/def2-svp-jkfit.gbs 

  ==> Pre-Iterations <==

   -------------------------------------------------------
    Irrep   Nso     Nmo     Nalpha   Nbeta   Ndocc  Nsocc
   -------------------------------------------------------
     A         40      40       0       0       0       0
   -------------------------------------------------------
    Total      40      40      25      25      25       0
   -------------------------------------------------------

  ==> Integral Setup <==

  DFHelper Memory: AOs need 0.011 GiB; user supplied 69.849 GiB. Using in-core AOs.

  ==> MemDFJK: Density-Fitted J/K Matrices <==

    J tasked:                   Yes
    K tasked:                   Yes
    wK tasked:                   No
    OpenMP threads:              12
    Memory [MiB]:             71525
    Algorithm:                 Core
    Schwarz Cutoff:           1E-12
    Mask sparsity (%):       1.7500
    Fitting Condition:        1E-10

   => Auxiliary Basis Set <=

  Basis Set: (MINIX AUX)
    Blend: DEF2-SVP-JKFIT
    Number of shells: 205
    Number of basis function: 619
    Number of Cartesian functions: 731
    Spherical Harmonics?: true
    Max angular momentum: 4

  Minimum eigenvalue in the overlap matrix is 1.7045345357E-01.
  Using Symmetric Orthogonalization.

  SCF Guess: Superposition of Atomic Densities via on-the-fly atomic UHF.

  ==> Iterations <==

                           Total Energy        Delta E     RMS |[F,P]|

   @DF-RHF iter SAD:  -316.25565194878254   -3.16256e+02   0.00000e+00 
   @DF-RHF iter   1:  -319.11182075886296   -2.85617e+00   1.18502e-02 DIIS
   @DF-RHF iter   2:  -319.20676382914900   -9.49431e-02   9.55746e-03 DIIS
   @DF-RHF iter   3:  -319.28275668944354   -7.59929e-02   8.70482e-04 DIIS
   @DF-RHF iter   4:  -319.28464924918893   -1.89256e-03   3.96412e-04 DIIS
   @DF-RHF iter   5:  -319.28497157431701   -3.22325e-04   1.39827e-04 DIIS
   @DF-RHF iter   6:  -319.28502565798669   -5.40837e-05   4.76371e-05 DIIS
   @DF-RHF iter   7:  -319.28503043891413   -4.78093e-06   1.96306e-05 DIIS
   @DF-RHF iter   8:  -319.28503137477236   -9.35858e-07   5.95177e-06 DIIS
   @DF-RHF iter   9:  -319.28503144770826   -7.29359e-08   1.54041e-06 DIIS
   @DF-RHF iter  10:  -319.28503145340926   -5.70100e-09   7.26614e-07 DIIS
  Energy and wave function converged.


  ==> Post-Iterations <==

    Orbital Energies [Eh]
    ---------------------

    Doubly Occupied:                                                      

       1A    -20.311724     2A    -15.460375     3A    -11.325061  
       4A    -11.241306     5A    -11.208511     6A    -11.190398  
       7A    -11.161126     8A     -1.372305     9A     -1.261639  
      10A     -1.104356    11A     -1.006753    12A     -0.918951  
      13A     -0.804813    14A     -0.748571    15A     -0.712003  
      16A     -0.656754    17A     -0.613359    18A     -0.610707  
      19A     -0.588622    20A     -0.575465    21A     -0.532182  
      22A     -0.455197    23A     -0.441726    24A     -0.405306  
      25A     -0.299011  

    Virtual:                                                              

      26A      0.102580    27A      0.252802    28A      0.359416  
      29A      0.501828    30A      0.520203    31A      0.590384  
      32A      0.635505    33A      0.666061    34A      0.738393  
      35A      0.761878    36A      0.818003    37A      0.855836  
      38A      0.968235    39A      1.008643    40A      1.107192  

    Final Occupation by Irrep:
              A 
    DOCC [    25 ]

  @DF-RHF Final Energy:  -319.28503145340926

   => Energetics <=

    Nuclear Repulsion Energy =            273.9089539448877417
    One-Electron Energy =                -976.3755672280732369
    Two-Electron Energy =                 383.1815818297762917
    Total Energy =                       -319.2850314534092604

Computation Completed


Properties will be evaluated at   0.000000,   0.000000,  -0.000000 [a0]

Properties computed using the HF density matrix

  Nuclear Dipole Moment: [e a0]
     X:     2.3669      Y:    -0.2547      Z:    -2.9811

  Electronic Dipole Moment: [e a0]
     X:    -1.2370      Y:    -0.1871      Z:     2.8792

  Dipole Moment: [e a0]
     X:     1.1299      Y:    -0.4418      Z:    -0.1019     Total:     1.2175

  Dipole Moment: [D]
     X:     2.8719      Y:    -1.1231      Z:    -0.2589     Total:     3.0945


*** tstop() called on node44.bme.utexas.edu at Thu Nov  4 14:08:45 2021
Module time:
	user time   =      17.83 seconds =       0.30 minutes
	system time =       1.12 seconds =       0.02 minutes
	total time  =          2 seconds =       0.03 minutes
Total time:
	user time   =      17.83 seconds =       0.30 minutes
	system time =       1.12 seconds =       0.02 minutes
	total time  =          2 seconds =       0.03 minutes
  ==> One Electron Grid Properties (v2.0) <==

  ==> CubicScalarGrid <==

    Filepath     = .
    Total Points =           457994
    XYZ Blocking =               10
    X Points     =               83
    Y Points     =               62
    Z Points     =               89
    X Spacing    =        2.000E-01
    Y Spacing    =        2.000E-01
    Z Spacing    =        2.000E-01
    X Minimum    =       -7.561E+00
    Y Minimum    =       -6.200E+00
    Z Minimum    =       -9.269E+00
    X Maximum    =        8.839E+00
    Y Maximum    =        6.000E+00
    Z Maximum    =        8.331E+00

  Basis Set: MINIX
    Blend: MINIX
    Number of shells: 26
    Number of basis function: 40
    Number of Cartesian functions: 40
    Spherical Harmonics?: true
    Max angular momentum: 1



Properties will be evaluated at   0.000000,   0.000000,  -0.000000 [a0]
OEProp: No title given, name of density matrix used for the following properties is 'SCF density'
  Mulliken Charges: (a.u.)
   Center  Symbol    Alpha    Beta     Spin     Total
       1     N     3.70301  3.70301  0.00000 -0.40603
       2     C     2.80537  2.80537  0.00000  0.38926
       3     C     3.02415  3.02415  0.00000 -0.04831
       4     C     3.09136  3.09136  0.00000 -0.18272
       5     C     3.00496  3.00496  0.00000 -0.00991
       6     H     0.35930  0.35930  0.00000  0.28140
       7     O     4.19915  4.19915  0.00000 -0.39831
       8     C     3.11973  3.11973  0.00000 -0.23945
       9     H     0.43078  0.43078  0.00000  0.13844
      10     H     0.41875  0.41875  0.00000  0.16249
      11     H     0.42506  0.42506  0.00000  0.14989
      12     H     0.41838  0.41838  0.00000  0.16324

   Total alpha = 25.00000, Total beta = 25.00000, Total charge = -0.00000



  Wiberg Bond Indices using Orthogonal Lowdin Orbitals:

  Irrep: 1 Size: 12 x 12

                 1                   2                   3                   4                   5

    1     0.00000000000000     1.09066033673214     0.01258750642168     0.08231360985831     1.10174281898042
    2     1.09066033673214     0.00000000000000     0.99961297406575     0.00947937889062     0.00554485310747
    3     0.01258750642168     0.99961297406575     0.00000000000000     1.08208632252246     0.00338687774863
    4     0.08231360985831     0.00947937889062     1.08208632252246     0.00000000000000     1.78587111493760
    5     1.10174281898042     0.00554485310747     0.00338687774863     1.78587111493760     0.00000000000000
    6     0.94108790539657     0.00030519529877     0.00739402795187     0.00573701238643     0.00034549088290
    7     0.12853651175753     1.80830676449946     0.03780304351611     0.01149509043160     0.01169493905002
    8     0.00422758719960     0.01663297644080     1.83522974635122     0.00638795462984     0.08668503263376
    9     0.00702164504942     0.00629442118382     0.00076460977086     0.97335006639258     0.00133398781529
   10     0.00066495932644     0.00610953622928     0.00648371374476     0.00151037719551     0.97128395598732
   11     0.00061322128624     0.01088051677234     0.00298102480832     0.00396275715259     0.00011500351350
   12     0.00046106628314     0.00456872887421     0.00290788562047     0.01029956403694     0.00030978514801

                 6                   7                   8                   9                  10

    1     0.94108790539657     0.12853651175753     0.00422758719960     0.00702164504942     0.00066495932644
    2     0.00030519529877     1.80830676449946     0.01663297644080     0.00629442118382     0.00610953622928
    3     0.00739402795187     0.03780304351611     1.83522974635122     0.00076460977086     0.00648371374476
    4     0.00573701238643     0.01149509043160     0.00638795462984     0.97335006639258     0.00151037719551
    5     0.00034549088290     0.01169493905002     0.08668503263376     0.00133398781529     0.97128395598732
    6     0.00000000000000     0.00121376326036     0.00033279593728     0.00058274604848     0.00100362365062
    7     0.00121376326036     0.00000000000000     0.07673654335086     0.00101476308780     0.00106047929139
    8     0.00033279593728     0.07673654335086     0.00000000000000     0.00082912474335     0.00014457340911
    9     0.00058274604848     0.00101476308780     0.00082912474335     0.00000000000000     0.00155460336456
   10     0.00100362365062     0.00106047929139     0.00014457340911     0.00155460336456     0.00000000000000
   11     0.00026859811629     0.00014992515540     0.97140976528645     0.00012083630850     0.00005796823816
   12     0.00007855351857     0.00107788873595     0.96878815176186     0.00000383471955     0.00021344724035

                11                  12

    1     0.00061322128624     0.00046106628314
    2     0.01088051677234     0.00456872887421
    3     0.00298102480832     0.00290788562047
    4     0.00396275715259     0.01029956403694
    5     0.00011500351350     0.00030978514801
    6     0.00026859811629     0.00007855351857
    7     0.00014992515540     0.00107788873595
    8     0.97140976528645     0.96878815176186
    9     0.00012083630850     0.00000383471955
   10     0.00005796823816     0.00021344724035
   11     0.00000000000000     0.00043978317842
   12     0.00043978317842     0.00000000000000



  Atomic Valences: 

 #  #
 Irrep: 1
      1:  3.3699172
      2:  3.9583957
      3:  3.9912377
      4:  3.9724932
      5:  3.9683139
      6:  0.9583497
      7:  2.0790897
      8:  3.9674043
      9:  0.9928706
     10:  0.9900872
     11:  0.9909994
     12:  0.9891487


    Psi4 stopped on: Thursday, 04 November 2021 02:08PM
    Psi4 wall time for execution: 0:00:11.57

*** Psi4 exiting successfully. Buy a developer a beer!
