
    -----------------------------------------------------------------------
          Psi4: An Open-Source Ab Initio Electronic Structure Package
                               Psi4 1.3.2 release

                         Git: Rev {HEAD} ecbda83 


    R. M. Parrish, L. A. Burns, D. G. A. Smith, A. C. Simmonett,
    A. E. DePrince III, E. G. Hohenstein, U. Bozkaya, A. Yu. Sokolov,
    R. Di Remigio, R. M. Richard, J. F. Gonthier, A. M. James,
    H. R. McAlexander, A. Kumar, M. Saitow, X. Wang, B. P. Pritchard,
    P. Verma, H. F. Schaefer III, K. Patkowski, R. A. King, E. F. Valeev,
    F. A. Evangelista, J. M. Turney, T. D. Crawford, and C. D. Sherrill,
    J. Chem. Theory Comput. 13(7) pp 3185--3197 (2017).
    (doi: 10.1021/acs.jctc.7b00174)


                         Additional Contributions by
    P. Kraus, H. Kruse, M. H. Lechner, M. C. Schieber, R. A. Shaw,
    A. Alenaizan, R. Galvelis, Z. L. Glick, S. Lehtola, and J. P. Misiewicz

    -----------------------------------------------------------------------


    Psi4 started on: Tuesday, 31 December 2019 10:23AM

    Process ID: 131934
    Host:       bme-nova.bme.utexas.edu
    PSIDATADIR: /home/bdw2292/miniconda3/envs/p4env/share/psi4
    Memory:     500.0 MiB
    Threads:    1
    
  ==> Input File <==

--------------------------------------------------------------------------
molecule { 
0 1
N           -0.022969419889    -0.064322850541     0.009087840336
H           -0.336675715744     0.566884076293     0.741901772842
H           -0.336638113543     0.339145637016    -0.869933149905
H            0.992458994620    -0.012305497800     0.001761740276
}
memory 5GB
set_num_threads(4)
psi4_io.set_default_path("/scratch/bdw2292")
set freeze_core True
E, wfn = energy('mp2/6-311G**',return_wfn=True)
gdma(wfn)
fchk(wfn, "ammonia-dma.fchk")
clean()
--------------------------------------------------------------------------

  Memory set to   4.657 GiB by Python driver.
  Threads set to 4 by Python driver.
    SCF Algorithm Type (re)set to DF.

*** tstart() called on bme-nova.bme.utexas.edu
*** at Tue Dec 31 10:23:40 2019

   => Loading Basis Set <=

    Name: 6-311G**
    Role: ORBITAL
    Keyword: BASIS
    atoms 1   entry N          line   132 file /home/bdw2292/miniconda3/envs/p4env/share/psi4/basis/6-311gss.gbs 
    atoms 2-4 entry H          line    32 file /home/bdw2292/miniconda3/envs/p4env/share/psi4/basis/6-311gss.gbs 


         ---------------------------------------------------------
                                   SCF
               by Justin Turney, Rob Parrish, Andy Simmonett
                          and Daniel G. A. Smith
                              RHF Reference
                        4 Threads,   4768 MiB Core
         ---------------------------------------------------------

  ==> Geometry <==

    Molecular point group: c1
    Full point group: C1

    Geometry (in Angstrom), charge = 0, multiplicity = 1:

       Center              X                  Y                   Z               Mass       
    ------------   -----------------  -----------------  -----------------  -----------------
         N           -0.022969419889    -0.064322850541     0.009087840336    14.003074004430
         H           -0.336675715744     0.566884076293     0.741901772842     1.007825032230
         H           -0.336638113543     0.339145637016    -0.869933149905     1.007825032230
         H            0.992458994620    -0.012305497800     0.001761740276     1.007825032230

  Running in c1 symmetry.

  Rotational constants: A =      9.86008  B =      9.86004  C =      6.31229 [cm^-1]
  Rotational constants: A = 295597.65036  B = 295596.62256  C = 189237.56520 [MHz]
  Nuclear repulsion =   11.904506759316845

  Charge       = 0
  Multiplicity = 1
  Electrons    = 10
  Nalpha       = 5
  Nbeta        = 5

  ==> Algorithm <==

  SCF Algorithm Type is DF.
  DIIS enabled.
  MOM disabled.
  Fractional occupation disabled.
  Guess Type is SAD.
  Energy threshold   = 1.00e-08
  Density threshold  = 1.00e-08
  Integral threshold = 0.00e+00

  ==> Primary Basis <==

  Basis Set: 6-311G**
    Blend: 6-311G**
    Number of shells: 20
    Number of basis function: 36
    Number of Cartesian functions: 37
    Spherical Harmonics?: true
    Max angular momentum: 2

   => Loading Basis Set <=

    Name: (6-311G** AUX)
    Role: JKFIT
    Keyword: DF_BASIS_SCF
    atoms 1   entry N          line   177 file /home/bdw2292/miniconda3/envs/p4env/share/psi4/basis/cc-pvtz-jkfit.gbs 
    atoms 2-4 entry H          line    51 file /home/bdw2292/miniconda3/envs/p4env/share/psi4/basis/cc-pvtz-jkfit.gbs 

  ==> Pre-Iterations <==

   -------------------------------------------------------
    Irrep   Nso     Nmo     Nalpha   Nbeta   Ndocc  Nsocc
   -------------------------------------------------------
     A         36      36       0       0       0       0
   -------------------------------------------------------
    Total      36      36       5       5       5       0
   -------------------------------------------------------

  ==> Integral Setup <==

  DFHelper Memory: AOs need 0.002 GiB; user supplied 3.492 GiB. Using in-core AOs.

  ==> MemDFJK: Density-Fitted J/K Matrices <==

    J tasked:                   Yes
    K tasked:                   Yes
    wK tasked:                   No
    OpenMP threads:               4
    Memory [MiB]:              3576
    Algorithm:                 Core
    Schwarz Cutoff:           1E-12
    Mask sparsity (%):       0.0000
    Fitting Condition:        1E-10

   => Auxiliary Basis Set <=

  Basis Set: (6-311G** AUX)
    Blend: CC-PVTZ-JKFIT
    Number of shells: 55
    Number of basis function: 169
    Number of Cartesian functions: 201
    Spherical Harmonics?: true
    Max angular momentum: 4

  Minimum eigenvalue in the overlap matrix is 1.1468833175E-02.
  Using Symmetric Orthogonalization.

  SCF Guess: Superposition of Atomic Densities via on-the-fly atomic UHF.

  ==> Iterations <==

                           Total Energy        Delta E     RMS |[F,P]|

   @DF-RHF iter SAD:   -55.66977347707748   -5.56698e+01   0.00000e+00 
   @DF-RHF iter   1:   -56.12504042936842   -4.55267e-01   1.18483e-02 DIIS
   @DF-RHF iter   2:   -56.18868455155391   -6.36441e-02   6.42713e-03 DIIS
   @DF-RHF iter   3:   -56.20915833729072   -2.04738e-02   6.64790e-04 DIIS
   @DF-RHF iter   4:   -56.20974749937812   -5.89162e-04   1.21726e-04 DIIS
   @DF-RHF iter   5:   -56.20976523716209   -1.77378e-05   2.18048e-05 DIIS
   @DF-RHF iter   6:   -56.20976612206199   -8.84900e-07   4.74075e-06 DIIS
   @DF-RHF iter   7:   -56.20976617436794   -5.23059e-08   1.00911e-06 DIIS
   @DF-RHF iter   8:   -56.20976617708232   -2.71438e-09   2.24938e-07 DIIS
   @DF-RHF iter   9:   -56.20976617721349   -1.31173e-10   4.51135e-08 DIIS
   @DF-RHF iter  10:   -56.20976617721711   -3.61666e-12   4.26879e-09 DIIS
  Energy and wave function converged.


  ==> Post-Iterations <==

    Orbital Energies [Eh]
    ---------------------

    Doubly Occupied:                                                      

       1A    -15.530466     2A     -1.133946     3A     -0.619712  
       4A     -0.619711     5A     -0.423867  

    Virtual:                                                              

       6A      0.155681     7A      0.229621     8A      0.229621  
       9A      0.516574    10A      0.516575    11A      0.665249  
      12A      0.819119    13A      0.954767    14A      0.954767  
      15A      1.119307    16A      1.353815    17A      1.353817  
      18A      1.796931    19A      1.813654    20A      1.903676  
      21A      1.903677    22A      2.167357    23A      2.167359  
      24A      2.453401    25A      2.682534    26A      2.682537  
      27A      2.861290    28A      2.986791    29A      2.986792  
      30A      3.128416    31A      3.448952    32A      3.448954  
      33A      4.423880    34A      5.206703    35A      5.206711  
      36A     37.030880  

    Final Occupation by Irrep:
              A 
    DOCC [     5 ]

  @DF-RHF Final Energy:   -56.20976617721711

   => Energetics <=

    Nuclear Repulsion Energy =             11.9045067593168454
    One-Electron Energy =                 -99.5731403776822503
    Two-Electron Energy =                  31.4588674411482998
    Total Energy =                        -56.2097661772171051

Computation Completed


Properties will be evaluated at   0.000000,   0.000000,   0.000000 [a0]

Properties computed using the SCF density matrix

  Nuclear Dipole Moment: [e a0]
     X:     0.2993      Y:     0.8380      Z:    -0.1184

  Electronic Dipole Moment: [e a0]
     X:    -0.0650      Y:    -0.1821      Z:     0.0257

  Dipole Moment: [e a0]
     X:     0.2342      Y:     0.6559      Z:    -0.0927     Total:     0.7026

  Dipole Moment: [D]
     X:     0.5954      Y:     1.6672      Z:    -0.2356     Total:     1.7859


*** tstop() called on bme-nova.bme.utexas.edu at Tue Dec 31 10:23:41 2019
Module time:
	user time   =       2.16 seconds =       0.04 minutes
	system time =       0.09 seconds =       0.00 minutes
	total time  =          1 seconds =       0.02 minutes
Total time:
	user time   =       2.16 seconds =       0.04 minutes
	system time =       0.09 seconds =       0.00 minutes
	total time  =          1 seconds =       0.02 minutes

*** tstart() called on bme-nova.bme.utexas.edu
*** at Tue Dec 31 10:23:41 2019


  //>>>>>>>>>>>>>>>>>>>>>>>>>>>>>>>>>>>//
  //               DFMP2               //
  //<<<<<<<<<<<<<<<<<<<<<<<<<<<<<<<<<<<//

   => Loading Basis Set <=

    Name: (6-311G** AUX)
    Role: RIFIT
    Keyword: DF_BASIS_MP2
    atoms 1   entry N          line   257 file /home/bdw2292/miniconda3/envs/p4env/share/psi4/basis/cc-pvtz-ri.gbs 
    atoms 2-4 entry H          line    19 file /home/bdw2292/miniconda3/envs/p4env/share/psi4/basis/cc-pvtz-ri.gbs 

	 --------------------------------------------------------
	                          DF-MP2                         
	      2nd-Order Density-Fitted Moller-Plesset Theory     
	              RMP2 Wavefunction,   4 Threads             
	                                                         
	        Rob Parrish, Justin Turney, Andy Simmonett,      
	           Ed Hohenstein, and C. David Sherrill          
	 --------------------------------------------------------

   => Auxiliary Basis Set <=

  Basis Set: (6-311G** AUX)
    Blend: CC-PVTZ-RI
    Number of shells: 53
    Number of basis function: 171
    Number of Cartesian functions: 206
    Spherical Harmonics?: true
    Max angular momentum: 4

	 --------------------------------------------------------
	                 NBF =    36, NAUX =   171
	 --------------------------------------------------------
	   CLASS    FOCC     OCC    AOCC    AVIR     VIR    FVIR
	   PAIRS       1       5       4      31      31       0
	 --------------------------------------------------------

	-----------------------------------------------------------
	 ==================> DF-MP2 Energies <==================== 
	-----------------------------------------------------------
	 Reference Energy          =     -56.2097661772171051 [Eh]
	 Singles Energy            =      -0.0000000000000000 [Eh]
	 Same-Spin Energy          =      -0.0453212989633361 [Eh]
	 Opposite-Spin Energy      =      -0.1536418362031277 [Eh]
	 Correlation Energy        =      -0.1989631351664639 [Eh]
	 Total Energy              =     -56.4087293123835707 [Eh]
	-----------------------------------------------------------
	 ================> DF-SCS-MP2 Energies <================== 
	-----------------------------------------------------------
	 SCS Same-Spin Scale       =       0.3333333333333333 [-]
	 SCS Opposite-Spin Scale   =       1.2000000000000000 [-]
	 SCS Same-Spin Energy      =      -0.0151070996544454 [Eh]
	 SCS Opposite-Spin Energy  =      -0.1843702034437533 [Eh]
	 SCS Correlation Energy    =      -0.1994773030981987 [Eh]
	 SCS Total Energy          =     -56.4092434803153040 [Eh]
	-----------------------------------------------------------


*** tstop() called on bme-nova.bme.utexas.edu at Tue Dec 31 10:23:42 2019
Module time:
	user time   =       1.25 seconds =       0.02 minutes
	system time =       0.71 seconds =       0.01 minutes
	total time  =          1 seconds =       0.02 minutes
Total time:
	user time   =       3.41 seconds =       0.06 minutes
	system time =       0.80 seconds =       0.01 minutes
	total time  =          2 seconds =       0.03 minutes
                                     G D M A

                                 by Anthony Stone

                           version 2.2.06, 22 June 2011

               Distributed Multipoles from Gaussian wavefunctions


Starting at 10:23:42 on 31 Dec 2019 


Using CC density matrix from file ammonia-dma.default.131934.fchk


                         Distributed Multipole Analysis

Standard DMA for products of primitives with exponent greater than 4.00000
Using 80-point Euler-MacLaurin radial quadrature
Using 590-point Lebedev quadrature
Becke smoothing parameter = 3

Positions and radii in angstrom
Multipole moments in atomic units, ea_0^k for rank k

N          x = -0.022969  y = -0.064323  z =  0.009088 angstrom
           Maximum rank =  2   Radius =  0.650 angstrom
                   Q00  =  -0.351419
|Q1| =   0.553426  Q10  =  -0.072992  Q11c =   0.184487  Q11s =   0.516640
|Q2| =   1.237140  Q20  =   0.586294  Q21c =   0.094210  Q21s =   0.263834
                   Q22c =   0.814637  Q22s =  -0.666826

H          x = -0.336676  y =  0.566884  z =  0.741902 angstrom
           Maximum rank =  2   Radius =  0.325 angstrom
                   Q00  =   0.117139
|Q1| =   0.072428  Q10  =  -0.047584  Q11c =   0.017534  Q11s =  -0.051712
|Q2| =   0.215950  Q20  =   0.075737  Q21c =  -0.063445  Q21s =   0.165626
                   Q22c =  -0.016064  Q22s =  -0.095828

H          x = -0.336638  y =  0.339146  z = -0.869933 angstrom
           Maximum rank =  2   Radius =  0.325 angstrom
                   Q00  =   0.117140
|Q1| =   0.072428  Q10  =   0.060049  Q11c =   0.017532  Q11s =  -0.036504
|Q2| =   0.215950  Q20  =   0.144460  Q21c =   0.087501  Q21s =  -0.109558
                   Q22c =   0.023606  Q22s =  -0.074494

H          x =  0.992459  y = -0.012305  z =  0.001762 angstrom
           Maximum rank =  2   Radius =  0.325 angstrom
                   Q00  =   0.117140
|Q1| =   0.072428  Q10  =   0.001840  Q11c =  -0.071222  Q11s =  -0.013035
|Q2| =   0.215950  Q20  =  -0.067422  Q21c =   0.000493  Q21s =   0.012680
                   Q22c =   0.204733  Q22s =  -0.003437

Total multipoles referred to origin at
           x =   0.000000,  y =    0.000000,  z =    0.000000 angstrom
                   Q00  =  -0.000000
|Q1| =   0.702646  Q10  =  -0.092674  Q11c =   0.234232  Q11s =   0.655941
|Q2| =   1.932452  Q20  =   0.915811  Q21c =   0.147161  Q21s =   0.412115
                   Q22c =   1.272490  Q22s =  -1.041601

Finished at 10:23:43 on 31 Dec 2019 

  DMA results are available in the Python driver through the
	  variable('DMA DISTRIBUTED MULTIPOLES')
  and
	  variable('DMA TOTAL MULTIPOLES')
  commands.


    Psi4 stopped on: Tuesday, 31 December 2019 10:23AM
    Psi4 wall time for execution: 0:00:02.83

*** Psi4 exiting successfully. Buy a developer a beer!
