19
 energy: -28.700416519713 gnorm: 0.000661370075 xtb: 6.5.0 (97a52f5)
C            1.21128056804535        0.49259173521488        2.20307248513382
N            0.98887600192335       -0.22436363957744        1.07618875952538
C           -0.18158129730105       -0.05861403015604        0.29780797532879
C           -0.78505047632254       -1.15620078969932       -0.30980729091668
C            1.91500726239084       -1.26776383448204        0.69371491515208
C           -0.73406098667734        1.20627954625912        0.11867773636833
C           -1.87394586295741        1.36323985452546       -0.64780721408483
C           -2.47227449208474        0.27045698283192       -1.25135434757580
C           -1.92220130572191       -0.98742844815450       -1.07894655837708
H           -0.27558735966369        2.06191617932792        0.58499680313693
H           -0.38000658851596       -2.14779903999720       -0.18174407757925
O            0.50826031858818        1.35297270784677        2.66886581477523
H            2.86914066798268       -1.10062809177825        1.19185106412889
H            2.07646771920164       -1.23862446885088       -0.38433850541239
H            1.55117458803456       -2.25872467569171        0.97622175054412
H           -2.29344840929684        2.34983854610568       -0.77694688799957
H           -2.38101963252382       -1.84837200794155       -1.54267817797688
H           -3.36083810403391        0.39726987001638       -1.85132362131581
H            2.16349236893234        0.19274060420100        2.68413639714477
