19
 energy: -28.697871745123 gnorm: 0.000216352347 xtb: 6.5.0 (97a52f5)
C            2.29013174186115       -0.50993912538936        0.29093842080095
N            1.07813414565763       -0.40605158455736        0.88975294870469
C           -0.12089380989595       -0.17211713403078        0.16898281503391
C           -0.09315158288439        0.42697651289679       -1.08925956949219
C            1.03514606950685       -0.34850927988921        2.33704335722744
C           -1.35304615276335       -0.56415577562578        0.68999440735501
C           -2.51930001307336       -0.34909210342610       -0.02135295132778
C           -2.48481846378997        0.25561454977778       -1.26489911848866
C           -1.26458983885039        0.63862697836933       -1.79251930227170
H           -1.42522624643747       -1.05497519999176        1.64741021614263
H            0.84485811914093        0.73162542812751       -1.51955960204353
O            2.54483051801172       -0.46110935437685       -0.88590897689153
H            1.97087603251065       -0.72270911694970        2.74709476180996
H            0.21833241978760       -0.94491437204138        2.73596314621217
H            0.89254186160994        0.68457255069520        2.66906203860677
H           -3.46151681785294       -0.66315735886440        0.40346773746966
H           -1.21804640453799        1.11040197801855       -2.76262765954951
H           -3.39783390773439        0.42299392801099       -1.81583657871889
H            3.08725532973380       -0.67529653075338        1.04283991942062
