19
 energy: -28.698623100760 gnorm: 0.000690362912 xtb: 6.5.0 (97a52f5)
C            2.15095582648982        0.55279825762714        0.68349953354134
N            1.10317734637653       -0.26533024749415        0.91128989943118
C           -0.10803579598462       -0.08082970600985        0.18501630974380
C           -0.12465677836223       -0.31928000388080       -1.18225017265537
C            1.09613448459003       -1.23240376281198        1.98306020040663
C           -1.27230229118631        0.30142166060284        0.83777593404532
C           -2.44496722550975        0.45229349629515        0.11974497546903
C           -2.46145469770459        0.22151950121628       -1.24544436219576
C           -1.29958093062145       -0.15953769733970       -1.89477946988765
H           -1.25895827033001        0.49419880285196        1.90020460819395
H            0.78759215690787       -0.60863160370819       -1.68051067696016
O            2.18813957425574        1.44368237161792       -0.12744458078723
H            2.11877572036930       -1.42461486492438        2.30337322777357
H            0.65166871493235       -2.16381254255738        1.62863993035458
H            0.52137484243093       -0.87808808699120        2.84305988868071
H           -3.34770841243783        0.75640190624292        0.62863901395688
H           -1.30828072451713       -0.33922232720765       -2.95939971879403
H           -3.37852745427655        0.34189460159128       -1.80240549048919
H            3.01033690457795        0.30632822487972        1.33851594017237
