      -----------------------------------------------------------      
     |                   =====================                   |     
     |                           x T B                           |     
     |                   =====================                   |     
     |                         S. Grimme                         |     
     |          Mulliken Center for Theoretical Chemistry        |     
     |                    University of Bonn                     |     
      -----------------------------------------------------------      

   * xtb version 6.5.0 (97a52f5) compiled by 'conda@d2599ee0d4f4' on 2022-05-15

   xtb is free software: you can redistribute it and/or modify it under
   the terms of the GNU Lesser General Public License as published by
   the Free Software Foundation, either version 3 of the License, or
   (at your option) any later version.
   
   xtb is distributed in the hope that it will be useful,
   but WITHOUT ANY WARRANTY; without even the implied warranty of
   MERCHANTABILITY or FITNESS FOR A PARTICULAR PURPOSE.  See the
   GNU Lesser General Public License for more details.
   
   Cite this work as:
   * C. Bannwarth, E. Caldeweyher, S. Ehlert, A. Hansen, P. Pracht,
     J. Seibert, S. Spicher, S. Grimme, WIREs Comput. Mol. Sci., 2020, 11,
     e01493. DOI: 10.1002/wcms.1493
   
   for GFN2-xTB:
   * C. Bannwarth, S. Ehlert and S. Grimme., J. Chem. Theory Comput., 2019,
     15, 1652-1671. DOI: 10.1021/acs.jctc.8b01176
   for GFN1-xTB:
   * S. Grimme, C. Bannwarth, P. Shushkov, J. Chem. Theory Comput., 2017,
     13, 1989-2009. DOI: 10.1021/acs.jctc.7b00118
   for GFN0-xTB:
   * P. Pracht, E. Caldeweyher, S. Ehlert, S. Grimme, ChemRxiv, 2019, preprint.
     DOI: 10.26434/chemrxiv.8326202.v1
   for GFN-FF:
   * S. Spicher and S. Grimme, Angew. Chem. Int. Ed., 2020, 59, 15665-15673.
     DOI: 10.1002/anie.202004239
   
   for ALPB and GBSA implicit solvation:
   * S. Ehlert, M. Stahn, S. Spicher, S. Grimme, J. Chem. Theory Comput.,
     2021, 17, 4250-4261. DOI: 10.1021/acs.jctc.1c00471
   
   for DFT-D4:
   * E. Caldeweyher, C. Bannwarth and S. Grimme, J. Chem. Phys., 2017,
     147, 034112. DOI: 10.1063/1.4993215
   * E. Caldeweyher, S. Ehlert, A. Hansen, H. Neugebauer, S. Spicher,
     C. Bannwarth and S. Grimme, J. Chem. Phys., 2019, 150, 154122.
     DOI: 10.1063/1.5090222
   * E. Caldeweyher, J.-M. Mewes, S. Ehlert and S. Grimme, Phys. Chem. Chem. Phys.
     2020, 22, 8499-8512. DOI: 10.1039/D0CP00502A
   
   for sTDA-xTB:
   * S. Grimme and C. Bannwarth, J. Chem. Phys., 2016, 145, 054103.
     DOI: 10.1063/1.4959605
   
   in the mass-spec context:
   * V. Asgeirsson, C. Bauer and S. Grimme, Chem. Sci., 2017, 8, 4879.
     DOI: 10.1039/c7sc00601b
   * J. Koopman and S. Grimme, ACS Omega 2019, 4, 12, 15120-15133.
     DOI: 10.1021/acsomega.9b02011
   
   for metadynamics refer to:
   * S. Grimme, J. Chem. Theory Comput., 2019, 155, 2847-2862
     DOI: 10.1021/acs.jctc.9b00143
   
   for SPH calculations refer to:
   * S. Spicher and S. Grimme, J. Chem. Theory Comput., 2021, 17, 1701-1714
     DOI: 10.1021/acs.jctc.0c01306
   
   with help from (in alphabetical order)
   P. Atkinson, C. Bannwarth, F. Bohle, G. Brandenburg, E. Caldeweyher
   M. Checinski, S. Dohm, S. Ehlert, S. Ehrlich, I. Gerasimov, C. Hölzer
   A. Katbashev, J. Koopman, C. Lavigne, S. Lehtola, F. März, M. Müller,
   F. Musil, H. Neugebauer, J. Pisarek, C. Plett, P. Pracht, F. Pultar,
   J. Seibert, P. Shushkov, S. Spicher, M. Stahn, M. Steiner, T. Strunk,
   J. Stückrath, T. Rose, and J. Unsleber
   
 * started run on 2023/11/18 at 08:23:57.472     

           -------------------------------------------------
          |                Calculation Setup                |
           -------------------------------------------------

          program call               : /home/liuchw/anaconda3/envs/xtbenv/bin/xtb --gfn 2 --chrg 0 --uhf 0 3_24_Index_0-opt-2-5-131_preQMOPTprefit_xyzformat.xyz --opt --input xtb-opt-2-5-131_constr.txt
          hostname                   : node165.bme.utexas.edu
          coordinate file            : 3_24_Index_0-opt-2-5-131_preQMOPTprefit_xyzformat.xyz
          omp threads                :                    64

   ID    Z sym.   atoms
    1    6 C      1, 3-9
    2    7 N      2
    3    1 H      10, 11, 13-19
    4    8 O      12
constraining angle 1 2 5 14 to  130.9943910°, actual value:  130.9943910°
constraining angle 1 2 3 4 to   37.0872529°, actual value:   37.0872529°
constraining angle 12 1 2 3 to  358.0008501°, actual value:   -1.9991499°

           -------------------------------------------------
          |                 G F N 2 - x T B                 |
           -------------------------------------------------

        Reference                      10.1021/acs.jctc.8b01176
      * Hamiltonian:
        H0-scaling (s, p, d)           1.850000    2.230000    2.230000
        zeta-weighting                 0.500000
      * Dispersion:
        s8                             2.700000
        a1                             0.520000
        a2                             5.000000
        s9                             5.000000
      * Repulsion:
        kExp                           1.500000    1.000000
        rExp                           1.000000
      * Coulomb:
        alpha                          2.000000
        third order                    shell-resolved
        anisotropic                    true
        a3                             3.000000
        a5                             4.000000
        cn-shift                       1.200000
        cn-exp                         4.000000
        max-rad                        5.000000

q/qsh data taken from xtbrestart
CAMM data taken from xtbrestart

          ...................................................
          :                      SETUP                      :
          :.................................................:
          :  # basis functions                  49          :
          :  # atomic orbitals                  49          :
          :  # shells                           29          :
          :  # electrons                        52          :
          :  max. iterations                   250          :
          :  Hamiltonian                  GFN2-xTB          :
          :  restarted?                       true          :
          :  GBSA solvation                  false          :
          :  PC potential                    false          :
          :  electronic temp.          300.0000000     K    :
          :  accuracy                    1.0000000          :
          :  -> integral cutoff          0.2500000E+02      :
          :  -> integral neglect         0.1000000E-07      :
          :  -> SCF convergence          0.1000000E-05 Eh   :
          :  -> wf. convergence          0.1000000E-03 e    :
          :  Broyden damping             0.4000000          :
          ...................................................

 iter      E             dE          RMSdq      gap      omega  full diag
   1    -29.0870966 -0.290871E+02  0.674E-01    3.84       0.0  T
   2    -29.0879042 -0.807547E-03  0.438E-01    3.79       1.0  T
   3    -29.0877810  0.123199E-03  0.220E-01    3.81       1.0  T
   4    -29.0881412 -0.360265E-03  0.574E-02    3.80       1.0  T
   5    -29.0881903 -0.491110E-04  0.125E-02    3.80       1.8  T
   6    -29.0881909 -0.607951E-06  0.573E-03    3.80       4.0  T
   7    -29.0881911 -0.130107E-06  0.220E-03    3.80      10.4  T
   8    -29.0881911 -0.155024E-07  0.867E-04    3.80      26.5  T
   9    -29.0881911 -0.413095E-08  0.329E-04    3.80      69.6  T

   *** convergence criteria satisfied after 9 iterations ***

         #    Occupation            Energy/Eh            Energy/eV
      -------------------------------------------------------------
         1        2.0000           -0.6938325             -18.8801
       ...           ...                  ...                  ...
        20        2.0000           -0.4782951             -13.0151
        21        2.0000           -0.4422924             -12.0354
        22        2.0000           -0.4368167             -11.8864
        23        2.0000           -0.4221134             -11.4863
        24        2.0000           -0.4078686             -11.0987
        25        2.0000           -0.3985788             -10.8459
        26        2.0000           -0.3861364             -10.5073 (HOMO)
        27                         -0.2464393              -6.7060 (LUMO)
        28                         -0.2330040              -6.3404
        29                         -0.2173267              -5.9138
        30                         -0.1110189              -3.0210
        31                         -0.0537485              -1.4626
       ...                                ...                  ...
        49                          0.6048418              16.4586
      -------------------------------------------------------------
                  HL-Gap            0.1396971 Eh            3.8014 eV
             Fermi-level           -0.3162878 Eh           -8.6066 eV

 SCC (total)                   0 d,  0 h,  0 min,  1.173 sec
 SCC setup                      ...        0 min,  0.012 sec (  1.007%)
 Dispersion                     ...        0 min,  0.029 sec (  2.471%)
 classical contributions        ...        0 min,  0.021 sec (  1.819%)
 integral evaluation            ...        0 min,  0.036 sec (  3.062%)
 iterations                     ...        0 min,  0.931 sec ( 79.425%)
 molecular gradient             ...        0 min,  0.143 sec ( 12.177%)
 printout                       ...        0 min,  0.000 sec (  0.013%)

         :::::::::::::::::::::::::::::::::::::::::::::::::::::
         ::                     SUMMARY                     ::
         :::::::::::::::::::::::::::::::::::::::::::::::::::::
         :: total energy             -28.688520380762 Eh    ::
         :: gradient norm              0.069914164816 Eh/a0 ::
         :: HOMO-LUMO gap              3.801350832942 eV    ::
         ::.................................................::
         :: SCC energy               -29.088191096011 Eh    ::
         :: -> isotropic ES            0.033367176306 Eh    ::
         :: -> anisotropic ES          0.003741441368 Eh    ::
         :: -> anisotropic XC          0.015447424625 Eh    ::
         :: -> dispersion             -0.015598354056 Eh    ::
         :: repulsion energy           0.399611031346 Eh    ::
         :: add. restraining           0.000000000000 Eh    ::
         :: total charge               0.000000000000 e     ::
         :::::::::::::::::::::::::::::::::::::::::::::::::::::

      ----------------------------------------------------------- 
     |                   =====================                   |
     |                        A N C O P T                        |
     |                   =====================                   |
     |               Approximate Normal Coordinate               |
     |                Rational Function Optimizer                |
      ----------------------------------------------------------- 

          ...................................................
          :                      SETUP                      :
          :.................................................:
          :   optimization level            normal          :
          :   max. optcycles                   200          :
          :   ANC micro-cycles                  20          :
          :   degrees of freedom                51          :
          :.................................................:
          :   RF solver                   davidson          :
          :   write xtbopt.log                true          :
          :   linear?                        false          :
          :   energy convergence         0.5000000E-05 Eh   :
          :   grad. convergence          0.1000000E-02 Eh/α :
          :   maximium RF displ.         1.0000000          :
          :   Hlow (freq-cutoff)         0.1000000E-01      :
          :   Hmax (freq-cutoff)         5.0000000          :
          :   S6 in model hess.         20.0000000          :
          ...................................................

generating ANC from model Hessian ...
Using Lindh-Hessian (1995)
 Shifting diagonal of input Hessian by    7.2055010796109945E-003
 Lowest  eigenvalues of input Hessian
    0.000000    0.000000    0.000000    0.000000    0.000000    0.000000
    0.010000    0.011391    0.013783    0.018594    0.020091    0.023098
    0.023413    0.029122    0.034633    0.045337    0.052745    0.065272
 Highest eigenvalues
    1.876565    1.928446    2.173386    2.650347    4.102340   21.301112


........................................................................
.............................. CYCLE    1 ..............................
........................................................................
   1    -29.0881911 -0.290882E+02  0.136E-04    3.80       0.0  T
   2    -29.0881911 -0.321627E-10  0.846E-05    3.80     271.2  T
   3    -29.0881911 -0.371969E-11  0.573E-05    3.80     400.1  T
     SCC iter.                  ...        0 min,  0.231 sec
     gradient                   ...        0 min,  0.131 sec
 * total energy  :   -28.6885204 Eh     change       -0.1001617E-08 Eh
   gradient norm :     0.0699139 Eh/α   predicted     0.0000000E+00 (-100.00%)
   displ. norm   :     0.3685749 α      lambda       -0.1388130E-01
   maximum displ.:     0.2133556 α      in ANC's #11, #10, #6, ...

........................................................................
.............................. CYCLE    2 ..............................
........................................................................
   1    -29.1327686 -0.291328E+02  0.340E-01    3.98       0.0  T
   2    -29.1329830 -0.214328E-03  0.222E-01    4.00       1.0  T
   3    -29.1329557  0.272175E-04  0.108E-01    3.99       1.0  T
   4    -29.1330452 -0.894023E-04  0.244E-02    4.00       1.0  T
   5    -29.1330534 -0.827551E-05  0.635E-03    4.00       3.6  T
   6    -29.1330537 -0.240523E-06  0.279E-03    4.00       8.2  T
   7    -29.1330537 -0.281986E-07  0.135E-03    4.00      17.0  T
   8    -29.1330537 -0.211346E-08  0.382E-04    4.00      60.0  T
   9    -29.1330537 -0.903857E-09  0.134E-04    4.00     171.2  T
     SCC iter.                  ...        0 min,  0.924 sec
     gradient                   ...        0 min,  0.147 sec
 * total energy  :   -28.6972836 Eh     change       -0.8763235E-02 Eh
   gradient norm :     0.0396281 Eh/α   predicted    -0.7885964E-02 ( -10.01%)
   displ. norm   :     0.2659200 α      lambda       -0.3103362E-02
   maximum displ.:     0.1610039 α      in ANC's #11, #7, #2, ...

........................................................................
.............................. CYCLE    3 ..............................
........................................................................
   1    -29.1543430 -0.291543E+02  0.187E-01    4.04       0.0  T
   2    -29.1544859 -0.142966E-03  0.128E-01    4.07       1.0  T
   3    -29.1545038 -0.179225E-04  0.642E-02    4.06       1.0  T
   4    -29.1545092 -0.537728E-05  0.209E-02    4.06       1.1  T
   5    -29.1545156 -0.635771E-05  0.347E-03    4.06       6.6  T
   6    -29.1545156 -0.407203E-07  0.174E-03    4.06      13.2  T
   7    -29.1545156 -0.118976E-07  0.662E-04    4.06      34.6  T
   8    -29.1545156 -0.981785E-09  0.241E-04    4.06      95.2  T
     SCC iter.                  ...        0 min,  0.683 sec
     gradient                   ...        0 min,  0.131 sec
 * total energy  :   -28.6977639 Eh     change       -0.4802977E-03 Eh
   gradient norm :     0.1723928 Eh/α   predicted    -0.1661811E-02 ( 246.00%)
   displ. norm   :     0.1244164 α      lambda       -0.2643986E-02
   maximum displ.:     0.0890495 α      in ANC's #2, #11, #7, ...

........................................................................
.............................. CYCLE    4 ..............................
........................................................................
   1    -29.1574547 -0.291575E+02  0.738E-02    4.05       0.0  T
   2    -29.1574765 -0.217912E-04  0.498E-02    4.06       1.0  T
   3    -29.1574783 -0.178261E-05  0.240E-02    4.06       1.0  T
   4    -29.1574789 -0.615352E-06  0.830E-03    4.06       2.8  T
   5    -29.1574799 -0.104811E-05  0.117E-03    4.06      19.6  T
   6    -29.1574799 -0.242559E-08  0.561E-04    4.06      40.9  T
   7    -29.1574799 -0.108113E-08  0.195E-04    4.06     117.8  T
     SCC iter.                  ...        0 min,  0.643 sec
     gradient                   ...        0 min,  0.121 sec
 * total energy  :   -28.6977560 Eh     change        0.7934099E-05 Eh
   gradient norm :     0.1649333 Eh/α   predicted    -0.1342360E-02 (*******%)
   displ. norm   :     0.1348614 α      lambda       -0.4034469E-02
   maximum displ.:     0.0791870 α      in ANC's #11, #3, #7, ...

........................................................................
.............................. CYCLE    5 ..............................
........................................................................
   1    -29.1460547 -0.291461E+02  0.116E-01    4.02       0.0  T
   2    -29.1460782 -0.235070E-04  0.743E-02    4.02       1.0  T
   3    -29.1460750  0.313962E-05  0.328E-02    4.02       1.0  T
   4    -29.1460830 -0.792347E-05  0.805E-03    4.02       2.8  T
   5    -29.1460840 -0.101374E-05  0.204E-03    4.02      11.2  T
   6    -29.1460840 -0.131220E-07  0.992E-04    4.02      23.1  T
   7    -29.1460840 -0.360752E-08  0.369E-04    4.02      62.2  T
     SCC iter.                  ...        0 min,  0.600 sec
     gradient                   ...        0 min,  0.138 sec
 * total energy  :   -28.6986758 Eh     change       -0.9198331E-03 Eh
   gradient norm :     0.0107097 Eh/α   predicted    -0.1066632E-02 (  15.96%)
   displ. norm   :     0.0794400 α      lambda       -0.5241861E-03
   maximum displ.:     0.0560412 α      in ANC's #2, #4, #6, ...

........................................................................
.............................. CYCLE    6 ..............................
........................................................................
   1    -29.1487787 -0.291488E+02  0.705E-02    4.02       0.0  T
   2    -29.1487793 -0.646179E-06  0.418E-02    4.02       1.0  T
   3    -29.1487790  0.285735E-06  0.590E-03    4.02       3.9  T
   4    -29.1487795 -0.471045E-06  0.152E-03    4.02      15.1  T
   5    -29.1487795 -0.654549E-08  0.894E-04    4.02      25.7  T
   6    -29.1487795 -0.190698E-08  0.276E-04    4.02      83.0  T
     SCC iter.                  ...        0 min,  0.544 sec
     gradient                   ...        0 min,  0.140 sec
 * total energy  :   -28.6987626 Eh     change       -0.8683662E-04 Eh
   gradient norm :     0.0126469 Eh/α   predicted    -0.9542411E-04 (   9.89%)
   displ. norm   :     0.0586373 α      lambda       -0.1807960E-03
   maximum displ.:     0.0542786 α      in ANC's #2, #1, #4, ...

........................................................................
.............................. CYCLE    7 ..............................
........................................................................
   1    -29.1491350 -0.291491E+02  0.275E-02    4.02       0.0  T
   2    -29.1491353 -0.325682E-06  0.161E-02    4.02       1.4  T
   3    -29.1491351  0.213292E-06  0.483E-03    4.02       4.7  T
   4    -29.1491354 -0.276593E-06  0.974E-04    4.02      23.5  T
   5    -29.1491354 -0.970021E-08  0.346E-04    4.02      66.3  T
     SCC iter.                  ...        0 min,  0.449 sec
     gradient                   ...        0 min,  0.139 sec
 * total energy  :   -28.6988028 Eh     change       -0.4011779E-04 Eh
   gradient norm :     0.0039214 Eh/α   predicted    -0.2434077E-04 ( -39.33%)
   displ. norm   :     0.0755959 α      lambda       -0.2597704E-03
   maximum displ.:     0.0670533 α      in ANC's #2, #1, #4, ...

........................................................................
.............................. CYCLE    8 ..............................
........................................................................
   1    -29.1488093 -0.291488E+02  0.344E-02    4.01       0.0  T
   2    -29.1488095 -0.178342E-06  0.201E-02    4.01       1.1  T
   3    -29.1488094  0.819832E-07  0.322E-03    4.01       7.1  T
   4    -29.1488095 -0.126278E-06  0.820E-04    4.01      28.0  T
   5    -29.1488096 -0.362296E-08  0.352E-04    4.01      65.2  T
     SCC iter.                  ...        0 min,  0.468 sec
     gradient                   ...        0 min,  0.135 sec
 * total energy  :   -28.6988379 Eh     change       -0.3508345E-04 Eh
   gradient norm :     0.0032718 Eh/α   predicted    -0.2284988E-04 ( -34.87%)
   displ. norm   :     0.0672297 α      lambda       -0.1841439E-03
   maximum displ.:     0.0602198 α      in ANC's #2, #1, #4, ...

........................................................................
.............................. CYCLE    9 ..............................
........................................................................
   1    -29.1488041 -0.291488E+02  0.305E-02    4.01       0.0  T
   2    -29.1488042 -0.132678E-06  0.179E-02    4.01       1.3  T
   3    -29.1488041  0.113176E-06  0.325E-03    4.01       7.1  T
   4    -29.1488042 -0.154723E-06  0.650E-04    4.01      35.3  T
   5    -29.1488042 -0.171444E-08  0.276E-04    4.01      83.2  T
     SCC iter.                  ...        0 min,  0.563 sec
     gradient                   ...        0 min,  0.164 sec
 * total energy  :   -28.6988568 Eh     change       -0.1889927E-04 Eh
   gradient norm :     0.0020596 Eh/α   predicted    -0.1202145E-04 ( -36.39%)
   displ. norm   :     0.0432861 α      lambda       -0.9355610E-04
   maximum displ.:     0.0394315 α      in ANC's #2, #1, #4, ...

........................................................................
.............................. CYCLE   10 ..............................
........................................................................
   1    -29.1488721 -0.291489E+02  0.201E-02    4.01       0.0  T
   2    -29.1488722 -0.590505E-07  0.118E-02    4.01       1.9  T
   3    -29.1488721  0.548774E-07  0.214E-03    4.01      10.7  T
   4    -29.1488722 -0.722681E-07  0.412E-04    4.01      55.7  T
   5    -29.1488722 -0.104650E-08  0.192E-04    4.01     119.5  T
     SCC iter.                  ...        0 min,  0.516 sec
     gradient                   ...        0 min,  0.156 sec
 * total energy  :   -28.6988644 Eh     change       -0.7617406E-05 Eh
   gradient norm :     0.0007981 Eh/α   predicted    -0.4858801E-05 ( -36.21%)
   displ. norm   :     0.0357246 α      lambda       -0.3448522E-04
   maximum displ.:     0.0336828 α      in ANC's #2, #1, #3, ...

........................................................................
.............................. CYCLE   11 ..............................
........................................................................
   1    -29.1489227 -0.291489E+02  0.172E-02    4.01       0.0  T
   2    -29.1489227 -0.281668E-07  0.101E-02    4.01       2.3  T
   3    -29.1489227  0.391508E-07  0.176E-03    4.01      13.0  T
   4    -29.1489227 -0.511441E-07  0.287E-04    4.01      79.9  T
   5    -29.1489227 -0.149665E-09  0.129E-04    4.01     177.4  T
     SCC iter.                  ...        0 min,  0.467 sec
     gradient                   ...        0 min,  0.151 sec
 * total energy  :   -28.6988677 Eh     change       -0.3314197E-05 Eh
   gradient norm :     0.0009816 Eh/α   predicted    -0.1625992E-05 ( -50.94%)
   displ. norm   :     0.0144861 α      lambda       -0.9334415E-05
   maximum displ.:     0.0139258 α      in ANC's #2, #7, #3, ...

   *** GEOMETRY OPTIMIZATION CONVERGED AFTER 11 ITERATIONS ***

------------------------------------------------------------------------
 total energy gain   :        -0.0103473 Eh       -6.4930 kcal/mol
 total RMSD          :         0.1859777 a0        0.0984 Å
 total power (kW/mol):        -2.4697123 (step)   -3.1461 (real)
------------------------------------------------------------------------

 ANCopt (total)                0 d,  0 h,  0 min,  8.635 sec
 optimizer setup                ...        0 min,  0.000 sec (  0.002%)
 model hessian                  ...        0 min,  0.003 sec (  0.040%)
 ANC generation                 ...        0 min,  0.001 sec (  0.006%)
 coordinate transformation      ...        0 min,  0.000 sec (  0.004%)
 single point calculation       ...        0 min,  8.475 sec ( 98.144%)
 optimization log               ...        0 min,  0.006 sec (  0.073%)
 hessian update                 ...        0 min,  0.124 sec (  1.436%)
 rational function              ...        0 min,  0.024 sec (  0.280%)

================
 final structure:
================
19
 xtb: 6.5.0 (97a52f5)
C            2.19485658930949        0.47726278937304        0.60298941607750
N            1.06189086843985       -0.16365511478795        0.97348450488349
C           -0.12588209844942       -0.08280425574051        0.20123485529321
C           -0.05817445143835       -0.05945530868253       -1.18876400346648
C            1.06498849282688       -1.01904504810911        2.13968978777130
C           -1.37044692556928       -0.00104645233928        0.81929849214111
C           -2.52187966010424        0.09186741003809        0.05916578563378
C           -2.45092458192951        0.11050696813136       -1.32278799401878
C           -1.21474101578032        0.03773298418553       -1.94060684311191
H           -1.45368987454478        0.00850739481845        1.89510277656429
H            0.89884739564615       -0.11529868420050       -1.67940388121594
O            2.36688674376577        1.14029353019648       -0.38831708387395
H            0.98719224258469       -2.06682143318609        1.83539043154435
H            0.22934274180978       -0.79554732799028        2.80115202327407
H            1.99313204872294       -0.88138085007342        2.69095559321231
H           -3.47984187242252        0.15665412884792        0.55397689241301
H           -1.14622853903998        0.05268380320064       -3.01802200452005
H           -3.35238170701072        0.18435196042834       -1.91209857510828
H            3.00073460318365        0.32397649588977        1.34814580650699

 Bond Distances (Angstroems)
 ---------------------------
C1-N2=1.3534         C1-O12=1.2049        C1-H19=1.1082        N2-C1=1.3534         N2-C3=1.4191         N2-C5=1.4463         
C3-N2=1.4191         C3-C4=1.3918         C3-C6=1.3920         C4-C3=1.3918         C4-C9=1.3829         C4-H11=1.0769        
C5-N2=1.4463         C5-H13=1.0938        C5-H14=1.0889        C5-H15=1.0883        C6-C3=1.3920         C6-C7=1.3828         
C6-H10=1.0791        C7-C6=1.3828         C7-C8=1.3839         C7-H16=1.0802        C8-C7=1.3839         C8-C9=1.3839         
C8-H18=1.0795        C9-C4=1.3829         C9-C8=1.3839         C9-H17=1.0797        H10-C6=1.0791        H11-C4=1.0769        
O12-C1=1.2049        H13-C5=1.0938        H14-C5=1.0889        H15-C5=1.0883        H16-C7=1.0802        H17-C9=1.0797        
H18-C8=1.0795        H19-C1=1.1082        
 C  H  Rav=1.0861 sigma=0.0095  Rmin=1.0769  Rmax=1.1082     9
 C  C  Rav=1.3862 sigma=0.0040  Rmin=1.3828  Rmax=1.3920     6
 N  C  Rav=1.4062 sigma=0.0390  Rmin=1.3534  Rmax=1.4463     3
 O  C  Rav=1.2049 sigma=0.0000  Rmin=1.2049  Rmax=1.2049     1

 selected bond angles (degree)
 --------------------
O12-C1-N2=127.25               H19-C1-N2=111.05               H19-C1-O12=121.70              C3-N2-C1=121.65                
C5-N2-C1=119.94                C5-N2-C3=118.31                C4-C3-N2=120.25                C6-C3-N2=120.67                
C6-C3-C4=119.07                C9-C4-C3=120.23                H11-C4-C3=119.83               H11-C4-C9=119.95               
H13-C5-N2=110.00               H14-C5-N2=111.52               H14-C5-H13=108.12              H15-C5-N2=109.60               
H15-C5-H13=108.83              H15-C5-H14=108.71              C7-C6-C3=120.29                H10-C6-C3=120.81               
H10-C6-C7=118.89               C8-C7-C6=120.47                H16-C7-C6=119.39               H16-C7-C8=120.14               
C9-C8-C7=119.40                H18-C8-C7=120.21               H18-C8-C9=120.39               C8-C9-C4=120.53                
H17-C9-C4=119.37               H17-C9-C8=120.10               

 selected dihedral angles (degree)
 ---------------------------------
C3-N2-C1-O12=358.04           C3-N2-C1-H19=177.99           C5-N2-C1-O12=174.36           C5-N2-C1-H19=354.31           
C4-C3-N2-C1= 37.12            C4-C3-N2-C5=220.75            C6-C3-N2-C1=218.31            C6-C3-N2-C5= 41.93            
C9-C4-C3-N2=180.88            C9-C4-C3-C6=359.71            H11-C4-C3-N2=  0.76           H11-C4-C3-C6=179.59           
H13-C5-N2-C1=250.91           H13-C5-N2-C3= 67.35           H14-C5-N2-C1=130.96           H14-C5-N2-C3=307.40           
H15-C5-N2-C1= 10.53           H15-C5-N2-C3=186.97           C7-C6-C3-N2=179.31            C7-C6-C3-C4=  0.48            
H10-C6-C3-N2=  0.38           H10-C6-C3-C4=181.56           C8-C7-C6-C3=359.72            C8-C7-C6-H10=178.66           
H16-C7-C6-C3=180.13           H16-C7-C6-H10=359.07          C9-C8-C7-C6=359.88            C9-C8-C7-H16=179.47           
H18-C8-C7-C6=180.07           H18-C8-C7-H16=359.66          C8-C9-C4-C3=359.89            C8-C9-C4-H11=180.01           
H17-C9-C4-C3=180.12           H17-C9-C4-H11=  0.25          C4-C9-C8-C7=  0.32            C4-C9-C8-H18=180.12           
H17-C9-C8-C7=180.08           H17-C9-C8-H18=359.89          
           -------------------------------------------------
          |                Final Singlepoint                |
           -------------------------------------------------

          ...................................................
          :                      SETUP                      :
          :.................................................:
          :  # basis functions                  49          :
          :  # atomic orbitals                  49          :
          :  # shells                           29          :
          :  # electrons                        52          :
          :  max. iterations                   250          :
          :  Hamiltonian                  GFN2-xTB          :
          :  restarted?                      false          :
          :  GBSA solvation                  false          :
          :  PC potential                    false          :
          :  electronic temp.          300.0000000     K    :
          :  accuracy                    1.0000000          :
          :  -> integral cutoff          0.2500000E+02      :
          :  -> integral neglect         0.1000000E-07      :
          :  -> SCF convergence          0.1000000E-05 Eh   :
          :  -> wf. convergence          0.1000000E-03 e    :
          :  Broyden damping             0.4000000          :
          ...................................................

 iter      E             dE          RMSdq      gap      omega  full diag
   1    -29.1489227 -0.291489E+02  0.514E-05    4.01       0.0  T
   2    -29.1489227 -0.133795E-10  0.303E-05    4.01     757.6  T
   3    -29.1489227 -0.531131E-11  0.180E-05    4.01    1278.0  T

   *** convergence criteria satisfied after 3 iterations ***

         #    Occupation            Energy/Eh            Energy/eV
      -------------------------------------------------------------
         1        2.0000           -0.7011383             -19.0789
       ...           ...                  ...                  ...
        20        2.0000           -0.4808415             -13.0844
        21        2.0000           -0.4417511             -12.0207
        22        2.0000           -0.4392581             -11.9528
        23        2.0000           -0.4244154             -11.5489
        24        2.0000           -0.4105318             -11.1711
        25        2.0000           -0.3968635             -10.7992
        26        2.0000           -0.3859039             -10.5010 (HOMO)
        27                         -0.2386609              -6.4943 (LUMO)
        28                         -0.2283618              -6.2140
        29                         -0.2018844              -5.4936
        30                         -0.0967458              -2.6326
        31                         -0.0076608              -0.2085
       ...                                ...                  ...
        49                          0.6703283              18.2406
      -------------------------------------------------------------
                  HL-Gap            0.1472430 Eh            4.0067 eV
             Fermi-level           -0.3122824 Eh           -8.4976 eV

 SCC (total)                   0 d,  0 h,  0 min,  0.531 sec
 SCC setup                      ...        0 min,  0.009 sec (  1.635%)
 Dispersion                     ...        0 min,  0.026 sec (  4.901%)
 classical contributions        ...        0 min,  0.012 sec (  2.210%)
 integral evaluation            ...        0 min,  0.038 sec (  7.182%)
 iterations                     ...        0 min,  0.304 sec ( 57.277%)
 molecular gradient             ...        0 min,  0.142 sec ( 26.734%)
 printout                       ...        0 min,  0.000 sec (  0.024%)

         :::::::::::::::::::::::::::::::::::::::::::::::::::::
         ::                     SUMMARY                     ::
         :::::::::::::::::::::::::::::::::::::::::::::::::::::
         :: total energy             -28.698867682087 Eh    ::
         :: gradient norm              0.000981325346 Eh/a0 ::
         :: HOMO-LUMO gap              4.006685006770 eV    ::
         ::.................................................::
         :: SCC energy               -29.148922704093 Eh    ::
         :: -> isotropic ES            0.033115885953 Eh    ::
         :: -> anisotropic ES          0.003552793928 Eh    ::
         :: -> anisotropic XC          0.013680441234 Eh    ::
         :: -> dispersion             -0.015967255529 Eh    ::
         :: repulsion energy           0.449994641293 Eh    ::
         :: add. restraining           0.000003050932 Eh    ::
         :: total charge               0.000000000000 e     ::
         :::::::::::::::::::::::::::::::::::::::::::::::::::::

           -------------------------------------------------
          |                Property Printout                |
           -------------------------------------------------

    * Orbital Energies and Occupations

         #    Occupation            Energy/Eh            Energy/eV
      -------------------------------------------------------------
         1        2.0000           -0.7011383             -19.0789
       ...           ...                  ...                  ...
        14        2.0000           -0.5135561             -13.9746
        15        2.0000           -0.5065238             -13.7832
        16        2.0000           -0.4991936             -13.5838
        17        2.0000           -0.4948566             -13.4657
        18        2.0000           -0.4860501             -13.2261
        19        2.0000           -0.4837257             -13.1628
        20        2.0000           -0.4808415             -13.0844
        21        2.0000           -0.4417511             -12.0207
        22        2.0000           -0.4392581             -11.9528
        23        2.0000           -0.4244154             -11.5489
        24        2.0000           -0.4105318             -11.1711
        25        2.0000           -0.3968635             -10.7992
        26        2.0000           -0.3859039             -10.5010 (HOMO)
        27                         -0.2386609              -6.4943 (LUMO)
        28                         -0.2283618              -6.2140
        29                         -0.2018844              -5.4936
        30                         -0.0967458              -2.6326
        31                         -0.0076608              -0.2085
        32                          0.0730566               1.9880
        33                          0.0997573               2.7145
        34                          0.1332673               3.6264
        35                          0.1537096               4.1827
        36                          0.1589971               4.3265
        37                          0.1674179               4.5557
       ...                                ...                  ...
        49                          0.6703283              18.2406
      -------------------------------------------------------------
                  HL-Gap            0.1472430 Eh            4.0067 eV
             Fermi-level           -0.3122824 Eh           -8.4976 eV

     #   Z          covCN         q      C6AA      α(0)
     1   6 C        2.712     0.248    22.839     7.823
     2   7 N        2.734    -0.079    22.780     7.089
     3   6 C        2.920     0.069    26.446     8.433
     4   6 C        2.923    -0.036    28.895     8.815
     5   6 C        3.700    -0.049    21.610     6.648
     6   6 C        2.922    -0.046    29.135     8.852
     7   6 C        2.921    -0.029    28.729     8.790
     8   6 C        2.919    -0.033    28.819     8.803
     9   6 C        2.921    -0.026    28.659     8.779
    10   1 H        0.926     0.033     2.542     2.493
    11   1 H        0.926     0.063     2.159     2.298
    12   8 O        0.857    -0.402    21.730     6.250
    13   1 H        0.924     0.055     2.261     2.351
    14   1 H        0.925     0.062     2.180     2.309
    15   1 H        0.925     0.059     2.214     2.327
    16   1 H        0.926     0.035     2.513     2.479
    17   1 H        0.926     0.040     2.444     2.445
    18   1 H        0.926     0.036     2.504     2.475
    19   1 H        0.922    -0.000     3.063     2.737

 Mol. C6AA /au·bohr⁶  :       4194.058464
 Mol. C8AA /au·bohr⁸  :      98819.475005
 Mol. α(0) /au        :        102.194413


Wiberg/Mayer (AO) data.
largest (>0.10) Wiberg bond orders for each atom

 ---------------------------------------------------------------------------
     #   Z sym  total        # sym  WBO       # sym  WBO       # sym  WBO
 ---------------------------------------------------------------------------
     1   6 C    3.954 --    12 O    1.733     2 N    1.239    19 H    0.916
     2   7 N    3.536 --     1 C    1.239     3 C    1.020     5 C    0.998
                            12 O    0.196
     3   6 C    3.961 --     6 C    1.388     4 C    1.387     2 N    1.020
                             8 C    0.102
     4   6 C    3.989 --     9 C    1.447     3 C    1.387    11 H    0.965
                             7 C    0.109
     5   6 C    3.970 --     2 N    0.998    15 H    0.977    13 H    0.976
                            14 H    0.972
     6   6 C    3.991 --     7 C    1.449     3 C    1.388    10 H    0.964
                             9 C    0.109
     7   6 C    3.992 --     6 C    1.449     8 C    1.435    16 H    0.971
                             4 C    0.109
     8   6 C    3.992 --     9 C    1.437     7 C    1.435    18 H    0.971
                             3 C    0.102
     9   6 C    3.992 --     4 C    1.447     8 C    1.437    17 H    0.970
                             6 C    0.109
    10   1 H    0.999 --     6 C    0.964
    11   1 H    0.996 --     4 C    0.965
    12   8 O    2.043 --     1 C    1.733     2 N    0.196
    13   1 H    0.997 --     5 C    0.976
    14   1 H    0.996 --     5 C    0.972
    15   1 H    0.996 --     5 C    0.977
    16   1 H    0.998 --     7 C    0.971
    17   1 H    0.998 --     9 C    0.970
    18   1 H    0.999 --     8 C    0.971
    19   1 H    0.999 --     1 C    0.916
 ---------------------------------------------------------------------------

Topologies differ in total number of bonds
Writing topology from bond orders to xtbtopo.mol

molecular dipole:
                 x           y           z       tot (Debye)
 q only:       -0.753      -0.937       0.856
   full:       -0.707      -1.048       1.109       4.273
molecular quadrupole (traceless):
                xx          xy          yy          xz          yz          zz
 q only:       -3.640      -5.464      -2.452       5.117      -0.626       6.092
  q+dip:       -1.431      -6.900      -6.532       6.399       0.336       7.963
   full:       -3.033      -6.826      -3.663       6.390       0.463       6.696

           -------------------------------------------------
          |                Geometry Summary                 |
           -------------------------------------------------

      molecular mass/u    :      135.1634621
   center of mass at/Å    :       -0.0254028       0.0551144       0.0326227
  moments of inertia/u·Å² :        0.1993441E+03   0.4803125E+03   0.6340276E+03
rotational constants/cm⁻¹ :        0.8456551E-01   0.3509722E-01   0.2658817E-01

 * 18 selected distances

     #   Z          #   Z                                           value/Å
     1   6 C        2   7 N                                       1.3533861
     2   7 N        3   6 C                                       1.4190530
     3   6 C        4   6 C                                       1.3918429
     2   7 N        5   6 C                                       1.4462837 (max)
     3   6 C        6   6 C                                       1.3919874
     6   6 C        7   6 C                                       1.3828349
     7   6 C        8   6 C                                       1.3838998
     4   6 C        9   6 C                                       1.3828810
     8   6 C        9   6 C                                       1.3838881
     6   6 C       10   1 H                                       1.0790624
     4   6 C       11   1 H                                       1.0769109 (min)
     1   6 C       12   8 O                                       1.2049452
     5   6 C       13   1 H                                       1.0938400
     5   6 C       14   1 H                                       1.0889387
     5   6 C       15   1 H                                       1.0882537
     7   6 C       16   1 H                                       1.0801515
     9   6 C       17   1 H                                       1.0796949
     8   6 C       18   1 H                                       1.0795208

 * 4 distinct bonds (by element types)

   Z      Z             #   av. dist./Å        max./Å        min./Å
   1 H    6 C           8     1.0832966     1.0938400     1.0769109
   6 C    6 C           6     1.3862224     1.3919874     1.3828349
   6 C    7 N           3     1.4062410     1.4462837     1.3533861
   6 C    8 O           1     1.2049452     1.2049452     1.2049452


optimized geometry written to: xtbopt.xyz


           -------------------------------------------------
          | TOTAL ENERGY              -28.698867682087 Eh   |
          | GRADIENT NORM               0.000981325346 Eh/α |
          | HOMO-LUMO GAP               4.006685006770 eV   |
           -------------------------------------------------
########################################################################
[WARNING] Runtime exception occurred
-1- restart_readRestart: Number of electron missmatch in restart file.
########################################################################

------------------------------------------------------------------------
 * finished run on 2023/11/18 at 08:24:07.977     
------------------------------------------------------------------------
 total:
 * wall-time:     0 d,  0 h,  0 min, 10.505 sec
 *  cpu-time:     0 d,  0 h,  7 min, 23.107 sec
 * ratio c/w:    42.183 speedup
 SCF:
 * wall-time:     0 d,  0 h,  0 min,  1.173 sec
 *  cpu-time:     0 d,  0 h,  0 min, 47.220 sec
 * ratio c/w:    40.267 speedup
 ANC optimizer:
 * wall-time:     0 d,  0 h,  0 min,  9.171 sec
 *  cpu-time:     0 d,  0 h,  6 min, 30.111 sec
 * ratio c/w:    42.538 speedup

