
    -----------------------------------------------------------------------
          Psi4: An Open-Source Ab Initio Electronic Structure Package
                               Psi4 1.5 release

                         Git: Rev {HEAD} e9f4d6d 


    D. G. A. Smith, L. A. Burns, A. C. Simmonett, R. M. Parrish,
    M. C. Schieber, R. Galvelis, P. Kraus, H. Kruse, R. Di Remigio,
    A. Alenaizan, A. M. James, S. Lehtola, J. P. Misiewicz, M. Scheurer,
    R. A. Shaw, J. B. Schriber, Y. Xie, Z. L. Glick, D. A. Sirianni,
    J. S. O'Brien, J. M. Waldrop, A. Kumar, E. G. Hohenstein,
    B. P. Pritchard, B. R. Brooks, H. F. Schaefer III, A. Yu. Sokolov,
    K. Patkowski, A. E. DePrince III, U. Bozkaya, R. A. King,
    F. A. Evangelista, J. M. Turney, T. D. Crawford, C. D. Sherrill,
    J. Chem. Phys. 152(18) 184108 (2020). https://doi.org/10.1063/5.0006002

                            Additional Code Authors
    E. T. Seidl, C. L. Janssen, E. F. Valeev, M. L. Leininger,
    J. F. Gonthier, R. M. Richard, H. R. McAlexander, M. Saitow, X. Wang,
    P. Verma, M. H. Lechner, and A. Jiang

             Previous Authors, Complete List of Code Contributors,
                       and Citations for Specific Modules
    https://github.com/psi4/psi4/blob/master/codemeta.json
    https://github.com/psi4/psi4/graphs/contributors
    http://psicode.org/psi4manual/master/introduction.html#citing-psifour

    -----------------------------------------------------------------------


    Psi4 started on: Wednesday, 08 June 2022 01:32PM

    Process ID: 1118354
    Host:       node74.bme.utexas.edu
    PSIDATADIR: /home/bdw2292/miniconda3/envs/newamoebamdpoltype/share/psi4
    Memory:     500.0 MiB
    Threads:    1
    
  ==> Input File <==

--------------------------------------------------------------------------
molecule { 
0 1
 C    1.199345   -0.428765   -0.904329
 N    0.492014   -0.347400    0.384642
 C   -0.947417   -0.514939    0.371500
 C   -1.758152    0.256202   -0.673006
 C    1.003776    0.689074    1.298613
 H   -1.333609   -0.292516    1.369399
 H   -1.182715   -1.572797    0.192304
 N   -3.114374    0.135108   -0.529719
 O   -1.262924    0.884413   -1.620976
 C    2.659464   -0.842412   -0.736955
 H    0.682970   -1.173216   -1.514414
 H    1.136435    0.517254   -1.450744
 C    1.828075    0.108971    2.447845
 H    1.606976    1.409190    0.732635
 H    0.165984    1.264099    1.706321
 H    2.731949   -1.774984   -0.174901
 H    3.121496   -0.985410   -1.716331
 H    2.185421    0.900326    3.112458
 H    1.223494   -0.587764    3.031727
 H   -3.538202   -0.138938    0.337178
 H   -3.696615    0.581888   -1.216086
 H    3.237205   -0.079603   -0.210905
 H    2.688918   -0.439880    2.067196
}
memory 8.166666666666666GB
set_num_threads(2)
psi4_io.set_default_path("/scratch/bdw2292/Psi4-4_27_Index_0-farH_in17")
set freeze_core True
E, wfn = energy('wb97x-d/6-311+G*',return_wfn=True)
oeprop(wfn,"WIBERG_LOWDIN_INDICES")
clean()
--------------------------------------------------------------------------

  Memory set to   7.606 GiB by Python driver.
  Threads set to 2 by Python driver.

Scratch directory: /scratch/bdw2292/Psi4-4_27_Index_0-farH_in17/

Scratch directory: /scratch/bdw2292/Psi4-4_27_Index_0-farH_in17/

*** tstart() called on node74.bme.utexas.edu
*** at Wed Jun  8 13:32:40 2022

   => Loading Basis Set <=

    Name: 6-311+G*
    Role: ORBITAL
    Keyword: BASIS
    atoms 1, 3-5, 10, 13    entry C          line   130 file /home/bdw2292/miniconda3/envs/newamoebamdpoltype/share/psi4/basis/6-311pgs.gbs 
    atoms 2, 8              entry N          line   151 file /home/bdw2292/miniconda3/envs/newamoebamdpoltype/share/psi4/basis/6-311pgs.gbs 
    atoms 6-7, 11-12, 14-23 entry H          line    47 file /home/bdw2292/miniconda3/envs/newamoebamdpoltype/share/psi4/basis/6-311pgs.gbs 
    atoms 9                 entry O          line   172 file /home/bdw2292/miniconda3/envs/newamoebamdpoltype/share/psi4/basis/6-311pgs.gbs 

   => WB97X-D: Empirical Dispersion <=

    Chai and Head-Gordon Dispersion Correction
    Chai, J.-D.; Head-Gordon, M. (2010), J. Chem. Phys., 132: 6615-6620

        s6 =       1.000000


         ---------------------------------------------------------
                                   SCF
               by Justin Turney, Rob Parrish, Andy Simmonett
                          and Daniel G. A. Smith
                              RKS Reference
                        2 Threads,   7788 MiB Core
         ---------------------------------------------------------

  ==> Geometry <==

    Molecular point group: c1
    Full point group: C1

    Geometry (in Angstrom), charge = 0, multiplicity = 1:

       Center              X                  Y                   Z               Mass       
    ------------   -----------------  -----------------  -----------------  -----------------
         C            1.199345045722    -0.428765208391    -0.904328897693    12.000000000000
         N            0.492014045722    -0.347400208391     0.384642102307    14.003074004430
         C           -0.947416954278    -0.514939208391     0.371500102307    12.000000000000
         C           -1.758151954278     0.256201791609    -0.673005897693    12.000000000000
         C            1.003776045722     0.689073791609     1.298613102307    12.000000000000
         H           -1.333608954278    -0.292516208391     1.369399102307     1.007825032230
         H           -1.182714954278    -1.572797208391     0.192304102307     1.007825032230
         N           -3.114373954278     0.135107791609    -0.529718897693    14.003074004430
         O           -1.262923954278     0.884412791609    -1.620975897693    15.994914619570
         C            2.659464045722    -0.842412208391    -0.736954897693    12.000000000000
         H            0.682970045722    -1.173216208391    -1.514413897693     1.007825032230
         H            1.136435045722     0.517253791609    -1.450743897693     1.007825032230
         C            1.828075045722     0.108970791609     2.447845102307    12.000000000000
         H            1.606976045722     1.409189791609     0.732635102307     1.007825032230
         H            0.165984045722     1.264098791609     1.706321102307     1.007825032230
         H            2.731949045722    -1.774984208391    -0.174900897693     1.007825032230
         H            3.121496045722    -0.985410208391    -1.716330897693     1.007825032230
         H            2.185421045722     0.900325791609     3.112458102307     1.007825032230
         H            1.223494045722    -0.587764208391     3.031727102307     1.007825032230
         H           -3.538201954278    -0.138938208391     0.337178102307     1.007825032230
         H           -3.696614954278     0.581887791609    -1.216085897693     1.007825032230
         H            3.237205045722    -0.079603208391    -0.210904897693     1.007825032230
         H            2.688918045722    -0.439880208391     2.067196102307     1.007825032230

  Running in c1 symmetry.

  Rotational constants: A =      0.08374  B =      0.03174  C =      0.02583 [cm^-1]
  Rotational constants: A =   2510.51583  B =    951.66433  C =    774.24514 [MHz]
  Nuclear repulsion =  482.910697663808492

  Charge       = 0
  Multiplicity = 1
  Electrons    = 72
  Nalpha       = 36
  Nbeta        = 36

  ==> Algorithm <==

  SCF Algorithm Type is DF.
  DIIS enabled.
  MOM disabled.
  Fractional occupation disabled.
  Guess Type is SAD.
  Energy threshold   = 1.00e-06
  Density threshold  = 1.00e-06
  Integral threshold = 1.00e-12

  ==> Primary Basis <==

  Basis Set: 6-311+G*
    Blend: 6-311+G*
    Number of shells: 132
    Number of basis functions: 240
    Number of Cartesian functions: 249
    Spherical Harmonics?: true
    Max angular momentum: 2

  ==> DFT Potential <==

   => LibXC <=

    Version 5.1.5
    S. Lehtola, C. Steigemann, M. J. Oliveira, and M. A. Marques, SoftwareX 7, 1 (2018) (10.1016/j.softx.2017.11.002)

   => Composite Functional: WB97X-D <= 

    wB97X-D Hyb-GGA Exchange-Correlation Functional

    J.-D. Chai and M. Head-Gordon, Phys. Chem. Chem. Phys. 10, 6615 (2008) (10.1039/B810189B)

    Deriv               =              1
    GGA                 =           TRUE
    Meta                =          FALSE

    Exchange Hybrid     =           TRUE
    MP2 Hybrid          =          FALSE

   => Exchange-Correlation Functionals <=

    1.0000   wB97X-D range-separated functional

   => Exact (HF) Exchange <=

    0.7780            HF,LR [omega = 0.2000]
    0.2220               HF 

   => LibXC Density Thresholds  <==

    XC_HYB_GGA_XC_WB97X_D:  1.00E-14 

   => Molecular Quadrature <=

    Radial Scheme          =       TREUTLER
    Pruning Scheme         =           NONE
    Nuclear Scheme         =       TREUTLER

    BS radius alpha        =              1
    Pruning alpha          =              1
    Radial Points          =             75
    Spherical Points       =            302
    Total Points           =         483757
    Total Blocks           =           3542
    Max Points             =            256
    Max Functions          =            221
    Weights Tolerance      =       1.00E-15

   => Loading Basis Set <=

    Name: (6-311+G* AUX)
    Role: JKFIT
    Keyword: DF_BASIS_SCF
    atoms 1, 3-5, 10, 13    entry C          line   200 file /home/bdw2292/miniconda3/envs/newamoebamdpoltype/share/psi4/basis/heavy-aug-cc-pvtz-jkfit.gbs 
    atoms 2, 8              entry N          line   262 file /home/bdw2292/miniconda3/envs/newamoebamdpoltype/share/psi4/basis/heavy-aug-cc-pvtz-jkfit.gbs 
    atoms 6-7, 11-12, 14-23 entry H          line   116 file /home/bdw2292/miniconda3/envs/newamoebamdpoltype/share/psi4/basis/heavy-aug-cc-pvtz-jkfit.gbs 
    atoms 9                 entry O          line   324 file /home/bdw2292/miniconda3/envs/newamoebamdpoltype/share/psi4/basis/heavy-aug-cc-pvtz-jkfit.gbs 

  ==> Integral Setup <==

  DFHelper Memory: AOs need 1.639 GiB; user supplied 3.399 GiB. Using in-core AOs.

  ==> MemDFJK: Density-Fitted J/K Matrices <==

    J tasked:                   Yes
    K tasked:                   Yes
    wK tasked:                  Yes
    Omega:                2.000E-01
    OpenMP threads:               2
    Memory [MiB]:              3480
    Algorithm:                 Core
    Schwarz Cutoff:           1E-12
    Mask sparsity (%):       7.5937
    Fitting Condition:        1E-10

   => Auxiliary Basis Set <=

  Basis Set: (6-311+G* AUX)
    Blend: HEAVY-AUG-CC-PVTZ-JKFIT
    Number of shells: 410
    Number of basis functions: 1356
    Number of Cartesian functions: 1669
    Spherical Harmonics?: true
    Max angular momentum: 4

  Cached 100.0% of DFT collocation blocks in 2.306 [GiB].

  Minimum eigenvalue in the overlap matrix is 2.1826658282E-05.
  Reciprocal condition number of the overlap matrix is 1.6089431409E-06.
    Using symmetric orthogonalization.

  ==> Pre-Iterations <==

  SCF Guess: Superposition of Atomic Densities via on-the-fly atomic UHF (no occupation information).

   -------------------------
    Irrep   Nso     Nmo    
   -------------------------
     A        240     240 
   -------------------------
    Total     240     240
   -------------------------

  ==> Iterations <==

                           Total Energy        Delta E     RMS |[F,P]|

   @DF-RKS iter SAD:  -420.95518448283741   -4.20955e+02   0.00000e+00 
   @DF-RKS iter   1:  -421.15993664848685   -2.04752e-01   4.72281e-03 DIIS
   @DF-RKS iter   2:  -421.29318666827101   -1.33250e-01   4.44376e-03 DIIS
   @DF-RKS iter   3:  -421.75049421615506   -4.57308e-01   8.81215e-04 DIIS
   @DF-RKS iter   4:  -421.76581231113903   -1.53181e-02   2.44843e-04 DIIS
   @DF-RKS iter   5:  -421.76712544202178   -1.31313e-03   8.73691e-05 DIIS
   @DF-RKS iter   6:  -421.76730644002203   -1.80998e-04   2.06162e-05 DIIS
   @DF-RKS iter   7:  -421.76731817761407   -1.17376e-05   5.09776e-06 DIIS
   @DF-RKS iter   8:  -421.76731896965606   -7.92042e-07   2.08270e-06 DIIS
   @DF-RKS iter   9:  -421.76731912909253   -1.59436e-07   5.38390e-07 DIIS
  Energy and wave function converged.


  ==> Post-Iterations <==

   Electrons on quadrature grid:
      Ntotal   =   72.0000006664 ; deviation = 6.664e-07 

    Orbital Energies [Eh]
    ---------------------

    Doubly Occupied:                                                      

       1A    -19.215743     2A    -14.460033     3A    -14.418501  
       4A    -10.395508     5A    -10.324485     6A    -10.302937  
       7A    -10.291989     8A    -10.263220     9A    -10.260187  
      10A     -1.135575    11A     -1.016969    12A     -1.013614  
      13A     -0.856571    14A     -0.852503    15A     -0.788271  
      16A     -0.718142    17A     -0.698254    18A     -0.663018  
      19A     -0.630469    20A     -0.580576    21A     -0.570671  
      22A     -0.559531    23A     -0.529201    24A     -0.521018  
      25A     -0.501583    26A     -0.495700    27A     -0.472373  
      28A     -0.464944    29A     -0.455305    30A     -0.438468  
      31A     -0.427850    32A     -0.418173    33A     -0.408438  
      34A     -0.362757    35A     -0.349821    36A     -0.280549  

    Virtual:                                                              

      37A      0.052047    38A      0.073345    39A      0.074455  
      40A      0.083700    41A      0.086951    42A      0.095253  
      43A      0.101776    44A      0.110723    45A      0.114769  
      46A      0.120169    47A      0.129874    48A      0.131838  
      49A      0.142089    50A      0.143196    51A      0.148752  
      52A      0.156219    53A      0.162563    54A      0.173958  
      55A      0.177685    56A      0.183597    57A      0.194462  
      58A      0.201027    59A      0.203934    60A      0.217436  
      61A      0.227151    62A      0.232638    63A      0.242040  
      64A      0.242485    65A      0.253924    66A      0.256176  
      67A      0.263475    68A      0.268491    69A      0.271507  
      70A      0.277887    71A      0.291474    72A      0.295982  
      73A      0.299703    74A      0.304330    75A      0.312427  
      76A      0.321574    77A      0.323170    78A      0.326756  
      79A      0.334884    80A      0.345884    81A      0.354051  
      82A      0.354891    83A      0.363708    84A      0.375476  
      85A      0.378340    86A      0.384918    87A      0.389213  
      88A      0.399270    89A      0.413354    90A      0.424107  
      91A      0.435181    92A      0.451456    93A      0.465032  
      94A      0.495553    95A      0.500230    96A      0.509574  
      97A      0.534931    98A      0.548769    99A      0.574532  
     100A      0.583301   101A      0.598335   102A      0.606742  
     103A      0.618255   104A      0.638083   105A      0.645741  
     106A      0.650857   107A      0.662028   108A      0.677791  
     109A      0.695501   110A      0.705056   111A      0.727695  
     112A      0.734088   113A      0.745078   114A      0.754743  
     115A      0.770066   116A      0.773800   117A      0.779864  
     118A      0.787854   119A      0.795944   120A      0.812006  
     121A      0.820087   122A      0.824756   123A      0.830937  
     124A      0.842585   125A      0.848613   126A      0.864553  
     127A      0.886711   128A      0.915015   129A      0.930115  
     130A      0.964055   131A      0.971359   132A      0.977168  
     133A      1.009162   134A      1.030165   135A      1.091100  
     136A      1.105820   137A      1.115671   138A      1.172177  
     139A      1.207826   140A      1.252415   141A      1.275830  
     142A      1.293877   143A      1.307336   144A      1.363086  
     145A      1.384215   146A      1.403394   147A      1.420487  
     148A      1.447482   149A      1.489896   150A      1.544629  
     151A      1.600199   152A      1.609982   153A      1.642079  
     154A      1.644630   155A      1.674538   156A      1.687624  
     157A      1.699899   158A      1.716888   159A      1.753529  
     160A      1.758879   161A      1.789630   162A      1.791567  
     163A      1.814136   164A      1.837485   165A      1.859174  
     166A      1.868162   167A      1.877861   168A      1.886078  
     169A      1.922167   170A      1.940288   171A      1.981903  
     172A      2.013851   173A      2.091704   174A      2.104752  
     175A      2.135419   176A      2.166789   177A      2.188369  
     178A      2.342390   179A      2.403247   180A      2.439101  
     181A      2.473806   182A      2.562056   183A      2.569997  
     184A      2.587489   185A      2.593505   186A      2.603292  
     187A      2.638150   188A      2.645289   189A      2.674630  
     190A      2.688441   191A      2.704754   192A      2.727776  
     193A      2.735387   194A      2.779275   195A      2.792255  
     196A      2.811744   197A      2.844352   198A      2.853111  
     199A      2.897908   200A      3.008016   201A      3.017811  
     202A      3.054456   203A      3.113505   204A      3.153944  
     205A      3.211577   206A      3.251663   207A      3.277778  
     208A      3.294092   209A      3.336527   210A      3.381464  
     211A      3.401890   212A      3.412231   213A      3.424461  
     214A      3.452779   215A      3.495423   216A      3.507339  
     217A      3.602399   218A      3.663623   219A      3.853876  
     220A      3.944706   221A      3.959172   222A      3.979869  
     223A      4.128821   224A      4.260985   225A      4.296121  
     226A      4.729482   227A      4.850894   228A      4.967446  
     229A      5.190593   230A      5.331243   231A      5.862698  
     232A     23.651830   233A     23.661283   234A     23.781064  
     235A     23.825182   236A     23.862347   237A     23.940503  
     238A     35.570832   239A     35.656557   240A     50.134779  

    Final Occupation by Irrep:
              A 
    DOCC [    36 ]

  @DF-RKS Final Energy:  -421.76731912909253

   => Energetics <=

    Nuclear Repulsion Energy =            482.9106976638084916
    One-Electron Energy =               -1529.0777950360245541
    Two-Electron Energy =                 665.7225889534846601
    DFT Exchange-Correlation Energy =     -41.3078737711306303
    Empirical Dispersion Energy =          -0.0149369392303928
    VV10 Nonlocal Energy =                  0.0000000000000000
    Total Energy =                       -421.7673191290925274

Computation Completed


Properties will be evaluated at   0.000000,   0.000000,   0.000000 [a0]

Properties computed using the SCF density matrix

  Nuclear Dipole Moment: [e a0]
     X:     8.4666      Y:    -2.2191      Z:     5.8667

  Electronic Dipole Moment: [e a0]
     X:    -9.4251      Y:     1.9035      Z:    -4.9526

  Dipole Moment: [e a0]
     X:    -0.9585      Y:    -0.3156      Z:     0.9141     Total:     1.3616

  Dipole Moment: [D]
     X:    -2.4362      Y:    -0.8022      Z:     2.3234     Total:     3.4607


*** tstop() called on node74.bme.utexas.edu at Wed Jun  8 13:33:34 2022
Module time:
	user time   =      99.89 seconds =       1.66 minutes
	system time =       5.02 seconds =       0.08 minutes
	total time  =         54 seconds =       0.90 minutes
Total time:
	user time   =      99.89 seconds =       1.66 minutes
	system time =       5.02 seconds =       0.08 minutes
	total time  =         54 seconds =       0.90 minutes


Properties will be evaluated at   0.000000,   0.000000,   0.000000 [a0]
OEProp: No title given, name of density matrix used for the following properties is 'SCF density'


  Wiberg Bond Indices using Orthogonal Lowdin Orbitals:

  Irrep: 1 Size: 23 x 23

                 1                   2                   3                   4                   5

    1     0.00000000000000     1.16563158009367     0.10664970304285     0.03749449939715     0.10887069216759
    2     1.16563158009367     0.00000000000000     1.22020708652774     0.10238550985021     1.16738694400729
    3     0.10664970304285     1.22020708652774     0.00000000000000     1.02855325937568     0.11679497827340
    4     0.03749449939715     0.10238550985021     1.02855325937568     0.00000000000000     0.02258338437592
    5     0.10887069216759     1.16738694400729     0.11679497827340     0.02258338437592     0.00000000000000
    6     0.00951278304127     0.04219943591476     0.82810861897032     0.04494294707263     0.02005812721122
    7     0.01108919678265     0.04895170282861     0.82208852934014     0.04883618002741     0.01004659471611
    8     0.00532810076966     0.01722147603185     0.13122825081826     1.46582931696176     0.00317575136888
    9     0.06527803152632     0.03375670886020     0.14458260730163     2.21656265852099     0.00929905502981
   10     1.18708917307845     0.11190096298156     0.02052054159920     0.00439997927268     0.04137762466973
   11     0.84318813283710     0.04527433898172     0.01679978013873     0.00807077180333     0.01070795924784
   12     0.83355178200891     0.04404278644163     0.01032335653731     0.00644319832630     0.01622269315498
   13     0.02211525732603     0.12413748376883     0.02427236925667     0.00412325708819     1.19236812385115
   14     0.02291772062602     0.04126112837862     0.00943643694857     0.00158840730805     0.84114982573421
   15     0.00882193534878     0.04076483053015     0.02537722553110     0.00586015383715     0.84836147034269
   16     0.04189041735710     0.01535693054136     0.00168829858064     0.00052783082901     0.00448310503746
   17     0.05171965007652     0.01058140213340     0.00129096651961     0.00019851664142     0.00134337858901
   18     0.00095778556524     0.01172032318281     0.00116974980600     0.00034289362244     0.05113397742658
   19     0.00203087683417     0.01505157055326     0.00455735385969     0.00025931693101     0.04205011894997
   20     0.00034354545160     0.00101122756902     0.01342751013327     0.04985415611264     0.00018628788651
   21     0.00052169141081     0.00210264601981     0.01168413058321     0.04819051933921     0.00030434887468
   22     0.04059922978478     0.01028925161212     0.00078466314990     0.00047139396080     0.01082280324873
   23     0.00445226753456     0.01286179953214     0.00155392994385     0.00047561022377     0.04024677407126

                 6                   7                   8                   9                  10

    1     0.00951278304127     0.01108919678265     0.00532810076966     0.06527803152632     1.18708917307845
    2     0.04219943591476     0.04895170282861     0.01722147603185     0.03375670886020     0.11190096298156
    3     0.82810861897032     0.82208852934014     0.13122825081826     0.14458260730163     0.02052054159920
    4     0.04494294707263     0.04883618002741     1.46582931696176     2.21656265852099     0.00439997927268
    5     0.02005812721122     0.01004659471611     0.00317575136888     0.00929905502981     0.04137762466973
    6     0.00000000000000     0.00674583182494     0.01463717741008     0.01146049824977     0.00089735925479
    7     0.00674583182494     0.00000000000000     0.01695486878376     0.01451795824775     0.00116393123619
    8     0.01463717741008     0.01695486878376     0.00000000000000     0.26096210419677     0.00076870203529
    9     0.01146049824977     0.01451795824775     0.26096210419677     0.00000000000000     0.00580608249851
   10     0.00089735925479     0.00116393123619     0.00076870203529     0.00580608249851     0.00000000000000
   11     0.00062098126176     0.00081183076488     0.00057167496570     0.00666121074290     0.03716810642725
   12     0.00004650660164     0.00026118721758     0.00039133072363     0.01738758229182     0.03922266977420
   13     0.00387033787542     0.00066748998271     0.00057245192178     0.00079654235285     0.03280120385173
   14     0.00020064055584     0.00035175975457     0.00010140841475     0.00052137675788     0.01107570608802
   15     0.00311181570182     0.00044895106216     0.00037497649258     0.00052622868889     0.00151116652081
   16     0.00003285880425     0.00008151728889     0.00005417027771     0.00074421100761     0.89822216639668
   17     0.00027365154289     0.00001611789800     0.00004965640780     0.00021747964949     0.90891011882058
   18     0.00007811972086     0.00008448939259     0.00005675127458     0.00003603751390     0.00077219344722
   19     0.00010378011037     0.00008346334687     0.00005063154732     0.00008223993775     0.00135595270448
   20     0.00145887280318     0.00030175987736     0.85416199827969     0.01360800360984     0.00007491864087
   21     0.00034396248636     0.00010234556893     0.84864753319436     0.01665392037455     0.00014615358462
   22     0.00022709392159     0.00006433223764     0.00007644101003     0.00033548637622     0.89518892167419
   23     0.00001120644860     0.00013119605442     0.00007615722035     0.00007690234374     0.01225196464077

                11                  12                  13                  14                  15

    1     0.84318813283710     0.83355178200891     0.02211525732603     0.02291772062602     0.00882193534878
    2     0.04527433898172     0.04404278644163     0.12413748376883     0.04126112837862     0.04076483053015
    3     0.01679978013873     0.01032335653731     0.02427236925667     0.00943643694857     0.02537722553110
    4     0.00807077180333     0.00644319832630     0.00412325708819     0.00158840730805     0.00586015383715
    5     0.01070795924784     0.01622269315498     1.19236812385115     0.84114982573421     0.84836147034269
    6     0.00062098126176     0.00004650660164     0.00387033787542     0.00020064055584     0.00311181570182
    7     0.00081183076488     0.00026118721758     0.00066748998271     0.00035175975457     0.00044895106216
    8     0.00057167496570     0.00039133072363     0.00057245192178     0.00010140841475     0.00037497649258
    9     0.00666121074290     0.01738758229182     0.00079654235285     0.00052137675788     0.00052622868889
   10     0.03716810642725     0.03922266977420     0.03280120385173     0.01107570608802     0.00151116652081
   11     0.00000000000000     0.00641350953512     0.00077320750577     0.00046364336463     0.00021139364456
   12     0.00641350953512     0.00000000000000     0.00262371609662     0.00145423059193     0.00010385566440
   13     0.00077320750577     0.00262371609662     0.00000000000000     0.03741439537517     0.03808074793999
   14     0.00046364336463     0.00145423059193     0.03741439537517     0.00000000000000     0.00790430541643
   15     0.00021139364456     0.00010385566440     0.03808074793999     0.00790430541643     0.00000000000000
   16     0.00329065249934     0.00834231012734     0.00523826777187     0.00013609628091     0.00010350087165
   17     0.00374223699407     0.00239807552722     0.00094086636442     0.00010419042159     0.00006115306407
   18     0.00011794848536     0.00014143123364     0.91060572270595     0.00269663469721     0.00282371775693
   19     0.00008837738059     0.00019920605047     0.90232438921681     0.00883935688624     0.00452807330623
   20     0.00002333865812     0.00003976669950     0.00005309393361     0.00001810070601     0.00001642415906
   21     0.00001577430609     0.00013829264053     0.00011377065761     0.00000349914998     0.00004870540937
   22     0.00983405479982     0.00513500126254     0.00867157419754     0.00117481874448     0.00008958970961
   23     0.00006389950152     0.00006601248905     0.89669711959901     0.00477018319478     0.00898923936225

                16                  17                  18                  19                  20

    1     0.04189041735710     0.05171965007652     0.00095778556524     0.00203087683417     0.00034354545160
    2     0.01535693054136     0.01058140213340     0.01172032318281     0.01505157055326     0.00101122756902
    3     0.00168829858064     0.00129096651961     0.00116974980600     0.00455735385969     0.01342751013327
    4     0.00052783082901     0.00019851664142     0.00034289362244     0.00025931693101     0.04985415611264
    5     0.00448310503746     0.00134337858901     0.05113397742658     0.04205011894997     0.00018628788651
    6     0.00003285880425     0.00027365154289     0.00007811972086     0.00010378011037     0.00145887280318
    7     0.00008151728889     0.00001611789800     0.00008448939259     0.00008346334687     0.00030175987736
    8     0.00005417027771     0.00004965640780     0.00005675127458     0.00005063154732     0.85416199827969
    9     0.00074421100761     0.00021747964949     0.00003603751390     0.00008223993775     0.01360800360984
   10     0.89822216639668     0.90891011882058     0.00077219344722     0.00135595270448     0.00007491864087
   11     0.00329065249934     0.00374223699407     0.00011794848536     0.00008837738059     0.00002333865812
   12     0.00834231012734     0.00239807552722     0.00014143123364     0.00019920605047     0.00003976669950
   13     0.00523826777187     0.00094086636442     0.91060572270595     0.90232438921681     0.00005309393361
   14     0.00013609628091     0.00010419042159     0.00269663469721     0.00883935688624     0.00001810070601
   15     0.00010350087165     0.00006115306407     0.00282371775693     0.00452807330623     0.00001642415906
   16     0.00000000000000     0.00988093208296     0.00008442602123     0.00010623223900     0.00002399874324
   17     0.00988093208296     0.00000000000000     0.00003408321631     0.00000735316853     0.00001516764440
   18     0.00008442602123     0.00003408321631     0.00000000000000     0.00929997392465     0.00000743747612
   19     0.00010623223900     0.00000735316853     0.00929997392465     0.00000000000000     0.00001034600867
   20     0.00002399874324     0.00001516764440     0.00000743747612     0.00001034600867     0.00000000000000
   21     0.00002118124190     0.00002431641427     0.00002923428135     0.00000482772790     0.01233730375786
   22     0.00756289826524     0.00945703693146     0.00015525249427     0.00008460229776     0.00000284459206
   23     0.00081649373959     0.00035133888223     0.00967179160309     0.00811219431610     0.00000340680915

                21                  22                  23

    1     0.00052169141081     0.04059922978478     0.00445226753456
    2     0.00210264601981     0.01028925161212     0.01286179953214
    3     0.01168413058321     0.00078466314990     0.00155392994385
    4     0.04819051933921     0.00047139396080     0.00047561022377
    5     0.00030434887468     0.01082280324873     0.04024677407126
    6     0.00034396248636     0.00022709392159     0.00001120644860
    7     0.00010234556893     0.00006433223764     0.00013119605442
    8     0.84864753319436     0.00007644101003     0.00007615722035
    9     0.01665392037455     0.00033548637622     0.00007690234374
   10     0.00014615358462     0.89518892167419     0.01225196464077
   11     0.00001577430609     0.00983405479982     0.00006389950152
   12     0.00013829264053     0.00513500126254     0.00006601248905
   13     0.00011377065761     0.00867157419754     0.89669711959901
   14     0.00000349914998     0.00117481874448     0.00477018319478
   15     0.00004870540937     0.00008958970961     0.00898923936225
   16     0.00002118124190     0.00756289826524     0.00081649373959
   17     0.00002431641427     0.00945703693146     0.00035133888223
   18     0.00002923428135     0.00015525249427     0.00967179160309
   19     0.00000482772790     0.00008460229776     0.00811219431610
   20     0.01233730375786     0.00000284459206     0.00000340680915
   21     0.00000000000000     0.00000344339765     0.00000745520527
   22     0.00000344339765     0.00000000000000     0.00156211002436
   23     0.00000745520527     0.00156211002436     0.00000000000000



  Atomic Valences: 

 #  #
 Irrep: 1
      1:    4.570054052061232
      2:    4.284097126340749
      3:    4.541099346237795
      4:    5.097993760877745
      5:    4.558974018235006
      6:    0.988942606784346
      7:    0.983801234234132
      8:    3.621290930106598
      9:    2.819872926079181
     10:    4.212625599197819
     11:    0.994912823846213
     12:    0.994948500996355
     13:    4.209261388639735
     14:    0.993583865395890
     15:    0.998119460360688
     16:    0.998688496004991
     17:    1.001617688990247
     18:    1.002019974848308
     19:    0.999230237297837
     20:    0.946979509551747
     21:    0.941445055626302
     22:    1.002592843692793
     23:    1.003249052739871


    Psi4 stopped on: Wednesday, 08 June 2022 01:33PM
    Psi4 wall time for execution: 0:00:53.90

*** Psi4 exiting successfully. Buy a developer a beer!
