
    -----------------------------------------------------------------------
          Psi4: An Open-Source Ab Initio Electronic Structure Package
                               Psi4 1.5 release

                         Git: Rev {HEAD} e9f4d6d 


    D. G. A. Smith, L. A. Burns, A. C. Simmonett, R. M. Parrish,
    M. C. Schieber, R. Galvelis, P. Kraus, H. Kruse, R. Di Remigio,
    A. Alenaizan, A. M. James, S. Lehtola, J. P. Misiewicz, M. Scheurer,
    R. A. Shaw, J. B. Schriber, Y. Xie, Z. L. Glick, D. A. Sirianni,
    J. S. O'Brien, J. M. Waldrop, A. Kumar, E. G. Hohenstein,
    B. P. Pritchard, B. R. Brooks, H. F. Schaefer III, A. Yu. Sokolov,
    K. Patkowski, A. E. DePrince III, U. Bozkaya, R. A. King,
    F. A. Evangelista, J. M. Turney, T. D. Crawford, C. D. Sherrill,
    J. Chem. Phys. 152(18) 184108 (2020). https://doi.org/10.1063/5.0006002

                            Additional Code Authors
    E. T. Seidl, C. L. Janssen, E. F. Valeev, M. L. Leininger,
    J. F. Gonthier, R. M. Richard, H. R. McAlexander, M. Saitow, X. Wang,
    P. Verma, M. H. Lechner, and A. Jiang

             Previous Authors, Complete List of Code Contributors,
                       and Citations for Specific Modules
    https://github.com/psi4/psi4/blob/master/codemeta.json
    https://github.com/psi4/psi4/graphs/contributors
    http://psicode.org/psi4manual/master/introduction.html#citing-psifour

    -----------------------------------------------------------------------


    Psi4 started on: Wednesday, 08 June 2022 01:38PM

    Process ID: 1119314
    Host:       node74.bme.utexas.edu
    PSIDATADIR: /home/bdw2292/miniconda3/envs/newamoebamdpoltype/share/psi4
    Memory:     500.0 MiB
    Threads:    1
    
  ==> Input File <==

--------------------------------------------------------------------------
molecule { 
0 1
 C    1.325824   -0.674656   -0.830508
 N    0.518948    0.516095   -0.578813
 C   -0.897497    0.529290   -0.311928
 C   -1.584151   -0.781173    0.047197
 C    1.209968    1.780509   -0.378411
 H   -1.460124    0.967388   -1.158188
 H   -1.110946    1.184869    0.542288
 N   -2.944255   -0.667588    0.146470
 O   -1.011302   -1.837298    0.356022
 C    2.239957   -1.070859    0.331539
 H    0.669075   -1.505057   -1.064648
 H    1.941446   -0.489874   -1.722075
 C    1.266724    2.281054    1.073021
 H    2.226504    1.660731   -0.758586
 H    0.742456    2.559172   -0.999277
 H    1.636974   -1.294248    1.211810
 H    2.820245   -1.960753    0.075059
 H    1.824894    3.218469    1.129892
 H    0.270301    2.471119    1.477118
 H   -3.452985    0.080088   -0.287002
 H   -3.455548   -1.479924    0.441958
 H    2.943355   -0.271463    0.577244
 H    1.754390    1.545977    1.713864
}
memory 8.166666666666666GB
set_num_threads(2)
psi4_io.set_default_path("/scratch/bdw2292/Psi4-4_27_Index_0-farH_in17")
set freeze_core True
E, wfn = energy('wb97x-d/6-311+G*',return_wfn=True)
oeprop(wfn,"WIBERG_LOWDIN_INDICES")
clean()
--------------------------------------------------------------------------

  Memory set to   7.606 GiB by Python driver.
  Threads set to 2 by Python driver.

Scratch directory: /scratch/bdw2292/Psi4-4_27_Index_0-farH_in17/

Scratch directory: /scratch/bdw2292/Psi4-4_27_Index_0-farH_in17/

*** tstart() called on node74.bme.utexas.edu
*** at Wed Jun  8 13:38:13 2022

   => Loading Basis Set <=

    Name: 6-311+G*
    Role: ORBITAL
    Keyword: BASIS
    atoms 1, 3-5, 10, 13    entry C          line   130 file /home/bdw2292/miniconda3/envs/newamoebamdpoltype/share/psi4/basis/6-311pgs.gbs 
    atoms 2, 8              entry N          line   151 file /home/bdw2292/miniconda3/envs/newamoebamdpoltype/share/psi4/basis/6-311pgs.gbs 
    atoms 6-7, 11-12, 14-23 entry H          line    47 file /home/bdw2292/miniconda3/envs/newamoebamdpoltype/share/psi4/basis/6-311pgs.gbs 
    atoms 9                 entry O          line   172 file /home/bdw2292/miniconda3/envs/newamoebamdpoltype/share/psi4/basis/6-311pgs.gbs 

   => WB97X-D: Empirical Dispersion <=

    Chai and Head-Gordon Dispersion Correction
    Chai, J.-D.; Head-Gordon, M. (2010), J. Chem. Phys., 132: 6615-6620

        s6 =       1.000000


         ---------------------------------------------------------
                                   SCF
               by Justin Turney, Rob Parrish, Andy Simmonett
                          and Daniel G. A. Smith
                              RKS Reference
                        2 Threads,   7788 MiB Core
         ---------------------------------------------------------

  ==> Geometry <==

    Molecular point group: c1
    Full point group: C1

    Geometry (in Angstrom), charge = 0, multiplicity = 1:

       Center              X                  Y                   Z               Mass       
    ------------   -----------------  -----------------  -----------------  -----------------
         C            1.325823932924    -0.674656028439    -0.830508128794    12.000000000000
         N            0.518947932924     0.516094971561    -0.578813128794    14.003074004430
         C           -0.897497067076     0.529289971561    -0.311928128794    12.000000000000
         C           -1.584151067076    -0.781173028439     0.047196871206    12.000000000000
         C            1.209967932924     1.780508971561    -0.378411128794    12.000000000000
         H           -1.460124067076     0.967387971561    -1.158188128794     1.007825032230
         H           -1.110946067076     1.184868971561     0.542287871206     1.007825032230
         N           -2.944255067076    -0.667588028439     0.146469871206    14.003074004430
         O           -1.011302067076    -1.837298028439     0.356021871206    15.994914619570
         C            2.239956932924    -1.070859028439     0.331538871206    12.000000000000
         H            0.669074932924    -1.505057028439    -1.064648128794     1.007825032230
         H            1.941445932924    -0.489874028439    -1.722075128794     1.007825032230
         C            1.266723932924     2.281053971561     1.073020871206    12.000000000000
         H            2.226503932924     1.660730971561    -0.758586128794     1.007825032230
         H            0.742455932924     2.559171971561    -0.999277128794     1.007825032230
         H            1.636973932924    -1.294248028439     1.211809871206     1.007825032230
         H            2.820244932924    -1.960753028439     0.075058871206     1.007825032230
         H            1.824893932924     3.218468971561     1.129891871206     1.007825032230
         H            0.270300932924     2.471118971561     1.477117871206     1.007825032230
         H           -3.452985067076     0.080087971561    -0.287002128794     1.007825032230
         H           -3.455548067076    -1.479924028439     0.441957871206     1.007825032230
         H            2.943354932924    -0.271463028439     0.577243871206     1.007825032230
         H            1.754389932924     1.545976971561     1.713863871206     1.007825032230

  Running in c1 symmetry.

  Rotational constants: A =      0.07276  B =      0.03633  C =      0.02814 [cm^-1]
  Rotational constants: A =   2181.32016  B =   1089.21003  C =    843.59683 [MHz]
  Nuclear repulsion =  487.272847209726024

  Charge       = 0
  Multiplicity = 1
  Electrons    = 72
  Nalpha       = 36
  Nbeta        = 36

  ==> Algorithm <==

  SCF Algorithm Type is DF.
  DIIS enabled.
  MOM disabled.
  Fractional occupation disabled.
  Guess Type is SAD.
  Energy threshold   = 1.00e-06
  Density threshold  = 1.00e-06
  Integral threshold = 1.00e-12

  ==> Primary Basis <==

  Basis Set: 6-311+G*
    Blend: 6-311+G*
    Number of shells: 132
    Number of basis functions: 240
    Number of Cartesian functions: 249
    Spherical Harmonics?: true
    Max angular momentum: 2

  ==> DFT Potential <==

   => LibXC <=

    Version 5.1.5
    S. Lehtola, C. Steigemann, M. J. Oliveira, and M. A. Marques, SoftwareX 7, 1 (2018) (10.1016/j.softx.2017.11.002)

   => Composite Functional: WB97X-D <= 

    wB97X-D Hyb-GGA Exchange-Correlation Functional

    J.-D. Chai and M. Head-Gordon, Phys. Chem. Chem. Phys. 10, 6615 (2008) (10.1039/B810189B)

    Deriv               =              1
    GGA                 =           TRUE
    Meta                =          FALSE

    Exchange Hybrid     =           TRUE
    MP2 Hybrid          =          FALSE

   => Exchange-Correlation Functionals <=

    1.0000   wB97X-D range-separated functional

   => Exact (HF) Exchange <=

    0.7780            HF,LR [omega = 0.2000]
    0.2220               HF 

   => LibXC Density Thresholds  <==

    XC_HYB_GGA_XC_WB97X_D:  1.00E-14 

   => Molecular Quadrature <=

    Radial Scheme          =       TREUTLER
    Pruning Scheme         =           NONE
    Nuclear Scheme         =       TREUTLER

    BS radius alpha        =              1
    Pruning alpha          =              1
    Radial Points          =             75
    Spherical Points       =            302
    Total Points           =         482983
    Total Blocks           =           3498
    Max Points             =            256
    Max Functions          =            222
    Weights Tolerance      =       1.00E-15

   => Loading Basis Set <=

    Name: (6-311+G* AUX)
    Role: JKFIT
    Keyword: DF_BASIS_SCF
    atoms 1, 3-5, 10, 13    entry C          line   200 file /home/bdw2292/miniconda3/envs/newamoebamdpoltype/share/psi4/basis/heavy-aug-cc-pvtz-jkfit.gbs 
    atoms 2, 8              entry N          line   262 file /home/bdw2292/miniconda3/envs/newamoebamdpoltype/share/psi4/basis/heavy-aug-cc-pvtz-jkfit.gbs 
    atoms 6-7, 11-12, 14-23 entry H          line   116 file /home/bdw2292/miniconda3/envs/newamoebamdpoltype/share/psi4/basis/heavy-aug-cc-pvtz-jkfit.gbs 
    atoms 9                 entry O          line   324 file /home/bdw2292/miniconda3/envs/newamoebamdpoltype/share/psi4/basis/heavy-aug-cc-pvtz-jkfit.gbs 

  ==> Integral Setup <==

  DFHelper Memory: AOs need 1.661 GiB; user supplied 3.383 GiB. Using in-core AOs.

  ==> MemDFJK: Density-Fitted J/K Matrices <==

    J tasked:                   Yes
    K tasked:                   Yes
    wK tasked:                  Yes
    Omega:                2.000E-01
    OpenMP threads:               2
    Memory [MiB]:              3464
    Algorithm:                 Core
    Schwarz Cutoff:           1E-12
    Mask sparsity (%):       6.3819
    Fitting Condition:        1E-10

   => Auxiliary Basis Set <=

  Basis Set: (6-311+G* AUX)
    Blend: HEAVY-AUG-CC-PVTZ-JKFIT
    Number of shells: 410
    Number of basis functions: 1356
    Number of Cartesian functions: 1669
    Spherical Harmonics?: true
    Max angular momentum: 4

  Cached 100.0% of DFT collocation blocks in 2.321 [GiB].

  Minimum eigenvalue in the overlap matrix is 2.1120055288E-05.
  Reciprocal condition number of the overlap matrix is 1.5407086793E-06.
    Using symmetric orthogonalization.

  ==> Pre-Iterations <==

  SCF Guess: Superposition of Atomic Densities via on-the-fly atomic UHF (no occupation information).

   -------------------------
    Irrep   Nso     Nmo    
   -------------------------
     A        240     240 
   -------------------------
    Total     240     240
   -------------------------

  ==> Iterations <==

                           Total Energy        Delta E     RMS |[F,P]|

   @DF-RKS iter SAD:  -421.00168718104220   -4.21002e+02   0.00000e+00 
   @DF-RKS iter   1:  -421.14670570383629   -1.45019e-01   4.74857e-03 DIIS
   @DF-RKS iter   2:  -421.26917835817375   -1.22473e-01   4.50912e-03 DIIS
   @DF-RKS iter   3:  -421.74324859822315   -4.74070e-01   8.68158e-04 DIIS
   @DF-RKS iter   4:  -421.75793438655325   -1.46858e-02   2.57534e-04 DIIS
   @DF-RKS iter   5:  -421.75940025542133   -1.46587e-03   8.22148e-05 DIIS
   @DF-RKS iter   6:  -421.75956108295628   -1.60828e-04   2.37725e-05 DIIS
   @DF-RKS iter   7:  -421.75957676380796   -1.56809e-05   5.42151e-06 DIIS
   @DF-RKS iter   8:  -421.75957804337764   -1.27957e-06   2.07323e-06 DIIS
   @DF-RKS iter   9:  -421.75957826010199   -2.16724e-07   8.75513e-07 DIIS
  Energy and wave function converged.


  ==> Post-Iterations <==

   Electrons on quadrature grid:
      Ntotal   =   72.0000151089 ; deviation = 1.511e-05 

    Orbital Energies [Eh]
    ---------------------

    Doubly Occupied:                                                      

       1A    -19.218294     2A    -14.461314     3A    -14.412104  
       4A    -10.402789     5A    -10.327371     6A    -10.305612  
       7A    -10.291092     8A    -10.266897     9A    -10.250434  
      10A     -1.139521    11A     -1.018162    12A     -1.014354  
      13A     -0.855244    14A     -0.852527    15A     -0.791377  
      16A     -0.717215    17A     -0.704320    18A     -0.662455  
      19A     -0.626905    20A     -0.583918    21A     -0.573322  
      22A     -0.558093    23A     -0.531687    24A     -0.512808  
      25A     -0.503949    26A     -0.488058    27A     -0.480396  
      28A     -0.462615    29A     -0.454699    30A     -0.449098  
      31A     -0.432711    32A     -0.417574    33A     -0.410892  
      34A     -0.362392    35A     -0.343345    36A     -0.269368  

    Virtual:                                                              

      37A      0.051881    38A      0.071076    39A      0.073387  
      40A      0.082892    41A      0.083115    42A      0.096551  
      43A      0.099376    44A      0.111670    45A      0.114398  
      46A      0.117846    47A      0.135244    48A      0.136846  
      49A      0.143951    50A      0.147596    51A      0.152939  
      52A      0.160446    53A      0.163939    54A      0.166174  
      55A      0.179760    56A      0.180557    57A      0.192145  
      58A      0.203529    59A      0.206538    60A      0.210560  
      61A      0.216792    62A      0.226232    63A      0.234000  
      64A      0.240974    65A      0.253096    66A      0.257864  
      67A      0.263273    68A      0.269215    69A      0.276775  
      70A      0.278727    71A      0.288696    72A      0.294507  
      73A      0.297941    74A      0.303606    75A      0.311587  
      76A      0.321105    77A      0.329047    78A      0.333160  
      79A      0.343748    80A      0.347679    81A      0.355736  
      82A      0.359225    83A      0.369197    84A      0.377531  
      85A      0.384092    86A      0.392526    87A      0.399233  
      88A      0.407959    89A      0.416468    90A      0.427586  
      91A      0.444271    92A      0.445143    93A      0.451832  
      94A      0.477083    95A      0.491577    96A      0.513304  
      97A      0.545089    98A      0.550165    99A      0.575700  
     100A      0.586381   101A      0.595024   102A      0.608497  
     103A      0.617999   104A      0.621585   105A      0.639586  
     106A      0.654263   107A      0.683891   108A      0.691593  
     109A      0.694890   110A      0.717199   111A      0.728439  
     112A      0.737836   113A      0.754846   114A      0.762648  
     115A      0.766689   116A      0.777034   117A      0.779854  
     118A      0.796301   119A      0.800493   120A      0.802785  
     121A      0.813917   122A      0.828997   123A      0.835314  
     124A      0.847874   125A      0.856059   126A      0.882065  
     127A      0.891886   128A      0.910709   129A      0.914006  
     130A      0.955011   131A      0.991967   132A      1.007741  
     133A      1.039873   134A      1.058750   135A      1.101661  
     136A      1.125644   137A      1.131828   138A      1.159582  
     139A      1.219289   140A      1.245307   141A      1.263960  
     142A      1.295116   143A      1.311525   144A      1.351222  
     145A      1.360200   146A      1.389356   147A      1.400675  
     148A      1.458711   149A      1.500657   150A      1.568648  
     151A      1.580250   152A      1.623011   153A      1.635892  
     154A      1.660109   155A      1.671138   156A      1.687434  
     157A      1.712367   158A      1.721373   159A      1.748660  
     160A      1.761351   161A      1.766091   162A      1.793179  
     163A      1.820925   164A      1.843174   165A      1.866387  
     166A      1.871683   167A      1.889190   168A      1.905568  
     169A      1.953493   170A      1.967500   171A      2.018553  
     172A      2.042744   173A      2.097965   174A      2.112156  
     175A      2.122134   176A      2.157511   177A      2.198147  
     178A      2.353734   179A      2.406786   180A      2.416706  
     181A      2.473853   182A      2.542627   183A      2.579465  
     184A      2.585743   185A      2.626259   186A      2.637278  
     187A      2.648319   188A      2.651762   189A      2.666942  
     190A      2.681005   191A      2.706141   192A      2.711282  
     193A      2.729204   194A      2.779256   195A      2.789126  
     196A      2.812273   197A      2.836435   198A      2.888430  
     199A      2.896450   200A      3.007997   201A      3.015296  
     202A      3.055214   203A      3.084302   204A      3.120730  
     205A      3.208806   206A      3.256788   207A      3.273257  
     208A      3.312720   209A      3.336289   210A      3.376739  
     211A      3.403334   212A      3.414324   213A      3.435358  
     214A      3.457277   215A      3.525400   216A      3.540394  
     217A      3.625224   218A      3.669272   219A      3.856943  
     220A      3.926923   221A      3.953723   222A      4.031015  
     223A      4.129681   224A      4.154097   225A      4.296570  
     226A      4.735143   227A      4.890339   228A      5.010972  
     229A      5.182861   230A      5.333493   231A      5.866706  
     232A     23.657896   233A     23.686036   234A     23.772583  
     235A     23.849584   236A     23.862570   237A     23.931863  
     238A     35.575252   239A     35.663677   240A     50.136533  

    Final Occupation by Irrep:
              A 
    DOCC [    36 ]

  @DF-RKS Final Energy:  -421.75957826010199

   => Energetics <=

    Nuclear Repulsion Energy =            487.2728472097260237
    One-Electron Energy =               -1537.7607809671903851
    Two-Electron Energy =                 670.0597942632091417
    DFT Exchange-Correlation Energy =     -41.3163172557606586
    Empirical Dispersion Energy =          -0.0151215100860160
    VV10 Nonlocal Energy =                  0.0000000000000000
    Total Energy =                       -421.7595782601019323

Computation Completed


Properties will be evaluated at   0.000000,   0.000000,   0.000000 [a0]

Properties computed using the SCF density matrix

  Nuclear Dipole Moment: [e a0]
     X:     6.8926      Y:     6.2600      Z:     1.1087

  Electronic Dipole Moment: [e a0]
     X:    -7.8862      Y:    -5.2840      Z:    -1.4102

  Dipole Moment: [e a0]
     X:    -0.9936      Y:     0.9760      Z:    -0.3015     Total:     1.4250

  Dipole Moment: [D]
     X:    -2.5256      Y:     2.4806      Z:    -0.7664     Total:     3.6221


*** tstop() called on node74.bme.utexas.edu at Wed Jun  8 13:39:11 2022
Module time:
	user time   =     102.87 seconds =       1.71 minutes
	system time =       9.25 seconds =       0.15 minutes
	total time  =         58 seconds =       0.97 minutes
Total time:
	user time   =     102.87 seconds =       1.71 minutes
	system time =       9.25 seconds =       0.15 minutes
	total time  =         58 seconds =       0.97 minutes


Properties will be evaluated at   0.000000,   0.000000,   0.000000 [a0]
OEProp: No title given, name of density matrix used for the following properties is 'SCF density'


  Wiberg Bond Indices using Orthogonal Lowdin Orbitals:

  Irrep: 1 Size: 23 x 23

                 1                   2                   3                   4                   5

    1     0.00000000000000     1.17341434983907     0.09565368134609     0.03627074576405     0.11079332420098
    2     1.17341434983907     0.00000000000000     1.19173443762391     0.08249458261061     1.18794385683650
    3     0.09565368134609     1.19173443762391     0.00000000000000     1.03992863134509     0.11686102854001
    4     0.03627074576405     0.08249458261061     1.03992863134509     0.00000000000000     0.01717990809182
    5     0.11079332420098     1.18794385683650     0.11686102854001     0.01717990809182     0.00000000000000
    6     0.00625342869796     0.05855112353906     0.82025547040901     0.04998026278673     0.01091176719922
    7     0.00763346721017     0.04856958370582     0.81110011158986     0.04676009891658     0.01628594302500
    8     0.00441934000592     0.01469455757675     0.13630336376876     1.46538581038627     0.00282023156947
    9     0.06288402493532     0.03033411458593     0.14145768817320     2.20778070311578     0.00334084859929
   10     1.17960394475496     0.11485436530642     0.02084865924366     0.01127554843735     0.03960897478363
   11     0.83416234275215     0.04206929731663     0.01352047792673     0.01123860766555     0.01024438819972
   12     0.84701903926113     0.05301199286503     0.00965099755074     0.00159519811649     0.01600263366682
   13     0.02219656840948     0.10997721707666     0.04519230920731     0.00546588779280     1.17997752025747
   14     0.02066668947743     0.04404456998081     0.01020355378693     0.00144793155581     0.84440495937561
   15     0.00887598424000     0.05243139527540     0.01651549500399     0.00102272628218     0.84919930406116
   16     0.03988192866877     0.01387190074195     0.00375447519589     0.00364830122976     0.00363499419842
   17     0.05195940924413     0.01110234647582     0.00093432627287     0.00030006371411     0.00118371078605
   18     0.00076219756677     0.01063559095584     0.00160999853789     0.00019204780426     0.05105586352436
   19     0.00156481341592     0.01152070479055     0.01310865956945     0.00146303382604     0.04015624221514
   20     0.00042711768961     0.00139771788922     0.01417776162529     0.04927795396115     0.00021891974132
   21     0.00047829202035     0.00143209567552     0.01180661253586     0.04779078684292     0.00052327874389
   22     0.04037188978335     0.01227423131636     0.00133925601902     0.00050057716951     0.01081589291219
   23     0.00428864092423     0.01280189898938     0.00371576892243     0.00034399728828     0.03959431887194

                 6                   7                   8                   9                  10

    1     0.00625342869796     0.00763346721017     0.00441934000592     0.06288402493532     1.17960394475496
    2     0.05855112353906     0.04856958370582     0.01469455757675     0.03033411458593     0.11485436530642
    3     0.82025547040901     0.81110011158986     0.13630336376876     0.14145768817320     0.02084865924366
    4     0.04998026278673     0.04676009891658     1.46538581038627     2.20778070311578     0.01127554843735
    5     0.01091176719922     0.01628594302500     0.00282023156947     0.00334084859929     0.03960897478363
    6     0.00000000000000     0.00587420879254     0.01781579606303     0.01204205632882     0.00187805530607
    7     0.00587420879254     0.00000000000000     0.01726427660993     0.01464682189081     0.00100719764145
    8     0.01781579606303     0.01726427660993     0.00000000000000     0.26198492426181     0.00151824317419
    9     0.01204205632882     0.01464682189081     0.26198492426181     0.00000000000000     0.02596676101792
   10     0.00187805530607     0.00100719764145     0.00151824317419     0.02596676101792     0.00000000000000
   11     0.00003028539342     0.00017499035005     0.00100418252824     0.02344655668591     0.03569932679532
   12     0.00053139113517     0.00038288092915     0.00025547081182     0.00137059912584     0.03979829197224
   13     0.00260032522840     0.01360662641225     0.00081233319583     0.00139279031695     0.02780747265949
   14     0.00017853445762     0.00056606005091     0.00038484568531     0.00033247193453     0.00907962034867
   15     0.00054617076621     0.00241610388644     0.00018082856548     0.00030918800031     0.00146709476176
   16     0.00012127443093     0.00017292722758     0.00022479825273     0.00620204759308     0.89229573516508
   17     0.00035924065822     0.00002231566780     0.00005358542549     0.00031363668946     0.90846579111253
   18     0.00009451648028     0.00052044788234     0.00003420904798     0.00004442935632     0.00050001299846
   19     0.00034649244349     0.00408795683909     0.00024444937255     0.00020620588481     0.00091699394401
   20     0.00211438813831     0.00040155932589     0.85281194477277     0.01364700484446     0.00009561442392
   21     0.00045976243260     0.00017729859860     0.84801716577828     0.01698785475303     0.00013222891732
   22     0.00011801722686     0.00006777631341     0.00004105448207     0.00078726782493     0.89585127019260
   23     0.00002960674345     0.00040712097173     0.00002511976170     0.00014261663653     0.00958674069347

                11                  12                  13                  14                  15

    1     0.83416234275215     0.84701903926113     0.02219656840948     0.02066668947743     0.00887598424000
    2     0.04206929731663     0.05301199286503     0.10997721707666     0.04404456998081     0.05243139527540
    3     0.01352047792673     0.00965099755074     0.04519230920731     0.01020355378693     0.01651549500399
    4     0.01123860766555     0.00159519811649     0.00546588779280     0.00144793155581     0.00102272628218
    5     0.01024438819972     0.01600263366682     1.17997752025747     0.84440495937561     0.84919930406116
    6     0.00003028539342     0.00053139113517     0.00260032522840     0.00017853445762     0.00054617076621
    7     0.00017499035005     0.00038288092915     0.01360662641225     0.00056606005091     0.00241610388644
    8     0.00100418252824     0.00025547081182     0.00081233319583     0.00038484568531     0.00018082856548
    9     0.02344655668591     0.00137059912584     0.00139279031695     0.00033247193453     0.00030918800031
   10     0.03569932679532     0.03979829197224     0.02780747265949     0.00907962034867     0.00146709476176
   11     0.00000000000000     0.00849823132111     0.00097110542987     0.00056415077102     0.00007546665340
   12     0.00849823132111     0.00000000000000     0.00191857640747     0.00173187623112     0.00033985607088
   13     0.00097110542987     0.00191857640747     0.00000000000000     0.03666733450547     0.03868700555739
   14     0.00056415077102     0.00173187623112     0.03666733450547     0.00000000000000     0.00780622317680
   15     0.00007546665340     0.00033985607088     0.03868700555739     0.00780622317680     0.00000000000000
   16     0.00421902876644     0.00841021223963     0.00296586351959     0.00011936612980     0.00014362718121
   17     0.00297717081453     0.00268706013626     0.00061768807127     0.00011955555538     0.00017337054049
   18     0.00019705780720     0.00011422874966     0.91010209651171     0.00308998124943     0.00277265770804
   19     0.00008890209543     0.00012865996586     0.89932226067642     0.00882138028271     0.00471448734247
   20     0.00006265224343     0.00001076182558     0.00005619851984     0.00003176616024     0.00004814075477
   21     0.00007818709169     0.00000445379252     0.00003921623513     0.00003716377200     0.00003385724769
   22     0.00854310390987     0.00484061431988     0.00800010820894     0.00095154389300     0.00004196203800
   23     0.00008844170426     0.00002701739824     0.89626236115717     0.00427646034195     0.00845112256709

                16                  17                  18                  19                  20

    1     0.03988192866877     0.05195940924413     0.00076219756677     0.00156481341592     0.00042711768961
    2     0.01387190074195     0.01110234647582     0.01063559095584     0.01152070479055     0.00139771788922
    3     0.00375447519589     0.00093432627287     0.00160999853789     0.01310865956945     0.01417776162529
    4     0.00364830122976     0.00030006371411     0.00019204780426     0.00146303382604     0.04927795396115
    5     0.00363499419842     0.00118371078605     0.05105586352436     0.04015624221514     0.00021891974132
    6     0.00012127443093     0.00035924065822     0.00009451648028     0.00034649244349     0.00211438813831
    7     0.00017292722758     0.00002231566780     0.00052044788234     0.00408795683909     0.00040155932589
    8     0.00022479825273     0.00005358542549     0.00003420904798     0.00024444937255     0.85281194477277
    9     0.00620204759308     0.00031363668946     0.00004442935632     0.00020620588481     0.01364700484446
   10     0.89229573516508     0.90846579111253     0.00050001299846     0.00091699394401     0.00009561442392
   11     0.00421902876644     0.00297717081453     0.00019705780720     0.00008890209543     0.00006265224343
   12     0.00841021223963     0.00268706013626     0.00011422874966     0.00012865996586     0.00001076182558
   13     0.00296586351959     0.00061768807127     0.91010209651171     0.89932226067642     0.00005619851984
   14     0.00011936612980     0.00011955555538     0.00308998124943     0.00882138028271     0.00003176616024
   15     0.00014362718121     0.00017337054049     0.00277265770804     0.00471448734247     0.00004814075477
   16     0.00000000000000     0.01001831560118     0.00004719817419     0.00006439134199     0.00001133130419
   17     0.01001831560118     0.00000000000000     0.00002240719835     0.00000741058361     0.00000672995153
   18     0.00004719817419     0.00002240719835     0.00000000000000     0.00933441943547     0.00001374007385
   19     0.00006439134199     0.00000741058361     0.00933441943547     0.00000000000000     0.00000422756484
   20     0.00001133130419     0.00000672995153     0.00001374007385     0.00000422756484     0.00000000000000
   21     0.00001233420873     0.00000270518972     0.00001002540139     0.00000069427167     0.01242427516227
   22     0.00794477899548     0.00941105081196     0.00013580433357     0.00008558845894     0.00000202889647
   23     0.00036615402697     0.00023133453672     0.00979332437996     0.00817757873507     0.00000815535859

                21                  22                  23

    1     0.00047829202035     0.04037188978335     0.00428864092423
    2     0.00143209567552     0.01227423131636     0.01280189898938
    3     0.01180661253586     0.00133925601902     0.00371576892243
    4     0.04779078684292     0.00050057716951     0.00034399728828
    5     0.00052327874389     0.01081589291219     0.03959431887194
    6     0.00045976243260     0.00011801722686     0.00002960674345
    7     0.00017729859860     0.00006777631341     0.00040712097173
    8     0.84801716577828     0.00004105448207     0.00002511976170
    9     0.01698785475303     0.00078726782493     0.00014261663653
   10     0.00013222891732     0.89585127019260     0.00958674069347
   11     0.00007818709169     0.00854310390987     0.00008844170426
   12     0.00000445379252     0.00484061431988     0.00002701739824
   13     0.00003921623513     0.00800010820894     0.89626236115717
   14     0.00003716377200     0.00095154389300     0.00427646034195
   15     0.00003385724769     0.00004196203800     0.00845112256709
   16     0.00001233420873     0.00794477899548     0.00036615402697
   17     0.00000270518972     0.00941105081196     0.00023133453672
   18     0.00001002540139     0.00013580433357     0.00979332437996
   19     0.00000069427167     0.00008558845894     0.00817757873507
   20     0.01242427516227     0.00000202889647     0.00000815535859
   21     0.00000000000000     0.00000104528932     0.00000293675754
   22     0.00000104528932     0.00000000000000     0.00118341590669
   23     0.00000293675754     0.00118341590669     0.00000000000000



  Atomic Valences: 

 #  #
 Irrep: 1
      1:    4.549581220207821
      2:    4.279161930973245
      3:    4.519672764193989
      4:    5.081343404703152
      5:    4.552757909400037
      6:    0.991092174657405
      7:    0.992145773837414
      8:    3.626296531096393
      9:    2.825620612555034
     10:    4.218257943650524
     11:    0.997953954221976
     12:    0.998330043892640
     13:    4.204638865356928
     14:    0.995526038722528
     15:    0.996252067681164
     16:    0.998130984193571
     17:    1.000969225037495
     18:    1.001082255177333
     19:    1.004365553055547
     20:    0.947249990227561
     21:    0.940452270718034
     22:    1.003308278302415
     23:    0.999804132673382


    Psi4 stopped on: Wednesday, 08 June 2022 01:39PM
    Psi4 wall time for execution: 0:00:58.10

*** Psi4 exiting successfully. Buy a developer a beer!
