
    -----------------------------------------------------------------------
          Psi4: An Open-Source Ab Initio Electronic Structure Package
                               Psi4 1.5 release

                         Git: Rev {HEAD} e9f4d6d 


    D. G. A. Smith, L. A. Burns, A. C. Simmonett, R. M. Parrish,
    M. C. Schieber, R. Galvelis, P. Kraus, H. Kruse, R. Di Remigio,
    A. Alenaizan, A. M. James, S. Lehtola, J. P. Misiewicz, M. Scheurer,
    R. A. Shaw, J. B. Schriber, Y. Xie, Z. L. Glick, D. A. Sirianni,
    J. S. O'Brien, J. M. Waldrop, A. Kumar, E. G. Hohenstein,
    B. P. Pritchard, B. R. Brooks, H. F. Schaefer III, A. Yu. Sokolov,
    K. Patkowski, A. E. DePrince III, U. Bozkaya, R. A. King,
    F. A. Evangelista, J. M. Turney, T. D. Crawford, C. D. Sherrill,
    J. Chem. Phys. 152(18) 184108 (2020). https://doi.org/10.1063/5.0006002

                            Additional Code Authors
    E. T. Seidl, C. L. Janssen, E. F. Valeev, M. L. Leininger,
    J. F. Gonthier, R. M. Richard, H. R. McAlexander, M. Saitow, X. Wang,
    P. Verma, M. H. Lechner, and A. Jiang

             Previous Authors, Complete List of Code Contributors,
                       and Citations for Specific Modules
    https://github.com/psi4/psi4/blob/master/codemeta.json
    https://github.com/psi4/psi4/graphs/contributors
    http://psicode.org/psi4manual/master/introduction.html#citing-psifour

    -----------------------------------------------------------------------


    Psi4 started on: Wednesday, 08 June 2022 12:38PM

    Process ID: 1108683
    Host:       node74.bme.utexas.edu
    PSIDATADIR: /home/bdw2292/miniconda3/envs/newamoebamdpoltype/share/psi4
    Memory:     500.0 MiB
    Threads:    1
    
  ==> Input File <==

--------------------------------------------------------------------------
molecule { 
0 1
 C    1.416619   -0.532613   -1.220915
 N    0.543899    0.141355   -0.219529
 C   -0.849264    0.278206   -0.717797
 C   -1.795261   -0.752987   -0.063264
 C    1.087409    1.423837    0.326416
 H   -0.901576    0.174138   -1.816063
 H   -1.274157    1.276264   -0.518004
 N   -3.062331   -0.749894   -0.588819
 O   -1.476729   -1.492976    0.866747
 C    2.765021   -0.992970   -0.631831
 H    0.878839   -1.420755   -1.595669
 H    1.567712    0.134644   -2.087332
 C    1.615772    1.237510    1.759047
 H    1.879109    1.810197   -0.336926
 H    0.317762    2.212386    0.327615
 H    2.609272   -1.609842    0.255395
 H    3.317908   -1.589156   -1.359737
 H    1.988891    2.180898    2.160772
 H    0.824577    0.878258    2.419951
 H   -3.224823   -0.367071   -1.504494
 H   -3.702205   -1.443151   -0.238416
 H    3.393761   -0.145266   -0.357634
 H    2.431202    0.514296    1.792155
}
set optking { 
  frozen_dihedral = ("
    1 2 3 4
    10 1 2 5
    13 5 2 1
    2 3 4 8
    3 4 8 20
  ")
}
set {
  geom_maxiter 400
  g_convergence GAU_LOOSE
  dynamic_level 1
}
memory 8.166666666666666GB
set_num_threads(2)
psi4_io.set_default_path("/scratch/bdw2292/Psi4-4_27_Index_0-farH_in17")
for _ in range(1):
  try:
    set opt_coordinates both
    optimize('wb97x-d/6-311G')
    break
  except OptimizationConvergenceError:
    break
  else:
    try:
      set opt_coordinates cartesian
      optimize('wb97x-d/6-311G')
      break
    except OptimizationConvergenceError:
      pass
clean()
--------------------------------------------------------------------------

  Memory set to   7.606 GiB by Python driver.
  Threads set to 2 by Python driver.

Scratch directory: /scratch/bdw2292/Psi4-4_27_Index_0-farH_in17/

Scratch directory: /scratch/bdw2292/Psi4-4_27_Index_0-farH_in17/
gradient() will perform analytic gradient computation.

*** tstart() called on node74.bme.utexas.edu
*** at Wed Jun  8 12:38:49 2022

   => Loading Basis Set <=

    Name: 6-311G
    Role: ORBITAL
    Keyword: BASIS
    atoms 1, 3-5, 10, 13    entry C          line    92 file /home/bdw2292/miniconda3/envs/newamoebamdpoltype/share/psi4/basis/6-311g.gbs 
    atoms 2, 8              entry N          line   109 file /home/bdw2292/miniconda3/envs/newamoebamdpoltype/share/psi4/basis/6-311g.gbs 
    atoms 6-7, 11-12, 14-23 entry H          line    21 file /home/bdw2292/miniconda3/envs/newamoebamdpoltype/share/psi4/basis/6-311g.gbs 
    atoms 9                 entry O          line   126 file /home/bdw2292/miniconda3/envs/newamoebamdpoltype/share/psi4/basis/6-311g.gbs 

   => WB97X-D: Empirical Dispersion <=

    Chai and Head-Gordon Dispersion Correction
    Chai, J.-D.; Head-Gordon, M. (2010), J. Chem. Phys., 132: 6615-6620

        s6 =       1.000000


         ---------------------------------------------------------
                                   SCF
               by Justin Turney, Rob Parrish, Andy Simmonett
                          and Daniel G. A. Smith
                              RKS Reference
                        2 Threads,   7788 MiB Core
         ---------------------------------------------------------

  ==> Geometry <==

    Molecular point group: c1
    Full point group: C1

    Geometry (in Angstrom), charge = 0, multiplicity = 1:

       Center              X                  Y                   Z               Mass       
    ------------   -----------------  -----------------  -----------------  -----------------
         C            1.399841260582    -0.364729589096    -1.167754889458    12.000000000000
         N            0.527121260582     0.309238410904    -0.166368889458    14.003074004430
         C           -0.866041739418     0.446089410904    -0.664636889458    12.000000000000
         C           -1.812038739418    -0.585103589096    -0.010103889458    12.000000000000
         C            1.070631260582     1.591720410904     0.379576110542    12.000000000000
         H           -0.918353739418     0.342021410904    -1.762902889458     1.007825032230
         H           -1.290934739418     1.444147410904    -0.464843889458     1.007825032230
         N           -3.079108739418    -0.582010589096    -0.535658889458    14.003074004430
         O           -1.493506739418    -1.325092589096     0.919907110542    15.994914619570
         C            2.748243260582    -0.825086589096    -0.578670889458    12.000000000000
         H            0.862061260582    -1.252871589096    -1.542508889458     1.007825032230
         H            1.550934260582     0.302527410904    -2.034171889458     1.007825032230
         C            1.598994260582     1.405393410904     1.812207110542    12.000000000000
         H            1.862331260582     1.978080410904    -0.283765889458     1.007825032230
         H            0.300984260582     2.380269410904     0.380775110542     1.007825032230
         H            2.592494260582    -1.441958589096     0.308555110542     1.007825032230
         H            3.301130260582    -1.421272589096    -1.306576889458     1.007825032230
         H            1.972113260582     2.348781410904     2.213932110542     1.007825032230
         H            0.807799260582     1.046141410904     2.473111110542     1.007825032230
         H           -3.241600739418    -0.199187589096    -1.451333889458     1.007825032230
         H           -3.718982739418    -1.275267589096    -0.185255889458     1.007825032230
         H            3.376983260582     0.022617410904    -0.304473889458     1.007825032230
         H            2.414424260582     0.682179410904     1.845315110542     1.007825032230

  Running in c1 symmetry.

  Rotational constants: A =      0.07643  B =      0.03055  C =      0.02709 [cm^-1]
  Rotational constants: A =   2291.31784  B =    915.84023  C =    812.02983 [MHz]
  Nuclear repulsion =  477.513157260865853

  Charge       = 0
  Multiplicity = 1
  Electrons    = 72
  Nalpha       = 36
  Nbeta        = 36

  ==> Algorithm <==

  SCF Algorithm Type is DF.
  DIIS enabled.
  MOM disabled.
  Fractional occupation disabled.
  Guess Type is SAD.
  Energy threshold   = 1.00e-08
  Density threshold  = 1.00e-08
  Integral threshold = 1.00e-12

  ==> Primary Basis <==

  Basis Set: 6-311G
    Blend: 6-311G
    Number of shells: 105
    Number of basis functions: 159
    Number of Cartesian functions: 159
    Spherical Harmonics?: true
    Max angular momentum: 1

  ==> DFT Potential <==

   => LibXC <=

    Version 5.1.5
    S. Lehtola, C. Steigemann, M. J. Oliveira, and M. A. Marques, SoftwareX 7, 1 (2018) (10.1016/j.softx.2017.11.002)

   => Composite Functional: WB97X-D <= 

    wB97X-D Hyb-GGA Exchange-Correlation Functional

    J.-D. Chai and M. Head-Gordon, Phys. Chem. Chem. Phys. 10, 6615 (2008) (10.1039/B810189B)

    Deriv               =              1
    GGA                 =           TRUE
    Meta                =          FALSE

    Exchange Hybrid     =           TRUE
    MP2 Hybrid          =          FALSE

   => Exchange-Correlation Functionals <=

    1.0000   wB97X-D range-separated functional

   => Exact (HF) Exchange <=

    0.7780            HF,LR [omega = 0.2000]
    0.2220               HF 

   => LibXC Density Thresholds  <==

    XC_HYB_GGA_XC_WB97X_D:  1.00E-14 

   => Molecular Quadrature <=

    Radial Scheme          =       TREUTLER
    Pruning Scheme         =           NONE
    Nuclear Scheme         =       TREUTLER

    BS radius alpha        =              1
    Pruning alpha          =              1
    Radial Points          =             75
    Spherical Points       =            302
    Total Points           =         482361
    Total Blocks           =           3545
    Max Points             =            256
    Max Functions          =            140
    Weights Tolerance      =       1.00E-15

   => Loading Basis Set <=

    Name: (6-311G AUX)
    Role: JKFIT
    Keyword: DF_BASIS_SCF
    atoms 1, 3-5, 10, 13    entry C          line   125 file /home/bdw2292/miniconda3/envs/newamoebamdpoltype/share/psi4/basis/cc-pvtz-jkfit.gbs 
    atoms 2, 8              entry N          line   177 file /home/bdw2292/miniconda3/envs/newamoebamdpoltype/share/psi4/basis/cc-pvtz-jkfit.gbs 
    atoms 6-7, 11-12, 14-23 entry H          line    51 file /home/bdw2292/miniconda3/envs/newamoebamdpoltype/share/psi4/basis/cc-pvtz-jkfit.gbs 
    atoms 9                 entry O          line   229 file /home/bdw2292/miniconda3/envs/newamoebamdpoltype/share/psi4/basis/cc-pvtz-jkfit.gbs 

  ==> Integral Setup <==

  DFHelper Memory: AOs need 0.584 GiB; user supplied 4.307 GiB. Using in-core AOs.

  ==> MemDFJK: Density-Fitted J/K Matrices <==

    J tasked:                   Yes
    K tasked:                   Yes
    wK tasked:                  Yes
    Omega:                2.000E-01
    OpenMP threads:               2
    Memory [MiB]:              4410
    Algorithm:                 Core
    Schwarz Cutoff:           1E-12
    Mask sparsity (%):      10.9727
    Fitting Condition:        1E-10

   => Auxiliary Basis Set <=

  Basis Set: (6-311G AUX)
    Blend: CC-PVTZ-JKFIT
    Number of shells: 365
    Number of basis functions: 1131
    Number of Cartesian functions: 1354
    Spherical Harmonics?: true
    Max angular momentum: 4

  Cached 100.0% of DFT collocation blocks in 1.397 [GiB].

  Minimum eigenvalue in the overlap matrix is 2.6137328287E-03.
  Reciprocal condition number of the overlap matrix is 3.5714870155E-04.
    Using symmetric orthogonalization.

  ==> Pre-Iterations <==

  SCF Guess: Superposition of Atomic Densities via on-the-fly atomic UHF (no occupation information).

   -------------------------
    Irrep   Nso     Nmo    
   -------------------------
     A        159     159 
   -------------------------
    Total     159     159
   -------------------------

  ==> Iterations <==

                           Total Energy        Delta E     RMS |[F,P]|

   @DF-RKS iter SAD:  -420.68972396760091   -4.20690e+02   0.00000e+00 
   @DF-RKS iter   1:  -421.13554872108978   -4.45825e-01   6.49276e-03 DIIS
   @DF-RKS iter   2:  -421.18523912208917   -4.96904e-02   6.62376e-03 DIIS
   @DF-RKS iter   3:  -421.61087747469537   -4.25638e-01   1.49731e-03 DIIS
   @DF-RKS iter   4:  -421.63147933251457   -2.06019e-02   3.15715e-04 DIIS
   @DF-RKS iter   5:  -421.63244426305283   -9.64931e-04   1.15582e-04 DIIS
   @DF-RKS iter   6:  -421.63259158746575   -1.47324e-04   2.52213e-05 DIIS
   @DF-RKS iter   7:  -421.63259997752562   -8.39006e-06   6.77212e-06 DIIS
   @DF-RKS iter   8:  -421.63260064901220   -6.71487e-07   2.49661e-06 DIIS
   @DF-RKS iter   9:  -421.63260076056361   -1.11551e-07   9.92722e-07 DIIS
   @DF-RKS iter  10:  -421.63260077661187   -1.60483e-08   2.50439e-07 DIIS
   @DF-RKS iter  11:  -421.63260077805137   -1.43950e-09   5.99600e-08 DIIS
   @DF-RKS iter  12:  -421.63260077815505   -1.03682e-10   2.39880e-08 DIIS
   @DF-RKS iter  13:  -421.63260077816579   -1.07434e-11   5.56501e-09 DIIS
  Energy and wave function converged.


  ==> Post-Iterations <==

   Electrons on quadrature grid:
      Ntotal   =   71.9998580291 ; deviation = -1.420e-04 

    Orbital Energies [Eh]
    ---------------------

    Doubly Occupied:                                                      

       1A    -19.209287     2A    -14.452756     3A    -14.426672  
       4A    -10.396320     5A    -10.328680     6A    -10.312677  
       7A    -10.309876     8A    -10.269100     9A    -10.258893  
      10A     -1.148294    11A     -1.017052    12A     -1.011074  
      13A     -0.856543    14A     -0.852817    15A     -0.788748  
      16A     -0.723671    17A     -0.688657    18A     -0.664203  
      19A     -0.633461    20A     -0.576629    21A     -0.567495  
      22A     -0.557218    23A     -0.535238    24A     -0.517010  
      25A     -0.497690    26A     -0.486729    27A     -0.470531  
      28A     -0.465829    29A     -0.456644    30A     -0.437461  
      31A     -0.431948    32A     -0.416660    33A     -0.412303  
      34A     -0.350878    35A     -0.329675    36A     -0.284587  

    Virtual:                                                              

      37A      0.090998    38A      0.106800    39A      0.126090  
      40A      0.142272    41A      0.147845    42A      0.158818  
      43A      0.170240    44A      0.180251    45A      0.197034  
      46A      0.201710    47A      0.207771    48A      0.216161  
      49A      0.219959    50A      0.227971    51A      0.235001  
      52A      0.247766    53A      0.278205    54A      0.298209  
      55A      0.300397    56A      0.330621    57A      0.343168  
      58A      0.360777    59A      0.381898    60A      0.399041  
      61A      0.405627    62A      0.422181    63A      0.433298  
      64A      0.443140    65A      0.457145    66A      0.468362  
      67A      0.486453    68A      0.529109    69A      0.530671  
      70A      0.552270    71A      0.557168    72A      0.572995  
      73A      0.581696    74A      0.593170    75A      0.615146  
      76A      0.639560    77A      0.650653    78A      0.657189  
      79A      0.662502    80A      0.671174    81A      0.678819  
      82A      0.689350    83A      0.690269    84A      0.696619  
      85A      0.702326    86A      0.713058    87A      0.718289  
      88A      0.727701    89A      0.728391    90A      0.744700  
      91A      0.766098    92A      0.784473    93A      0.814766  
      94A      0.826090    95A      0.867331    96A      0.892571  
      97A      0.928610    98A      0.981825    99A      0.992521  
     100A      1.031732   101A      1.068073   102A      1.103678  
     103A      1.147342   104A      1.158327   105A      1.217212  
     106A      1.242167   107A      1.352167   108A      1.507737  
     109A      1.716768   110A      2.242934   111A      2.292119  
     112A      2.332549   113A      2.340476   114A      2.353971  
     115A      2.367357   116A      2.373943   117A      2.383526  
     118A      2.392700   119A      2.400787   120A      2.409626  
     121A      2.426792   122A      2.443120   123A      2.477224  
     124A      2.678644   125A      2.838562   126A      2.886431  
     127A      2.909048   128A      2.925017   129A      2.936996  
     130A      2.954749   131A      2.969896   132A      3.002214  
     133A      3.021212   134A      3.030815   135A      3.040333  
     136A      3.128751   137A      3.145980   138A      3.181801  
     139A      3.195319   140A      3.233534   141A      3.298766  
     142A      3.787129   143A      4.007806   144A      4.044337  
     145A      4.141228   146A      4.164914   147A      4.196669  
     148A      4.994337   149A      5.062413   150A      5.084003  
     151A     23.436944   152A     23.481836   153A     23.533562  
     154A     23.631137   155A     23.659599   156A     23.704870  
     157A     35.477194   158A     35.564584   159A     50.051934  

    Final Occupation by Irrep:
              A 
    DOCC [    36 ]

  @DF-RKS Final Energy:  -421.63260077816579

   => Energetics <=

    Nuclear Repulsion Energy =            477.5131572608658530
    One-Electron Energy =               -1518.0542241795719747
    Two-Electron Energy =                 660.1724208671395218
    DFT Exchange-Correlation Energy =     -41.2494631305328028
    Empirical Dispersion Energy =          -0.0144915960665011
    VV10 Nonlocal Energy =                  0.0000000000000000
    Total Energy =                       -421.6326007781658518

Computation Completed


Properties will be evaluated at   0.000000,   0.000000,   0.000000 [a0]

Properties computed using the SCF density matrix

  Nuclear Dipole Moment: [e a0]
     X:     9.2544      Y:     4.6407      Z:    -1.9755

  Electronic Dipole Moment: [e a0]
     X:    -9.7320      Y:    -3.8703      Z:     0.4805

  Dipole Moment: [e a0]
     X:    -0.4776      Y:     0.7705      Z:    -1.4950     Total:     1.7483

  Dipole Moment: [D]
     X:    -1.2140      Y:     1.9583      Z:    -3.7999     Total:     4.4438


*** tstop() called on node74.bme.utexas.edu at Wed Jun  8 12:39:24 2022
Module time:
	user time   =      65.36 seconds =       1.09 minutes
	system time =       3.39 seconds =       0.06 minutes
	total time  =         35 seconds =       0.58 minutes
Total time:
	user time   =      65.36 seconds =       1.09 minutes
	system time =       3.39 seconds =       0.06 minutes
	total time  =         35 seconds =       0.58 minutes

*** tstart() called on node74.bme.utexas.edu
*** at Wed Jun  8 12:39:24 2022


         ------------------------------------------------------------
                                   SCF GRAD                          
                          Rob Parrish, Justin Turney,                
                       Andy Simmonett, and Alex Sokolov              
         ------------------------------------------------------------

  ==> Geometry <==

    Molecular point group: c1
    Full point group: C1

    Geometry (in Angstrom), charge = 0, multiplicity = 1:

       Center              X                  Y                   Z               Mass       
    ------------   -----------------  -----------------  -----------------  -----------------
         C            1.399841260582    -0.364729589096    -1.167754889458    12.000000000000
         N            0.527121260582     0.309238410904    -0.166368889458    14.003074004430
         C           -0.866041739418     0.446089410904    -0.664636889458    12.000000000000
         C           -1.812038739418    -0.585103589096    -0.010103889458    12.000000000000
         C            1.070631260582     1.591720410904     0.379576110542    12.000000000000
         H           -0.918353739418     0.342021410904    -1.762902889458     1.007825032230
         H           -1.290934739418     1.444147410904    -0.464843889458     1.007825032230
         N           -3.079108739418    -0.582010589096    -0.535658889458    14.003074004430
         O           -1.493506739418    -1.325092589096     0.919907110542    15.994914619570
         C            2.748243260582    -0.825086589096    -0.578670889458    12.000000000000
         H            0.862061260582    -1.252871589096    -1.542508889458     1.007825032230
         H            1.550934260582     0.302527410904    -2.034171889458     1.007825032230
         C            1.598994260582     1.405393410904     1.812207110542    12.000000000000
         H            1.862331260582     1.978080410904    -0.283765889458     1.007825032230
         H            0.300984260582     2.380269410904     0.380775110542     1.007825032230
         H            2.592494260582    -1.441958589096     0.308555110542     1.007825032230
         H            3.301130260582    -1.421272589096    -1.306576889458     1.007825032230
         H            1.972113260582     2.348781410904     2.213932110542     1.007825032230
         H            0.807799260582     1.046141410904     2.473111110542     1.007825032230
         H           -3.241600739418    -0.199187589096    -1.451333889458     1.007825032230
         H           -3.718982739418    -1.275267589096    -0.185255889458     1.007825032230
         H            3.376983260582     0.022617410904    -0.304473889458     1.007825032230
         H            2.414424260582     0.682179410904     1.845315110542     1.007825032230

  Nuclear repulsion =  477.513157260865853

  ==> Basis Set <==

  Basis Set: 6-311G
    Blend: 6-311G
    Number of shells: 105
    Number of basis functions: 159
    Number of Cartesian functions: 159
    Spherical Harmonics?: true
    Max angular momentum: 1

  ==> DFJKGrad: Density-Fitted SCF Gradients <==

    Gradient:                    1
    J tasked:                  Yes
    K tasked:                  Yes
    wK tasked:                 Yes
    Omega:               2.000E-01
    OpenMP threads:              2
    Integrals threads:           2
    Memory [MiB]:             5841
    Schwarz Cutoff:          1E-12
    Fitting Condition:       1E-10

   => Auxiliary Basis Set <=

  Basis Set: (6-311G AUX)
    Blend: CC-PVTZ-JKFIT
    Number of shells: 365
    Number of basis functions: 1131
    Number of Cartesian functions: 1354
    Spherical Harmonics?: true
    Max angular momentum: 4

  ==> DFT Potential <==

   => LibXC <=

    Version 5.1.5
    S. Lehtola, C. Steigemann, M. J. Oliveira, and M. A. Marques, SoftwareX 7, 1 (2018) (10.1016/j.softx.2017.11.002)

   => Composite Functional: WB97X-D <= 

    wB97X-D Hyb-GGA Exchange-Correlation Functional

    J.-D. Chai and M. Head-Gordon, Phys. Chem. Chem. Phys. 10, 6615 (2008) (10.1039/B810189B)

    Deriv               =              1
    GGA                 =           TRUE
    Meta                =          FALSE

    Exchange Hybrid     =           TRUE
    MP2 Hybrid          =          FALSE

   => Exchange-Correlation Functionals <=

    1.0000   wB97X-D range-separated functional

   => Exact (HF) Exchange <=

    0.7780            HF,LR [omega = 0.2000]
    0.2220               HF 

   => LibXC Density Thresholds  <==

    XC_HYB_GGA_XC_WB97X_D:  1.00E-14 

   => Molecular Quadrature <=

    Radial Scheme          =       TREUTLER
    Pruning Scheme         =           NONE
    Nuclear Scheme         =       TREUTLER

    BS radius alpha        =              1
    Pruning alpha          =              1
    Radial Points          =             75
    Spherical Points       =            302
    Total Points           =         482361
    Total Blocks           =           3545
    Max Points             =            256
    Max Functions          =            140
    Weights Tolerance      =       1.00E-15


  -Total Gradient:
     Atom            X                  Y                   Z
    ------   -----------------  -----------------  -----------------
       1        0.002389162859     0.005142584209    -0.009636471746
       2        0.014218393815    -0.020555681853     0.017083791765
       3       -0.004833549952     0.009029534275    -0.007963836336
       4       -0.004315264771    -0.007449044411     0.006682286828
       5       -0.004896981105     0.007435909553    -0.003983774784
       6       -0.001101248991     0.002463969521    -0.002170632442
       7       -0.005412779413     0.005534305838    -0.003135842098
       8       -0.003030127200     0.005182209953     0.005570878564
       9       -0.000809441961     0.001677226532    -0.004647604754
      10        0.006169908459    -0.002620678489     0.002696333383
      11       -0.002246779619    -0.006111557142    -0.005073307338
      12       -0.003685234166     0.000698434355     0.000284822356
      13        0.000491073010    -0.002191583322     0.002924927271
      14       -0.000670447177     0.002510657937    -0.002269613873
      15       -0.000771845741     0.007711875127    -0.000421441674
      16        0.002558419162    -0.001797824871     0.000979633227
      17        0.000697943882    -0.000581288702     0.001674956869
      18       -0.000803113022    -0.002189090278     0.000078369364
      19        0.000339099590     0.000876407155     0.003163150238
      20        0.003627489928    -0.001714815675    -0.003270274555
      21        0.000805068073    -0.002451052598     0.000736460771
      22        0.000094750400    -0.000718455998    -0.000735499700
      23        0.001093329999     0.000466035184     0.001178822866


*** tstop() called on node74.bme.utexas.edu at Wed Jun  8 12:39:38 2022
Module time:
	user time   =      27.83 seconds =       0.46 minutes
	system time =       0.39 seconds =       0.01 minutes
	total time  =         14 seconds =       0.23 minutes
Total time:
	user time   =      93.20 seconds =       1.55 minutes
	system time =       3.78 seconds =       0.06 minutes
	total time  =         49 seconds =       0.82 minutes

			-----------------------------------------
			 OPTKING 2.0: for geometry optimizations 
			  - R.A. King,  Bethel University        
			-----------------------------------------
	At level 1: Red. Int., RFO, no backsteps, dynamic trust

	Internal coordinates to be generated automatically.
	Detected frag 1 with atoms:  1 2 3 4 5 6 7 8 9 10 11 12 13 14 15 16 17 18 19 20
	 21 22 23
	---Fragment 1 Bond Connectivity---
	 1 : 2 10 11 12
	 2 : 1 3 5
	 3 : 2 4 6 7
	 4 : 3 8 9
	 5 : 2 13 14 15
	 6 : 3
	 7 : 3
	 8 : 4 20 21
	 9 : 4
	 10 : 1 16 17 22
	 11 : 1
	 12 : 1
	 13 : 5 18 19 23
	 14 : 5
	 15 : 5
	 16 : 10
	 17 : 10
	 18 : 13
	 19 : 13
	 20 : 8
	 21 : 8
	 22 : 10
	 23 : 13

	Assuming in current code that numbering for constraints corresponds to unified fragment.
	Frozen dihedral atom list: 
	     1     2     3     4
	    10     1     2     5
	    13     5     2     1
	     2     3     4     8
	     3     4     8    20
	---Fragment 1 Geometry and Gradient---
	 C           2.6453166016       -0.6892390332       -2.2067369227
	 N           0.9961148174        0.5843759041       -0.3143916369
	 C          -1.6365817007        0.8429868141       -1.2559816940
	 C          -3.4242569462       -1.1056855384       -0.0190935839
	 C           2.0231998639        3.0079156449        0.7172948927
	 H          -1.7354370538        0.6463267957       -3.3314036469
	 H          -2.4395131033        2.7290430914       -0.8784276422
	 N          -5.8186722280       -1.0998406155       -1.0122485977
	 O          -2.8223187040       -2.5040620843        1.7383724998
	 C           5.1934270886       -1.5591876832       -1.0935294979
	 H           1.6290596859       -2.3675841738       -2.9149193472
	 H           2.9308409911        0.5716939521       -3.8440277632
	 C           3.0216612287        2.6558086451        3.4245751215
	 H           3.5192960374        3.7380302307       -0.5362398148
	 H           0.5687778206        4.4980572914        0.7195606743
	 H           4.8991041343       -2.7249068176        0.5830846535
	 H           6.2382320970       -2.6858159430       -2.4690724829
	 H           3.7267539509        4.4385535952        4.1837253493
	 H           1.5265193668        1.9769207551        4.6735026768
	 H          -6.1257376056       -0.3764099910       -2.7426235677
	 H          -7.0278588428       -2.4099064801       -0.3500828942
	 H           6.3815734928        0.0427407123       -0.5753722634
	 H           4.5626006032        1.2891322550        3.4871401741
	             0.0023891629        0.0051425842       -0.0096364717
	             0.0142183938       -0.0205556819        0.0170837918
	            -0.0048335500        0.0090295343       -0.0079638363
	            -0.0043152648       -0.0074490444        0.0066822868
	            -0.0048969811        0.0074359096       -0.0039837748
	            -0.0011012490        0.0024639695       -0.0021706324
	            -0.0054127794        0.0055343058       -0.0031358421
	            -0.0030301272        0.0051822100        0.0055708786
	            -0.0008094420        0.0016772265       -0.0046476048
	             0.0061699085       -0.0026206785        0.0026963334
	            -0.0022467796       -0.0061115571       -0.0050733073
	            -0.0036852342        0.0006984344        0.0002848224
	             0.0004910730       -0.0021915833        0.0029249273
	            -0.0006704472        0.0025106579       -0.0022696139
	            -0.0007718457        0.0077118751       -0.0004214417
	             0.0025584192       -0.0017978249        0.0009796332
	             0.0006979439       -0.0005812887        0.0016749569
	            -0.0008031130       -0.0021890903        0.0000783694
	             0.0003390996        0.0008764072        0.0031631502
	             0.0036274899       -0.0017148157       -0.0032702746
	             0.0008050681       -0.0024510526        0.0007364608
	             0.0000947504       -0.0007184560       -0.0007354997
	             0.0010933300        0.0004660352        0.0011788229

	Previous optimization step data not found.  Starting new optimization.

	---Fragment 1 Intrafragment Coordinates---
	 - Coordinate -           - BOHR/RAD -       - ANG/DEG -
	 R(1,2)           =         2.814770	       1.489512
	 R(1,10)          =         2.913573	       1.541797
	 R(1,11)          =         2.085939	       1.103832
	 R(1,12)          =         2.086192	       1.103965
	 R(2,3)           =         2.807946	       1.485901
	 R(2,5)           =         2.827159	       1.496068
	 R(3,4)           =         2.919418	       1.544889
	 R(3,6)           =         2.087061	       1.104425
	 R(3,7)           =         2.084335	       1.102983
	 R(4,8)           =         2.592222	       1.371745
	 R(4,9)           =         2.325182	       1.230434
	 R(5,13)          =         2.906935	       1.538284
	 R(5,14)          =         2.083919	       1.102763
	 R(5,15)          =         2.082275	       1.101893
	 R(8,20)          =         1.900484	       1.005693
	 R(8,21)          =         1.901807	       1.006393
	 R(10,16)         =         2.063144	       1.091769
	 R(10,17)         =         2.062287	       1.091315
	 R(10,22)         =         2.060668	       1.090459
	 R(13,18)         =         2.061952	       1.091138
	 R(13,19)         =         2.063046	       1.091717
	 R(13,23)         =         2.060634	       1.090441
	 B(1,2,3)         =         1.945047	     111.442982
	 B(1,2,5)         =         2.004632	     114.856932
	 B(1,10,16)       =         1.933109	     110.758987
	 B(1,10,17)       =         1.929808	     110.569835
	 B(1,10,22)       =         1.947888	     111.605785
	 B(2,1,10)        =         1.972136	     112.995095
	 B(2,1,11)        =         1.882683	     107.869776
	 B(2,1,12)        =         1.911696	     109.532084
	 B(2,3,4)         =         1.950425	     111.751108
	 B(2,3,6)         =         1.948935	     111.665774
	 B(2,3,7)         =         1.964679	     112.567792
	 B(2,5,13)        =         1.939927	     111.149615
	 B(2,5,14)        =         1.919463	     109.977119
	 B(2,5,15)        =         1.939182	     111.106954
	 B(3,2,5)         =         1.964960	     112.583921
	 B(3,4,8)         =         1.984262	     113.689860
	 B(3,4,9)         =         2.168977	     124.273245
	 B(4,3,6)         =         1.906479	     109.233183
	 B(4,3,7)         =         1.866444	     106.939337
	 B(4,8,20)        =         2.093168	     119.929695
	 B(4,8,21)        =         2.040186	     116.894061
	 B(5,13,18)       =         1.934365	     110.830952
	 B(5,13,19)       =         1.933427	     110.777217
	 B(5,13,23)       =         1.944926	     111.436031
	 B(6,3,7)         =         1.820531	     104.308735
	 B(8,4,9)         =         2.129472	     122.009752
	 B(10,1,11)       =         1.891841	     108.394497
	 B(10,1,12)       =         1.939746	     111.139254
	 B(11,1,12)       =         1.861414	     106.651181
	 B(13,5,14)       =         1.934846	     110.858496
	 B(13,5,15)       =         1.902420	     109.000627
	 B(14,5,15)       =         1.824904	     104.559319
	 B(16,10,17)      =         1.881406	     107.796636
	 B(16,10,22)      =         1.893519	     108.490638
	 B(17,10,22)      =         1.875794	     107.475092
	 B(18,13,19)      =         1.885412	     108.026151
	 B(18,13,23)      =         1.882344	     107.850380
	 B(19,13,23)      =         1.881069	     107.777313
	 B(20,8,21)       =         2.067465	     118.457031
	*D(1,2,3,4)       =         1.811533	     103.793176
	 D(1,2,3,6)       =        -0.329848	     -18.898877
	 D(1,2,3,7)       =        -2.370868	    -135.840752
	*D(1,2,5,13)      =        -1.831831	    -104.956200
	 D(1,2,5,14)      =         0.317564	      18.195077
	 D(1,2,5,15)      =         2.329569	     133.474471
	 D(2,1,10,16)     =         0.932716	      53.440669
	 D(2,1,10,17)     =         3.017166	     172.870906
	 D(2,1,10,22)     =        -1.178994	     -67.551354
	*D(2,3,4,8)       =        -3.036388	    -173.972239
	 D(2,3,4,9)       =         0.137787	       7.894598
	 D(2,5,13,18)     =        -3.117905	    -178.642816
	 D(2,5,13,19)     =        -1.025262	     -58.743206
	 D(2,5,13,23)     =         1.068887	      61.242716
	 D(3,2,1,10)      =        -2.904202	    -166.398500
	 D(3,2,1,11)      =        -0.813273	     -46.597110
	 D(3,2,1,12)      =         1.206258	      69.113514
	 D(3,2,5,13)      =         2.200228	     126.063781
	 D(3,2,5,14)      =        -1.933562	    -110.784942
	 D(3,2,5,15)      =         0.078443	       4.494452
	*D(3,4,8,20)      =         0.364875	      20.905781
	 D(3,4,8,21)      =         3.075365	     176.205417
	 D(4,3,2,5)       =        -2.190001	    -125.477831
	*D(5,2,1,10)      =         1.118008	      64.057132
	 D(5,2,1,11)      =        -3.074249	    -176.141477
	 D(5,2,1,12)      =        -1.054717	     -60.430854
	 D(5,2,3,6)       =         1.951804	     111.830116
	 D(5,2,3,7)       =        -0.089217	      -5.111759
	 D(6,3,4,8)       =        -0.870978	     -49.903388
	 D(6,3,4,9)       =         2.303197	     131.963449
	 D(7,3,4,8)       =         1.089495	      62.423460
	 D(7,3,4,9)       =        -2.019515	    -115.709703
	 D(9,4,8,20)      =        -2.808470	    -160.913493
	 D(9,4,8,21)      =        -0.097980	      -5.613857
	 D(11,1,10,16)    =        -1.152945	     -66.058862
	 D(11,1,10,17)    =         0.931506	      53.371376
	 D(11,1,10,22)    =         3.018531	     172.949115
	 D(12,1,10,16)    =         3.090055	     177.047098
	 D(12,1,10,17)    =        -1.108680	     -63.522665
	 D(12,1,10,22)    =         0.978346	      56.055075
	 D(14,5,13,18)    =         1.024737	      58.713113
	 D(14,5,13,19)    =         3.117380	     178.612724
	 D(14,5,13,23)    =        -1.071656	     -61.401355
	 D(15,5,13,18)    =        -0.974793	     -55.851504
	 D(15,5,13,19)    =         1.117850	      64.048106
	 D(15,5,13,23)    =        -3.071186	    -175.965972
	 R(10,13)         =         6.549506	       3.465849

	Current energy   :      -421.6326007782

	Generating empirical Hessian (Schlegel '84) for each fragment.
	Taking RFO optimization step.
	Going to follow RFO solution 1.
	Using RFO vector 1.
	Norm of target step-size    0.36380
	Projected energy change by RFO approximation:        -0.0110602399

	Back-transformation to cartesian coordinates...
	Successfully converged to displaced geometry.

	Back-transformation to cartesian coordinates to adjust frozen coordinates...
	Successfully converged to displaced geometry.

	--- Internal Coordinate Step in ANG or DEG, aJ/ANG or AJ/DEG ---
	 ---------------------------------------------------------------------------
	   Coordinate                Previous        Force       Change         New 
	   ----------                --------       ------       ------       ------
	    1 R(1,2)          =      1.489512    -0.080111     0.035363     1.524875
	    2 R(1,10)         =      1.541797    -0.092011     0.000368     1.542165
	    3 R(1,11)         =      1.103832    -0.063746     0.001634     1.105466
	    4 R(1,12)         =      1.103965     0.002695     0.039704     1.143669
	    5 R(2,3)          =      1.485901    -0.147744    -0.020647     1.465254
	    6 R(2,5)          =      1.496068    -0.071179     0.011190     1.507258
	    7 R(3,4)          =      1.544889    -0.063154     0.021567     1.566456
	    8 R(3,6)          =      1.104425    -0.016267     0.030119     1.134544
	    9 R(3,7)          =      1.102983    -0.053598     0.029166     1.132149
	   10 R(4,8)          =      1.371745     0.020441     0.006677     1.378422
	   11 R(4,9)          =      1.230434     0.038829     0.042366     1.272800
	   12 R(5,13)         =      1.538284    -0.050872     0.027747     1.566030
	   13 R(5,14)         =      1.102763    -0.014444     0.022867     1.125629
	   14 R(5,15)         =      1.101893    -0.049842     0.023330     1.125223
	   15 R(8,20)         =      1.005693    -0.014226     0.029174     1.034866
	   16 R(8,21)         =      1.006393    -0.011913     0.019743     1.026135
	   17 R(10,16)        =      1.091769    -0.012113     0.036432     1.128200
	   18 R(10,17)        =      1.091315     0.003715     0.039640     1.130955
	   19 R(10,22)        =      1.090459     0.005659     0.011771     1.102230
	   20 R(13,18)        =      1.091138     0.017643     0.023918     1.115056
	   21 R(13,19)        =      1.091717    -0.011483     0.022648     1.114365
	   22 R(13,23)        =      1.090441    -0.004485     0.030204     1.120645
	   23 B(1,2,3)        =    111.442982    -0.000200     0.641068   112.084050
	   24 B(1,2,5)        =    114.856932    -0.000165     0.458838   115.315770
	   25 B(1,10,16)      =    110.758987    -0.000282    -1.073009   109.685978
	   26 B(1,10,17)      =    110.569835    -0.000120     0.047681   110.617516
	   27 B(1,10,22)      =    111.605785     0.000040    -0.849074   110.756711
	   28 B(2,1,10)       =    112.995095     0.000292     0.462208   113.457303
	   29 B(2,1,11)       =    107.869776    -0.000241    -0.904787   106.964988
	   30 B(2,1,12)       =    109.532084     0.000122     1.651370   111.183454
	   31 B(2,3,4)        =    111.751108     0.000398     0.394713   112.145821
	   32 B(2,3,6)        =    111.665774    -0.000158    -1.020150   110.645624
	   33 B(2,3,7)        =    112.567792    -0.000295    -1.725500   110.842292
	   34 B(2,5,13)       =    111.149615     0.000551     0.682824   111.832440
	   35 B(2,5,14)       =    109.977119    -0.000095    -0.582911   109.394209
	   36 B(2,5,15)       =    111.106954    -0.000385    -1.195844   109.911110
	   37 B(3,2,5)        =    112.583921     0.000486     3.147198   115.731119
	   38 B(3,4,8)        =    113.689860    -0.000038    -0.679029   113.010831
	   39 B(3,4,9)        =    124.273245     0.000009     0.764236   125.037481
	   40 B(4,3,6)        =    109.233183    -0.000148     0.568019   109.801202
	   41 B(4,3,7)        =    106.939337    -0.000053    -0.106296   106.833042
	   42 B(4,8,20)       =    119.929695     0.000276     1.560980   121.490675
	   43 B(4,8,21)       =    116.894061     0.000054    -0.150920   116.743142
	   44 B(5,13,18)      =    110.830952     0.000002    -0.235268   110.595684
	   45 B(5,13,19)      =    110.777217    -0.000263    -0.497712   110.279504
	   46 B(5,13,23)      =    111.436031    -0.000099    -0.810860   110.625171
	   47 B(6,3,7)        =    104.308735     0.000244     2.035204   106.343940
	   48 B(8,4,9)        =    122.009752     0.000027    -0.319861   121.689891
	   49 B(10,1,11)      =    108.394497    -0.000108    -1.052351   107.342146
	   50 B(10,1,12)      =    111.139254    -0.000205    -1.225364   109.913890
	   51 B(11,1,12)      =    106.651181     0.000127     1.050728   107.701910
	   52 B(13,5,14)      =    110.858496    -0.000254     0.366358   111.224854
	   53 B(13,5,15)      =    109.000627    -0.000078    -0.456418   108.544209
	   54 B(14,5,15)      =    104.559319     0.000228     1.188808   105.748127
	   55 B(16,10,17)     =    107.796636     0.000214     1.049685   108.846321
	   56 B(16,10,22)     =    108.490638     0.000094     0.203626   108.694264
	   57 B(17,10,22)     =    107.475092     0.000073     0.710879   108.185971
	   58 B(18,13,19)     =    108.026151     0.000174     0.218271   108.244422
	   59 B(18,13,23)     =    107.850380     0.000094     1.849763   109.700144
	   60 B(19,13,23)     =    107.777313     0.000112    -0.468417   107.308896
	   61 B(20,8,21)      =    118.457031    -0.000243     0.424202   118.881233
	   62 *D(1,2,3,4)     =    103.793176     0.000000    -0.000000   103.793176
	   63 D(1,2,3,6)      =    -18.898877     0.000004    -0.277043   -19.175920
	   64 D(1,2,3,7)      =   -135.840752     0.000002    -1.059356  -136.900107
	   65 *D(1,2,5,13)    =   -104.956200    -0.000000     0.000000  -104.956200
	   66 D(1,2,5,14)     =     18.195077    -0.000003     0.525084    18.720161
	   67 D(1,2,5,15)     =    133.474471    -0.000003     0.938415   134.412886
	   68 D(2,1,10,16)    =     53.440669    -0.000034    -0.769771    52.670898
	   69 D(2,1,10,17)    =    172.870906    -0.000032    -0.122935   172.747971
	   70 D(2,1,10,22)    =    -67.551354    -0.000023     0.246062   -67.305292
	   71 *D(2,3,4,8)     =   -173.972239     0.000000    -0.000000  -173.972239
	   72 D(2,3,4,9)      =      7.894598     0.000013     3.951514    11.846112
	   73 D(2,5,13,18)    =   -178.642816     0.000021     1.330472  -177.312344
	   74 D(2,5,13,19)    =    -58.743206     0.000032     1.127286   -57.615920
	   75 D(2,5,13,23)    =     61.242716     0.000009    -0.305104    60.937612
	   76 D(3,2,1,10)     =   -166.398500     0.000082     5.708705  -160.689795
	   77 D(3,2,1,11)     =    -46.597110     0.000055     4.077255   -42.519854
	   78 D(3,2,1,12)     =     69.113514     0.000074     5.699619    74.813132
	   79 D(3,2,5,13)     =    126.063781    -0.000004    -4.623277   121.440504
	   80 D(3,2,5,14)     =   -110.784942    -0.000006    -4.098193  -114.883135
	   81 D(3,2,5,15)     =      4.494452    -0.000007    -3.684862     0.809590
	   82 *D(3,4,8,20)    =     20.905781    -0.000000    -0.000000    20.905781
	   83 D(3,4,8,21)     =    176.205417     0.000035     5.250166   181.455584
	   84 D(4,3,2,5)      =   -125.477831     0.000004     4.326825  -121.151006
	   85 *D(5,2,1,10)    =     64.057132     0.000000     0.000000    64.057132
	   86 D(5,2,1,11)     =   -176.141477    -0.000027    -1.631449  -177.772927
	   87 D(5,2,1,12)     =    -60.430854    -0.000008    -0.009086   -60.439940
	   88 D(5,2,3,6)      =    111.830116     0.000008     4.049782   115.879898
	   89 D(5,2,3,7)      =     -5.111759     0.000006     3.267469    -1.844290
	   90 D(6,3,4,8)      =    -49.903388    -0.000008    -0.624493   -50.527881
	   91 D(6,3,4,9)      =    131.963449     0.000005     3.327021   135.290470
	   92 D(7,3,4,8)      =     62.423460     0.000035     1.972056    64.395516
	   93 D(7,3,4,9)      =   -115.709703     0.000048     5.923570  -109.786133
	   94 D(9,4,8,20)     =   -160.913493    -0.000012    -3.778680  -164.692173
	   95 D(9,4,8,21)     =     -5.613857     0.000023     1.471486    -4.142371
	   96 D(11,1,10,16)   =    -66.058862     0.000011     0.778205   -65.280657
	   97 D(11,1,10,17)   =     53.371376     0.000013     1.425040    54.796416
	   98 D(11,1,10,22)   =    172.949115     0.000022     1.794038   174.743153
	   99 D(12,1,10,16)   =    177.047098     0.000017     0.804630   177.851728
	  100 D(12,1,10,17)   =    -63.522665     0.000019     1.451466   -62.071199
	  101 D(12,1,10,22)   =     56.055075     0.000028     1.820463    57.875538
	  102 D(14,5,13,18)   =     58.713113     0.000002     1.335270    60.048383
	  103 D(14,5,13,19)   =    178.612724     0.000012     1.132084   179.744808
	  104 D(14,5,13,23)   =    -61.401355    -0.000011    -0.300305   -61.701660
	  105 D(15,5,13,18)   =    -55.851504    -0.000019    -0.037317   -55.888821
	  106 D(15,5,13,19)   =     64.048106    -0.000008    -0.240503    63.807603
	  107 D(15,5,13,23)   =   -175.965972    -0.000031    -1.672893  -177.638865
	  108 R(10,13)        =      3.465849    -0.026624     0.085982     3.551831
	 ---------------------------------------------------------------------------
	Successfully symmetrized geometry.

  ==> Convergence Check <==

  Measures of convergence in internal coordinates in au.
  Criteria marked as inactive (o), active & met (*), and active & unmet ( ).
  --------------------------------------------------------------------------------------------- ~
   Step     Total Energy     Delta E     MAX Force     RMS Force      MAX Disp      RMS Disp    ~
  --------------------------------------------------------------------------------------------- ~
    Convergence Criteria             o    2.50e-03 *    1.70e-03 *    1.00e-02 *    6.70e-03 *  ~
  --------------------------------------------------------------------------------------------- ~
      1    -421.63260078   -4.22e+02 o    1.79e-02      3.52e-03      1.62e-01      4.21e-02    ~
  ---------------------------------------------------------------------------------------------

	Writing optimization data to binary file.
	Structure for next step:
	Cartesian Geometry (in Angstrom)
	    C     1.3903023594  -0.0789886619  -1.3544226464
	    N     0.5042228972   0.3918751455  -0.2062092380
	    C    -0.9119921462   0.4241144561  -0.5807276470
	    C    -1.7092074048  -0.7832441180   0.0197036319
	    C     1.0097593428   1.5962396247   0.5459649634
	    H    -1.0271031223   0.4374991842  -1.7093372581
	    H    -1.4083254681   1.3672134246  -0.1986552254
	    N    -3.0116016115  -0.8447906814  -0.4275420086
	    O    -1.2715854859  -1.5750196486   0.9150237958
	    C     2.7766464030  -0.5753947129  -0.8962705979
	    H     0.8749538982  -0.9335295233  -1.8300591480
	    H     1.5109804055   0.7382908515  -2.1452889995
	    C     1.5997860192   1.2050324415   1.9428458143
	    H     1.7723557255   2.1360120991  -0.0818358892
	    H     0.1707159790   2.3290627417   0.7044046576
	    H     2.6539019211  -1.3531031537  -0.0882241903
	    H     3.3415115961  -1.0341138500  -1.7620437316
	    H     1.9227612420   2.1147414129   2.5009373389
	    H     0.8312239723   0.6763094760   2.5524137312
	    H    -3.3059320252  -0.3746396095  -1.3011988101
	    H    -3.5935673395  -1.6018132065  -0.0517942813
	    H     3.3773637560   0.2577639136  -0.4964007406
	    H     2.4683480405   0.5071088254   1.8230670301
			--------------------------
			 OPTKING Finished Execution 
			--------------------------

    Structure for next step:
    Molecular point group: c1
    Full point group: C1

    Geometry (in Angstrom), charge = 0, multiplicity = 1:

    C            1.358960969130    -0.042301487814    -1.352778366929
    N            0.472881503425     0.428562321438    -0.204564954028
    C           -0.943333545556     0.460801632106    -0.579083364505
    C           -1.740548807264    -0.746556946686     0.021347916815
    C            0.978417950991     1.632926805346     0.547609250410
    H           -1.058444522077     0.474186360259    -1.707692980005
    H           -1.439666869414     1.403900604345    -0.197010941378
    N           -3.042943019117    -0.808103510391    -0.425897725463
    O           -1.302926886640    -1.538332480405     0.916668084201
    C            2.745305018223    -0.538707540762    -0.894626316621
    H            0.843612505910    -0.896842352655    -1.828414870426
    H            1.479639015674     0.774978028740    -2.143644723081
    C            1.568444629727     1.241719620557     1.944490106710
    H            1.741014336741     2.172699281841    -0.080191604735
    H            0.139374583929     2.365749925232     0.706048945141
    H            2.622560535844    -1.316415984704    -0.086579905840
    H            3.310170213546    -0.997426679741    -1.760399453748
    H            1.891419853846     2.151428595528     2.502581633513
    H            0.799882579848     0.712996653065     2.554058026023
    H           -3.337273433917    -0.337952436650    -1.299554530425
    H           -3.624908749384    -1.565126038399    -0.050149996711
    H            3.346022373496     0.294451088964    -0.494756457755
    H            2.437006654496     0.543796001774     1.824711322040


Scratch directory: /scratch/bdw2292/Psi4-4_27_Index_0-farH_in17/

Scratch directory: /scratch/bdw2292/Psi4-4_27_Index_0-farH_in17/
gradient() will perform analytic gradient computation.

*** tstart() called on node74.bme.utexas.edu
*** at Wed Jun  8 12:39:39 2022

   => Loading Basis Set <=

    Name: 6-311G
    Role: ORBITAL
    Keyword: BASIS
    atoms 1, 3-5, 10, 13    entry C          line    92 file /home/bdw2292/miniconda3/envs/newamoebamdpoltype/share/psi4/basis/6-311g.gbs 
    atoms 2, 8              entry N          line   109 file /home/bdw2292/miniconda3/envs/newamoebamdpoltype/share/psi4/basis/6-311g.gbs 
    atoms 6-7, 11-12, 14-23 entry H          line    21 file /home/bdw2292/miniconda3/envs/newamoebamdpoltype/share/psi4/basis/6-311g.gbs 
    atoms 9                 entry O          line   126 file /home/bdw2292/miniconda3/envs/newamoebamdpoltype/share/psi4/basis/6-311g.gbs 

   => WB97X-D: Empirical Dispersion <=

    Chai and Head-Gordon Dispersion Correction
    Chai, J.-D.; Head-Gordon, M. (2010), J. Chem. Phys., 132: 6615-6620

        s6 =       1.000000


         ---------------------------------------------------------
                                   SCF
               by Justin Turney, Rob Parrish, Andy Simmonett
                          and Daniel G. A. Smith
                              RKS Reference
                        2 Threads,   7788 MiB Core
         ---------------------------------------------------------

  ==> Geometry <==

    Molecular point group: c1
    Full point group: C1

    Geometry (in Angstrom), charge = 0, multiplicity = 1:

       Center              X                  Y                   Z               Mass       
    ------------   -----------------  -----------------  -----------------  -----------------
         C            1.358960969130    -0.042301487814    -1.352778366929    12.000000000000
         N            0.472881503425     0.428562321438    -0.204564954028    14.003074004430
         C           -0.943333545556     0.460801632106    -0.579083364505    12.000000000000
         C           -1.740548807264    -0.746556946686     0.021347916815    12.000000000000
         C            0.978417950991     1.632926805346     0.547609250410    12.000000000000
         H           -1.058444522077     0.474186360259    -1.707692980005     1.007825032230
         H           -1.439666869414     1.403900604345    -0.197010941378     1.007825032230
         N           -3.042943019117    -0.808103510391    -0.425897725463    14.003074004430
         O           -1.302926886640    -1.538332480405     0.916668084201    15.994914619570
         C            2.745305018223    -0.538707540762    -0.894626316621    12.000000000000
         H            0.843612505910    -0.896842352655    -1.828414870426     1.007825032230
         H            1.479639015674     0.774978028740    -2.143644723081     1.007825032230
         C            1.568444629727     1.241719620557     1.944490106710    12.000000000000
         H            1.741014336741     2.172699281841    -0.080191604735     1.007825032230
         H            0.139374583929     2.365749925232     0.706048945141     1.007825032230
         H            2.622560535844    -1.316415984704    -0.086579905840     1.007825032230
         H            3.310170213546    -0.997426679741    -1.760399453748     1.007825032230
         H            1.891419853846     2.151428595528     2.502581633513     1.007825032230
         H            0.799882579848     0.712996653065     2.554058026023     1.007825032230
         H           -3.337273433917    -0.337952436650    -1.299554530425     1.007825032230
         H           -3.624908749384    -1.565126038399    -0.050149996711     1.007825032230
         H            3.346022373496     0.294451088964    -0.494756457755     1.007825032230
         H            2.437006654496     0.543796001774     1.824711322040     1.007825032230

  Running in c1 symmetry.

  Rotational constants: A =      0.07231  B =      0.03054  C =      0.02694 [cm^-1]
  Rotational constants: A =   2167.70149  B =    915.43063  C =    807.74129 [MHz]
  Nuclear repulsion =  471.765767074926373

  Charge       = 0
  Multiplicity = 1
  Electrons    = 72
  Nalpha       = 36
  Nbeta        = 36

  ==> Algorithm <==

  SCF Algorithm Type is DF.
  DIIS enabled.
  MOM disabled.
  Fractional occupation disabled.
  Guess Type is READ.
  Energy threshold   = 1.00e-08
  Density threshold  = 1.00e-08
  Integral threshold = 1.00e-12

  ==> Primary Basis <==

  Basis Set: 6-311G
    Blend: 6-311G
    Number of shells: 105
    Number of basis functions: 159
    Number of Cartesian functions: 159
    Spherical Harmonics?: true
    Max angular momentum: 1

  ==> DFT Potential <==

   => LibXC <=

    Version 5.1.5
    S. Lehtola, C. Steigemann, M. J. Oliveira, and M. A. Marques, SoftwareX 7, 1 (2018) (10.1016/j.softx.2017.11.002)

   => Composite Functional: WB97X-D <= 

    wB97X-D Hyb-GGA Exchange-Correlation Functional

    J.-D. Chai and M. Head-Gordon, Phys. Chem. Chem. Phys. 10, 6615 (2008) (10.1039/B810189B)

    Deriv               =              1
    GGA                 =           TRUE
    Meta                =          FALSE

    Exchange Hybrid     =           TRUE
    MP2 Hybrid          =          FALSE

   => Exchange-Correlation Functionals <=

    1.0000   wB97X-D range-separated functional

   => Exact (HF) Exchange <=

    0.7780            HF,LR [omega = 0.2000]
    0.2220               HF 

   => LibXC Density Thresholds  <==

    XC_HYB_GGA_XC_WB97X_D:  1.00E-14 

   => Molecular Quadrature <=

    Radial Scheme          =       TREUTLER
    Pruning Scheme         =           NONE
    Nuclear Scheme         =       TREUTLER

    BS radius alpha        =              1
    Pruning alpha          =              1
    Radial Points          =             75
    Spherical Points       =            302
    Total Points           =         482954
    Total Blocks           =           3544
    Max Points             =            256
    Max Functions          =            137
    Weights Tolerance      =       1.00E-15

   => Loading Basis Set <=

    Name: (6-311G AUX)
    Role: JKFIT
    Keyword: DF_BASIS_SCF
    atoms 1, 3-5, 10, 13    entry C          line   125 file /home/bdw2292/miniconda3/envs/newamoebamdpoltype/share/psi4/basis/cc-pvtz-jkfit.gbs 
    atoms 2, 8              entry N          line   177 file /home/bdw2292/miniconda3/envs/newamoebamdpoltype/share/psi4/basis/cc-pvtz-jkfit.gbs 
    atoms 6-7, 11-12, 14-23 entry H          line    51 file /home/bdw2292/miniconda3/envs/newamoebamdpoltype/share/psi4/basis/cc-pvtz-jkfit.gbs 
    atoms 9                 entry O          line   229 file /home/bdw2292/miniconda3/envs/newamoebamdpoltype/share/psi4/basis/cc-pvtz-jkfit.gbs 

   => Loading Basis Set <=

    Name: 6-311G
    Role: ORBITAL
    Keyword: BASIS
    atoms 1, 3-5, 10, 13    entry C          line    92 file /home/bdw2292/miniconda3/envs/newamoebamdpoltype/share/psi4/basis/6-311g.gbs 
    atoms 2, 8              entry N          line   109 file /home/bdw2292/miniconda3/envs/newamoebamdpoltype/share/psi4/basis/6-311g.gbs 
    atoms 6-7, 11-12, 14-23 entry H          line    21 file /home/bdw2292/miniconda3/envs/newamoebamdpoltype/share/psi4/basis/6-311g.gbs 
    atoms 9                 entry O          line   126 file /home/bdw2292/miniconda3/envs/newamoebamdpoltype/share/psi4/basis/6-311g.gbs 

  Reading orbitals from file /scratch/bdw2292/Psi4-4_27_Index_0-farH_in17/4_27_Index_0-opt-1_2-3-104.default.1108683.180.npy, no projection.

  ==> Integral Setup <==

  DFHelper Memory: AOs need 0.584 GiB; user supplied 4.318 GiB. Using in-core AOs.

  ==> MemDFJK: Density-Fitted J/K Matrices <==

    J tasked:                   Yes
    K tasked:                   Yes
    wK tasked:                  Yes
    Omega:                2.000E-01
    OpenMP threads:               2
    Memory [MiB]:              4421
    Algorithm:                 Core
    Schwarz Cutoff:           1E-12
    Mask sparsity (%):      11.0360
    Fitting Condition:        1E-10

   => Auxiliary Basis Set <=

  Basis Set: (6-311G AUX)
    Blend: CC-PVTZ-JKFIT
    Number of shells: 365
    Number of basis functions: 1131
    Number of Cartesian functions: 1354
    Spherical Harmonics?: true
    Max angular momentum: 4

  Cached 100.0% of DFT collocation blocks in 1.387 [GiB].

  Minimum eigenvalue in the overlap matrix is 2.8145997345E-03.
  Reciprocal condition number of the overlap matrix is 3.9531196917E-04.
    Using symmetric orthogonalization.

  ==> Pre-Iterations <==

  SCF Guess: Orbitals guess was supplied from a previous computation.

   -------------------------------------------------------
    Irrep   Nso     Nmo     Nalpha   Nbeta   Ndocc  Nsocc
   -------------------------------------------------------
     A        159     159      36      36      36       0
   -------------------------------------------------------
    Total     159     159      36      36      36       0
   -------------------------------------------------------

  ==> Iterations <==

                           Total Energy        Delta E     RMS |[F,P]|

   @DF-RKS iter   0:  -421.39302897179613   -4.21393e+02   2.85353e-03 
   @DF-RKS iter   1:  -421.61661861784364   -2.23590e-01   4.96023e-04 DIIS
   @DF-RKS iter   2:  -421.62007436271841   -3.45574e-03   4.38898e-04 DIIS
   @DF-RKS iter   3:  -421.62207578848387   -2.00143e-03   1.31115e-04 DIIS
   @DF-RKS iter   4:  -421.62225564632365   -1.79858e-04   8.08150e-05 DIIS
   @DF-RKS iter   5:  -421.62232735933492   -7.17130e-05   1.86779e-05 DIIS
   @DF-RKS iter   6:  -421.62233165216543   -4.29283e-06   5.96062e-06 DIIS
   @DF-RKS iter   7:  -421.62233240298576   -7.50820e-07   1.45123e-06 DIIS
   @DF-RKS iter   8:  -421.62233250348930   -1.00504e-07   6.62312e-07 DIIS
   @DF-RKS iter   9:  -421.62233252217214   -1.86828e-08   1.80262e-07 DIIS
   @DF-RKS iter  10:  -421.62233252456889   -2.39675e-09   6.98336e-08 DIIS
   @DF-RKS iter  11:  -421.62233252480161   -2.32717e-10   3.69285e-08 DIIS
   @DF-RKS iter  12:  -421.62233252483719   -3.55840e-11   8.89813e-09 DIIS
  Energy and wave function converged.


  ==> Post-Iterations <==

   Electrons on quadrature grid:
      Ntotal   =   71.9998692318 ; deviation = -1.308e-04 

    Orbital Energies [Eh]
    ---------------------

    Doubly Occupied:                                                      

       1A    -19.210454     2A    -14.461434     3A    -14.428995  
       4A    -10.402205     5A    -10.338612     6A    -10.320583  
       7A    -10.319504     8A    -10.279134     9A    -10.269391  
      10A     -1.125080    11A     -1.010353    12A     -1.003616  
      13A     -0.852590    14A     -0.845782    15A     -0.780029  
      16A     -0.716334    17A     -0.687360    18A     -0.658416  
      19A     -0.627031    20A     -0.570267    21A     -0.562570  
      22A     -0.553034    23A     -0.529546    24A     -0.508759  
      25A     -0.493646    26A     -0.481476    27A     -0.465171  
      28A     -0.462916    29A     -0.451652    30A     -0.432765  
      31A     -0.427560    32A     -0.417578    33A     -0.410677  
      34A     -0.347034    35A     -0.329130    36A     -0.283324  

    Virtual:                                                              

      37A      0.080599    38A      0.101497    39A      0.121981  
      40A      0.137409    41A      0.143881    42A      0.154910  
      43A      0.165595    44A      0.174982    45A      0.192022  
      46A      0.194357    47A      0.197512    48A      0.208595  
      49A      0.214950    50A      0.224477    51A      0.231547  
      52A      0.241660    53A      0.269831    54A      0.291003  
      55A      0.294438    56A      0.324096    57A      0.336231  
      58A      0.359527    59A      0.374374    60A      0.395769  
      61A      0.400452    62A      0.412851    63A      0.426753  
      64A      0.433680    65A      0.450963    66A      0.454525  
      67A      0.475145    68A      0.518643    69A      0.524236  
      70A      0.535056    71A      0.545237    72A      0.559588  
      73A      0.565803    74A      0.581182    75A      0.600294  
      76A      0.624148    77A      0.638450    78A      0.641128  
      79A      0.645895    80A      0.657174    81A      0.662718  
      82A      0.679625    83A      0.682254    84A      0.683503  
      85A      0.693010    86A      0.698160    87A      0.707050  
      88A      0.716107    89A      0.724395    90A      0.739917  
      91A      0.759814    92A      0.777139    93A      0.809133  
      94A      0.819511    95A      0.870568    96A      0.889540  
      97A      0.930157    98A      0.986303    99A      0.999618  
     100A      1.029140   101A      1.081173   102A      1.094245  
     103A      1.149373   104A      1.155519   105A      1.209028  
     106A      1.227491   107A      1.338683   108A      1.491711  
     109A      1.717969   110A      2.239583   111A      2.286002  
     112A      2.326846   113A      2.335262   114A      2.351652  
     115A      2.364837   116A      2.367365   117A      2.379658  
     118A      2.383426   119A      2.392020   120A      2.400738  
     121A      2.418818   122A      2.437997   123A      2.468411  
     124A      2.678078   125A      2.840600   126A      2.865805  
     127A      2.896174   128A      2.924575   129A      2.929510  
     130A      2.944805   131A      2.972171   132A      2.993917  
     133A      3.005948   134A      3.015185   135A      3.028716  
     136A      3.113343   137A      3.124232   138A      3.159753  
     139A      3.181812   140A      3.225756   141A      3.279288  
     142A      3.779513   143A      4.010045   144A      4.035642  
     145A      4.141409   146A      4.153113   147A      4.188365  
     148A      4.992574   149A      5.042392   150A      5.070091  
     151A     23.417473   152A     23.462006   153A     23.514759  
     154A     23.605591   155A     23.646006   156A     23.683183  
     157A     35.460475   158A     35.555660   159A     50.046903  

    Final Occupation by Irrep:
              A 
    DOCC [    36 ]

  @DF-RKS Final Energy:  -421.62233252483719

   => Energetics <=

    Nuclear Repulsion Energy =            471.7657670749263730
    One-Electron Energy =               -1506.8015039188699120
    Two-Electron Energy =                 654.5216986816560620
    DFT Exchange-Correlation Energy =     -41.0938809997032166
    Empirical Dispersion Energy =          -0.0144133628463947
    VV10 Nonlocal Energy =                  0.0000000000000000
    Total Energy =                       -421.6223325248371339

Computation Completed


Properties will be evaluated at   0.000000,   0.000000,   0.000000 [a0]

Properties computed using the SCF density matrix

  Nuclear Dipole Moment: [e a0]
     X:     8.5794      Y:     5.4127      Z:    -1.9259

  Electronic Dipole Moment: [e a0]
     X:    -9.2773      Y:    -4.5156      Z:     0.5495

  Dipole Moment: [e a0]
     X:    -0.6979      Y:     0.8970      Z:    -1.3764     Total:     1.7850

  Dipole Moment: [D]
     X:    -1.7738      Y:     2.2800      Z:    -3.4984     Total:     4.5369


*** tstop() called on node74.bme.utexas.edu at Wed Jun  8 12:40:11 2022
Module time:
	user time   =      61.11 seconds =       1.02 minutes
	system time =       2.27 seconds =       0.04 minutes
	total time  =         32 seconds =       0.53 minutes
Total time:
	user time   =     154.84 seconds =       2.58 minutes
	system time =       6.08 seconds =       0.10 minutes
	total time  =         82 seconds =       1.37 minutes

*** tstart() called on node74.bme.utexas.edu
*** at Wed Jun  8 12:40:11 2022


         ------------------------------------------------------------
                                   SCF GRAD                          
                          Rob Parrish, Justin Turney,                
                       Andy Simmonett, and Alex Sokolov              
         ------------------------------------------------------------

  ==> Geometry <==

    Molecular point group: c1
    Full point group: C1

    Geometry (in Angstrom), charge = 0, multiplicity = 1:

       Center              X                  Y                   Z               Mass       
    ------------   -----------------  -----------------  -----------------  -----------------
         C            1.358960969130    -0.042301487814    -1.352778366929    12.000000000000
         N            0.472881503425     0.428562321438    -0.204564954028    14.003074004430
         C           -0.943333545556     0.460801632106    -0.579083364505    12.000000000000
         C           -1.740548807264    -0.746556946686     0.021347916815    12.000000000000
         C            0.978417950991     1.632926805346     0.547609250410    12.000000000000
         H           -1.058444522077     0.474186360259    -1.707692980005     1.007825032230
         H           -1.439666869414     1.403900604345    -0.197010941378     1.007825032230
         N           -3.042943019117    -0.808103510391    -0.425897725463    14.003074004430
         O           -1.302926886640    -1.538332480405     0.916668084201    15.994914619570
         C            2.745305018223    -0.538707540762    -0.894626316621    12.000000000000
         H            0.843612505910    -0.896842352655    -1.828414870426     1.007825032230
         H            1.479639015674     0.774978028740    -2.143644723081     1.007825032230
         C            1.568444629727     1.241719620557     1.944490106710    12.000000000000
         H            1.741014336741     2.172699281841    -0.080191604735     1.007825032230
         H            0.139374583929     2.365749925232     0.706048945141     1.007825032230
         H            2.622560535844    -1.316415984704    -0.086579905840     1.007825032230
         H            3.310170213546    -0.997426679741    -1.760399453748     1.007825032230
         H            1.891419853846     2.151428595528     2.502581633513     1.007825032230
         H            0.799882579848     0.712996653065     2.554058026023     1.007825032230
         H           -3.337273433917    -0.337952436650    -1.299554530425     1.007825032230
         H           -3.624908749384    -1.565126038399    -0.050149996711     1.007825032230
         H            3.346022373496     0.294451088964    -0.494756457755     1.007825032230
         H            2.437006654496     0.543796001774     1.824711322040     1.007825032230

  Nuclear repulsion =  471.765767074926373

  ==> Basis Set <==

  Basis Set: 6-311G
    Blend: 6-311G
    Number of shells: 105
    Number of basis functions: 159
    Number of Cartesian functions: 159
    Spherical Harmonics?: true
    Max angular momentum: 1

  ==> DFJKGrad: Density-Fitted SCF Gradients <==

    Gradient:                    1
    J tasked:                  Yes
    K tasked:                  Yes
    wK tasked:                 Yes
    Omega:               2.000E-01
    OpenMP threads:              2
    Integrals threads:           2
    Memory [MiB]:             5841
    Schwarz Cutoff:          1E-12
    Fitting Condition:       1E-10

   => Auxiliary Basis Set <=

  Basis Set: (6-311G AUX)
    Blend: CC-PVTZ-JKFIT
    Number of shells: 365
    Number of basis functions: 1131
    Number of Cartesian functions: 1354
    Spherical Harmonics?: true
    Max angular momentum: 4

  ==> DFT Potential <==

   => LibXC <=

    Version 5.1.5
    S. Lehtola, C. Steigemann, M. J. Oliveira, and M. A. Marques, SoftwareX 7, 1 (2018) (10.1016/j.softx.2017.11.002)

   => Composite Functional: WB97X-D <= 

    wB97X-D Hyb-GGA Exchange-Correlation Functional

    J.-D. Chai and M. Head-Gordon, Phys. Chem. Chem. Phys. 10, 6615 (2008) (10.1039/B810189B)

    Deriv               =              1
    GGA                 =           TRUE
    Meta                =          FALSE

    Exchange Hybrid     =           TRUE
    MP2 Hybrid          =          FALSE

   => Exchange-Correlation Functionals <=

    1.0000   wB97X-D range-separated functional

   => Exact (HF) Exchange <=

    0.7780            HF,LR [omega = 0.2000]
    0.2220               HF 

   => LibXC Density Thresholds  <==

    XC_HYB_GGA_XC_WB97X_D:  1.00E-14 

   => Molecular Quadrature <=

    Radial Scheme          =       TREUTLER
    Pruning Scheme         =           NONE
    Nuclear Scheme         =       TREUTLER

    BS radius alpha        =              1
    Pruning alpha          =              1
    Radial Points          =             75
    Spherical Points       =            302
    Total Points           =         482954
    Total Blocks           =           3544
    Max Points             =            256
    Max Functions          =            137
    Weights Tolerance      =       1.00E-15


  -Total Gradient:
     Atom            X                  Y                   Z
    ------   -----------------  -----------------  -----------------
       1        0.006755514463    -0.007262503720    -0.006077355869
       2       -0.011849259799    -0.015148490852     0.020671502576
       3        0.002884467203     0.001714684137    -0.001273426826
       4       -0.009288150306     0.008969885483    -0.023786682644
       5       -0.000596554867     0.003422678676    -0.001274399314
       6        0.001040309513     0.001340143664    -0.019552564576
       7       -0.008956137023     0.019277030082     0.006663771946
       8        0.003399363633     0.008273550226     0.013044278026
       9        0.015598638666    -0.031199770256     0.035898109935
      10       -0.001672885207     0.010591841622    -0.002189944692
      11       -0.001455892585    -0.008559235812    -0.004355283649
      12        0.003329750860     0.014416966418    -0.016037746092
      13       -0.000244098015     0.002681763425     0.004270527090
      14        0.008918129941     0.008583186644    -0.010477702164
      15       -0.012179302875     0.013716721853     0.003268709573
      16       -0.002308055300    -0.015433526760     0.016417068096
      17        0.011942056399    -0.009663498427    -0.017114612979
      18        0.002009682144     0.010999047079     0.007469092476
      19       -0.008999478889    -0.006566562968     0.010478157527
      20       -0.005754813980     0.010275537488    -0.023964322159
      21       -0.008418940447    -0.014115324343     0.007965802524
      22        0.002171887052     0.006515265895     0.001883167789
      23        0.013630987106    -0.012696780719    -0.001959611347


*** tstop() called on node74.bme.utexas.edu at Wed Jun  8 12:40:26 2022
Module time:
	user time   =      29.18 seconds =       0.49 minutes
	system time =       0.25 seconds =       0.00 minutes
	total time  =         15 seconds =       0.25 minutes
Total time:
	user time   =     184.02 seconds =       3.07 minutes
	system time =       6.33 seconds =       0.11 minutes
	total time  =         97 seconds =       1.62 minutes

			-----------------------------------------
			 OPTKING 2.0: for geometry optimizations 
			  - R.A. King,  Bethel University        
			-----------------------------------------
	At level 1: Red. Int., RFO, no backsteps, dynamic trust

	Previous internal coordinate definitions found.
	---Fragment 1 Geometry and Gradient---
	 C           2.5680640468       -0.0799382267       -2.5563806219
	 N           0.8936165313        0.8098654152       -0.3865717380
	 C          -1.7826420461        0.8707888828       -1.0943089627
	 C          -3.2891605537       -1.4107881663        0.0403417161
	 C           1.8489419636        3.0857844450        1.0348315070
	 H          -2.0001702657        0.8960823533       -3.2270720386
	 H          -2.7205760951        2.6529876496       -0.3722967229
	 N          -5.7503289215       -1.5270943157       -0.8048300586
	 O          -2.4621749772       -2.9070270779        1.7322516271
	 C           5.1878746153       -1.0180097138       -1.6905987230
	 H           1.5941965922       -1.6947864242       -3.4552033488
	 H           2.7961125042        1.4644962276       -4.0509014369
	 C           2.9639307931        2.3465100075        3.6745537553
	 H           3.2900402769        4.1058065957       -0.1515401705
	 H           0.2633797925        4.4706194400        1.3342391375
	 H           4.9559211602       -2.4876656783       -0.1636123100
	 H           6.2553151323       -1.8848632549       -3.3266728390
	 H           3.5742655120        4.0656108240        4.7291938939
	 H           1.5115590084        1.3473684027        4.8264701777
	 H          -6.3065327959       -0.6386375487       -2.4558021476
	 H          -6.8500847661       -2.9576595644       -0.0947697590
	 H           6.3230658956        0.5564319155       -0.9349542040
	 H           4.6052751429        1.0276255115        3.4482046567
	             0.0067555145       -0.0072625037       -0.0060773559
	            -0.0118492598       -0.0151484909        0.0206715026
	             0.0028844672        0.0017146841       -0.0012734268
	            -0.0092881503        0.0089698855       -0.0237866826
	            -0.0005965549        0.0034226787       -0.0012743993
	             0.0010403095        0.0013401437       -0.0195525646
	            -0.0089561370        0.0192770301        0.0066637719
	             0.0033993636        0.0082735502        0.0130442780
	             0.0155986387       -0.0311997703        0.0358981099
	            -0.0016728852        0.0105918416       -0.0021899447
	            -0.0014558926       -0.0085592358       -0.0043552836
	             0.0033297509        0.0144169664       -0.0160377461
	            -0.0002440980        0.0026817634        0.0042705271
	             0.0089181299        0.0085831866       -0.0104777022
	            -0.0121793029        0.0137167219        0.0032687096
	            -0.0023080553       -0.0154335268        0.0164170681
	             0.0119420564       -0.0096634984       -0.0171146130
	             0.0020096821        0.0109990471        0.0074690925
	            -0.0089994789       -0.0065665630        0.0104781575
	            -0.0057548140        0.0102755375       -0.0239643222
	            -0.0084189404       -0.0141153243        0.0079658025
	             0.0021718871        0.0065152659        0.0018831678
	             0.0136309871       -0.0126967807       -0.0019596113

	---Fragment 1 Intrafragment Coordinates---
	 - Coordinate -           - BOHR/RAD -       - ANG/DEG -
	 R(1,2)           =         2.881596	       1.524875
	 R(1,10)          =         2.914269	       1.542165
	 R(1,11)          =         2.089027	       1.105466
	 R(1,12)          =         2.161221	       1.143669
	 R(2,3)           =         2.768928	       1.465254
	 R(2,5)           =         2.848305	       1.507258
	 R(3,4)           =         2.960173	       1.566456
	 R(3,6)           =         2.143977	       1.134544
	 R(3,7)           =         2.139452	       1.132149
	 R(4,8)           =         2.604840	       1.378422
	 R(4,9)           =         2.405243	       1.272800
	 R(5,13)          =         2.959368	       1.566030
	 R(5,14)          =         2.127131	       1.125629
	 R(5,15)          =         2.126363	       1.125223
	 R(8,20)          =         1.955614	       1.034866
	 R(8,21)          =         1.939115	       1.026135
	 R(10,16)         =         2.131989	       1.128200
	 R(10,17)         =         2.137195	       1.130955
	 R(10,22)         =         2.082912	       1.102230
	 R(13,18)         =         2.107150	       1.115056
	 R(13,19)         =         2.105844	       1.114365
	 R(13,23)         =         2.117711	       1.120645
	 B(1,2,3)         =         1.956236	     112.084050
	 B(1,2,5)         =         2.012640	     115.315770
	 B(1,10,16)       =         1.914381	     109.685978
	 B(1,10,17)       =         1.930640	     110.617516
	 B(1,10,22)       =         1.933069	     110.756711
	 B(2,1,10)        =         1.980203	     113.457303
	 B(2,1,11)        =         1.866891	     106.964988
	 B(2,1,12)        =         1.940517	     111.183454
	 B(2,3,4)         =         1.957314	     112.145821
	 B(2,3,6)         =         1.931130	     110.645624
	 B(2,3,7)         =         1.934563	     110.842292
	 B(2,5,13)        =         1.951844	     111.832440
	 B(2,5,14)        =         1.909289	     109.394209
	 B(2,5,15)        =         1.918311	     109.911110
	 B(3,2,5)         =         2.019889	     115.731119
	 B(3,4,8)         =         1.972411	     113.010831
	 B(3,4,9)         =         2.182316	     125.037481
	 B(4,3,6)         =         1.916392	     109.801202
	 B(4,3,7)         =         1.864588	     106.833042
	 B(4,8,20)        =         2.120412	     121.490675
	 B(4,8,21)        =         2.037552	     116.743142
	 B(5,13,18)       =         1.930259	     110.595684
	 B(5,13,19)       =         1.924740	     110.279504
	 B(5,13,23)       =         1.930773	     110.625171
	 B(6,3,7)         =         1.856052	     106.343940
	 B(8,4,9)         =         2.123889	     121.689891
	 B(10,1,11)       =         1.873474	     107.342146
	 B(10,1,12)       =         1.918359	     109.913890
	 B(11,1,12)       =         1.879753	     107.701910
	 B(13,5,14)       =         1.941240	     111.224854
	 B(13,5,15)       =         1.894454	     108.544209
	 B(14,5,15)       =         1.845653	     105.748127
	 B(16,10,17)      =         1.899727	     108.846321
	 B(16,10,22)      =         1.897073	     108.694264
	 B(17,10,22)      =         1.888201	     108.185971
	 B(18,13,19)      =         1.889222	     108.244422
	 B(18,13,23)      =         1.914629	     109.700144
	 B(19,13,23)      =         1.872894	     107.308896
	 B(20,8,21)       =         2.074869	     118.881233
	*D(1,2,3,4)       =         1.811533	     103.793176
	 D(1,2,3,6)       =        -0.334683	     -19.175920
	 D(1,2,3,7)       =        -2.389358	    -136.900107
	*D(1,2,5,13)      =        -1.831831	    -104.956200
	 D(1,2,5,14)      =         0.326728	      18.720161
	 D(1,2,5,15)      =         2.345947	     134.412886
	 D(2,1,10,16)     =         0.919281	      52.670898
	 D(2,1,10,17)     =         3.015021	     172.747971
	 D(2,1,10,22)     =        -1.174699	     -67.305292
	*D(2,3,4,8)       =        -3.036388	    -173.972239
	 D(2,3,4,9)       =         0.206754	      11.846112
	 D(2,5,13,18)     =        -3.094684	    -177.312344
	 D(2,5,13,19)     =        -1.005588	     -57.615920
	 D(2,5,13,23)     =         1.063562	      60.937612
	 D(3,2,1,10)      =        -2.804566	    -160.689795
	 D(3,2,1,11)      =        -0.742111	     -42.519854
[...]
	 B(1,10,17)       =         1.933108	     110.758902
	 B(1,10,22)       =         1.938142	     111.047358
	 B(2,1,10)        =         1.977626	     113.309648
	 B(2,1,11)        =         1.883976	     107.943858
	 B(2,1,12)        =         1.932336	     110.714686
	 B(2,3,4)         =         2.019074	     115.684409
	 B(2,3,6)         =         1.924287	     110.253509
	 B(2,3,7)         =         1.926214	     110.363934
	 B(2,5,13)        =         2.010080	     115.169089
	 B(2,5,14)        =         1.881941	     107.827274
	 B(2,5,15)        =         1.899194	     108.815814
	 B(3,2,5)         =         2.084111	     119.410747
	 B(3,4,8)         =         1.992404	     114.156368
	 B(3,4,9)         =         2.165023	     124.046709
	 B(4,3,6)         =         1.886477	     108.087153
	 B(4,3,7)         =         1.850556	     106.029059
	 B(4,8,20)        =         2.129164	     121.992129
	 B(4,8,21)        =         2.054837	     117.733504
	 B(5,13,18)       =         1.926620	     110.387187
	 B(5,13,19)       =         1.931438	     110.663238
	 B(5,13,23)       =         1.929647	     110.560644
	 B(6,3,7)         =         1.848313	     105.900527
	 B(8,4,9)         =         2.123652	     121.676287
	 B(10,1,11)       =         1.900065	     108.865699
	 B(10,1,12)       =         1.901585	     108.952767
	 B(11,1,12)       =         1.864573	     106.832180
	 B(13,5,14)       =         1.912027	     109.551099
	 B(13,5,15)       =         1.902402	     108.999618
	 B(14,5,15)       =         1.851650	     106.091752
	 B(16,10,17)      =         1.906952	     109.260295
	 B(16,10,22)      =         1.887115	     108.123716
	 B(17,10,22)      =         1.881495	     107.801739
	 B(18,13,19)      =         1.908026	     109.321859
	 B(18,13,23)      =         1.898298	     108.764465
	 B(19,13,23)      =         1.868581	     107.061810
	 B(20,8,21)       =         2.054265	     117.700693
	*D(1,2,3,4)       =         1.811533	     103.793176
	 D(1,2,3,6)       =        -0.335253	     -19.208590
	 D(1,2,3,7)       =        -2.371083	    -135.853075
	*D(1,2,5,13)      =        -1.831831	    -104.956200
	 D(1,2,5,14)      =         0.308831	      17.694739
	 D(1,2,5,15)      =         2.309959	     132.350885
	 D(2,1,10,16)     =         0.970903	      55.628667
	 D(2,1,10,17)     =         3.078252	     176.370857
	 D(2,1,10,22)     =        -1.114940	     -63.881374
	*D(2,3,4,8)       =        -3.036388	    -173.972239
	 D(2,3,4,9)       =         0.174044	       9.971990
	 D(2,5,13,18)     =        -3.117959	    -178.645918
	 D(2,5,13,19)     =        -1.003338	     -57.487010
	 D(2,5,13,23)     =         1.063979	      60.961510
	 D(3,2,1,10)      =        -2.287620	    -131.070952
	 D(3,2,1,11)      =        -0.182079	     -10.432370
	 D(3,2,1,12)      =         1.853103	     106.174985
	 D(3,2,5,13)      =         1.571269	      90.027100
	 D(3,2,5,14)      =        -2.571253	    -147.321961
	 D(3,2,5,15)      =        -0.570126	     -32.665816
	*D(3,4,8,20)      =         0.364875	      20.905781
	 D(3,4,8,21)      =        -3.101678	    -177.713067
	 D(4,3,2,5)       =        -1.596490	     -91.472119
	*D(5,2,1,10)      =         1.118008	      64.057132
	 D(5,2,1,11)      =        -3.059637	    -175.304285
	 D(5,2,1,12)      =        -1.024455	     -58.696930
	 D(5,2,3,6)       =         2.539910	     145.526115
	 D(5,2,3,7)       =         0.504080	      28.881630
	 D(6,3,4,8)       =        -0.869793	     -49.835477
	 D(6,3,4,9)       =         2.340639	     134.108753
	 D(7,3,4,8)       =         1.105655	      63.349392
	 D(7,3,4,9)       =        -1.967097	    -112.706378
	 D(9,4,8,20)      =        -2.843739	    -162.934256
	 D(9,4,8,21)      =        -0.027107	      -1.553104
	 D(11,1,10,16)    =        -1.125503	     -64.486598
	 D(11,1,10,17)    =         0.981845	      56.255592
	 D(11,1,10,22)    =         3.071838	     176.003361
	 D(12,1,10,16)    =         3.130292	     179.352492
	 D(12,1,10,17)    =        -1.045545	     -59.905318
	 D(12,1,10,22)    =         1.044448	      59.842451
	 D(14,5,13,18)    =         1.040733	      59.629612
	 D(14,5,13,19)    =        -3.127830	    -179.211480
	 D(14,5,13,23)    =        -1.060514	     -60.762960
	 D(15,5,13,18)    =        -0.978279	     -56.051281
	 D(15,5,13,19)    =         1.136342	      65.107627
	 D(15,5,13,23)    =        -3.079526	    -176.443853
	 R(10,13)         =         6.698961	       3.544937

	Current energy   :      -421.6413102393

	Energy change for the previous step:
		Projected    :        -0.0000396287
		Actual       :        -0.0000119016

	Performing BFGS update.
	Previous computed or guess Hessian on step 1.
	Steps to be used in Hessian update: 7 6
	Taking RFO optimization step.
	Going to follow RFO solution 1.
	Using RFO vector 1.
	Norm of target step-size    0.02315
	Projected energy change by RFO approximation:        -0.0000015546

	Back-transformation to cartesian coordinates...
	Could not converge backtransformation.
	Using first guess instead.

	Back-transformation to cartesian coordinates to adjust frozen coordinates...
	Successfully converged to displaced geometry.

	--- Internal Coordinate Step in ANG or DEG, aJ/ANG or AJ/DEG ---
	 ---------------------------------------------------------------------------
	   Coordinate                Previous        Force       Change         New 
	   ----------                --------       ------       ------       ------
	    1 R(1,2)          =      1.454484    -0.000071     0.000012     1.454496
	    2 R(1,10)         =      1.530520    -0.000492    -0.000126     1.530395
	    3 R(1,11)         =      1.092061    -0.000180    -0.000031     1.092030
	    4 R(1,12)         =      1.102924     0.000110     0.000046     1.102970
	    5 R(2,3)          =      1.429181     0.000304     0.000159     1.429340
	    6 R(2,5)          =      1.456006    -0.000369    -0.000038     1.455968
	    7 R(3,4)          =      1.534125    -0.000944    -0.000157     1.533968
	    8 R(3,6)          =      1.097346    -0.000428    -0.000060     1.097286
	    9 R(3,7)          =      1.100047    -0.000252    -0.000060     1.099988
	   10 R(4,8)          =      1.369282     0.000887     0.000125     1.369407
	   11 R(4,9)          =      1.238120    -0.002652    -0.000160     1.237960
	   12 R(5,13)         =      1.531383    -0.000097    -0.000002     1.531381
	   13 R(5,14)         =      1.095941    -0.000049     0.000013     1.095954
	   14 R(5,15)         =      1.099304     0.000263     0.000037     1.099341
	   15 R(8,20)         =      1.003297    -0.000100    -0.000005     1.003293
	   16 R(8,21)         =      1.004691    -0.000344    -0.000037     1.004654
	   17 R(10,16)        =      1.090162     0.000249     0.000060     1.090222
	   18 R(10,17)        =      1.092733    -0.000199    -0.000037     1.092696
	   19 R(10,22)        =      1.091724    -0.000283    -0.000036     1.091688
	   20 R(13,18)        =      1.093894    -0.000186     0.000005     1.093899
	   21 R(13,19)        =      1.088342    -0.000689    -0.000095     1.088247
	   22 R(13,23)        =      1.090332    -0.000629    -0.000080     1.090253
	   23 B(1,2,3)        =    120.347565    -0.000008    -0.035812   120.311754
	   24 B(1,2,5)        =    118.497763     0.000001    -0.012032   118.485731
	   25 B(1,10,16)      =    109.778109     0.000004     0.020075   109.798184
	   26 B(1,10,17)      =    110.758902     0.000000    -0.001033   110.757869
	   27 B(1,10,22)      =    111.047358    -0.000000     0.002579   111.049937
	   28 B(2,1,10)       =    113.309648    -0.000003    -0.010271   113.299377
	   29 B(2,1,11)       =    107.943858    -0.000001    -0.005212   107.938646
	   30 B(2,1,12)       =    110.714686    -0.000001    -0.022187   110.692499
	   31 B(2,3,4)        =    115.684409    -0.000010    -0.021533   115.662877
	   32 B(2,3,6)        =    110.253509     0.000000     0.005104   110.258613
	   33 B(2,3,7)        =    110.363934     0.000001    -0.022429   110.341504
	   34 B(2,5,13)       =    115.169089     0.000005     0.032304   115.201393
	   35 B(2,5,14)       =    107.827274    -0.000001    -0.007243   107.820031
	   36 B(2,5,15)       =    108.815814     0.000002     0.023320   108.839134
	   37 B(3,2,5)        =    119.410747     0.000008     0.044797   119.455544
	   38 B(3,4,8)        =    114.156368    -0.000000    -0.001440   114.154928
	   39 B(3,4,9)        =    124.046709    -0.000001    -0.003457   124.043252
	   40 B(4,3,6)        =    108.087153     0.000005     0.030092   108.117245
	   41 B(4,3,7)        =    106.029059     0.000004    -0.008691   106.020369
	   42 B(4,8,20)       =    121.992129     0.000001     0.005435   121.997564
	   43 B(4,8,21)       =    117.733504    -0.000002    -0.008714   117.724790
	   44 B(5,13,18)      =    110.387187    -0.000002    -0.016758   110.370430
	   45 B(5,13,19)      =    110.663238     0.000004     0.023151   110.686389
	   46 B(5,13,23)      =    110.560644    -0.000001    -0.000043   110.560601
	   47 B(6,3,7)        =    105.900527     0.000001     0.021423   105.921950
	   48 B(8,4,9)        =    121.676287     0.000001    -0.002747   121.673540
	   49 B(10,1,11)      =    108.865699     0.000003     0.030272   108.895971
	   50 B(10,1,12)      =    108.952767     0.000004     0.012280   108.965047
	   51 B(11,1,12)      =    106.832180    -0.000001    -0.003811   106.828369
	   52 B(13,5,14)      =    109.551099    -0.000002    -0.018561   109.532538
	   53 B(13,5,15)      =    108.999618    -0.000004    -0.018203   108.981416
	   54 B(14,5,15)      =    106.091752    -0.000000    -0.015025   106.076727
	   55 B(16,10,17)     =    109.260295    -0.000003    -0.015580   109.244715
	   56 B(16,10,22)     =    108.123716    -0.000002    -0.015554   108.108162
	   57 B(17,10,22)     =    107.801739     0.000001     0.008518   107.810257
	   58 B(18,13,19)     =    109.321859    -0.000002    -0.017314   109.304545
	   59 B(18,13,23)     =    108.764465     0.000002     0.017668   108.782133
	   60 B(19,13,23)     =    107.061810    -0.000002    -0.006543   107.055267
	   61 B(20,8,21)      =    117.700693     0.000002     0.007906   117.708599
	   62 *D(1,2,3,4)     =    103.793176    -0.000000    -0.000000   103.793176
	   63 D(1,2,3,6)      =    -19.208590     0.000000    -0.028289   -19.236880
	   64 D(1,2,3,7)      =   -135.853075    -0.000000    -0.044123  -135.897198
	   65 *D(1,2,5,13)    =   -104.956200     0.000000    -0.000000  -104.956200
	   66 D(1,2,5,14)     =     17.694739    -0.000000    -0.007582    17.687157
	   67 D(1,2,5,15)     =    132.350885    -0.000000    -0.017098   132.333786
	   68 D(2,1,10,16)    =     55.628667     0.000000     0.128570    55.757237
	   69 D(2,1,10,17)    =    176.370857     0.000000     0.121604   176.492461
	   70 D(2,1,10,22)    =    -63.881374     0.000000     0.133320   -63.748054
	   71 *D(2,3,4,8)     =   -173.972239     0.000000    -0.000000  -173.972239
	   72 D(2,3,4,9)      =      9.971990     0.000001     0.122963    10.094953
	   73 D(2,5,13,18)    =   -178.645918    -0.000000    -0.414395  -179.060312
	   74 D(2,5,13,19)    =    -57.487010    -0.000001    -0.431986   -57.918996
	   75 D(2,5,13,23)    =     60.961510    -0.000001    -0.425524    60.535986
	   76 D(3,2,1,10)     =   -131.070952     0.000000    -0.006034  -131.076986
	   77 D(3,2,1,11)     =    -10.432370     0.000000     0.021975   -10.410395
	   78 D(3,2,1,12)     =    106.174985    -0.000000     0.002110   106.177095
	   79 D(3,2,5,13)     =     90.027100     0.000000     0.018356    90.045456
	   80 D(3,2,5,14)     =   -147.321961     0.000000     0.010774  -147.311187
	   81 D(3,2,5,15)     =    -32.665816     0.000000     0.001258   -32.664558
	   82 *D(3,4,8,20)    =     20.905781    -0.000000    -0.000000    20.905781
	   83 D(3,4,8,21)     =   -177.713067     0.000000     0.017590  -177.695477
	   84 D(4,3,2,5)      =    -91.472119     0.000000    -0.014778   -91.486897
	   85 *D(5,2,1,10)    =     64.057132     0.000000     0.000000    64.057132
	   86 D(5,2,1,11)     =   -175.304285     0.000000     0.028009  -175.276277
	   87 D(5,2,1,12)     =    -58.696930    -0.000000     0.008144   -58.688786
	   88 D(5,2,3,6)      =    145.526115     0.000000    -0.043068   145.483047
	   89 D(5,2,3,7)      =     28.881630    -0.000000    -0.058901    28.822729
	   90 D(6,3,4,8)      =    -49.835477    -0.000001     0.015378   -49.820098
	   91 D(6,3,4,9)      =    134.108753     0.000000     0.138341   134.247094
	   92 D(7,3,4,8)      =     63.349392     0.000001     0.049373    63.398765
	   93 D(7,3,4,9)      =   -112.706378     0.000001     0.172336  -112.534042
	   94 D(9,4,8,20)     =   -162.934256    -0.000001    -0.119749  -163.054004
	   95 D(9,4,8,21)     =     -1.553104    -0.000001    -0.102159    -1.655263
	   96 D(11,1,10,16)   =    -64.486598     0.000000     0.120713   -64.365885
	   97 D(11,1,10,17)   =     56.255592     0.000000     0.113747    56.369339
	   98 D(11,1,10,22)   =    176.003361     0.000000     0.125463   176.128824
	   99 D(12,1,10,16)   =    179.352492    -0.000000     0.101827   179.454319
	  100 D(12,1,10,17)   =    -59.905318    -0.000000     0.094861   -59.810457
	  101 D(12,1,10,22)   =     59.842451    -0.000000     0.106577    59.949028
	  102 D(14,5,13,18)   =     59.629612    -0.000000    -0.413426    59.216186
	  103 D(14,5,13,19)   =   -179.211480    -0.000001    -0.431017  -179.642497
	  104 D(14,5,13,23)   =    -60.762960    -0.000001    -0.424556   -61.187515
	  105 D(15,5,13,18)   =    -56.051281     0.000000    -0.375023   -56.426304
	  106 D(15,5,13,19)   =     65.107627     0.000000    -0.392615    64.715012
	  107 D(15,5,13,23)   =   -176.443853     0.000000    -0.386153  -176.830006
	  108 R(10,13)        =      3.544937    -0.000349    -0.000068     3.544869
	 ---------------------------------------------------------------------------
	Successfully symmetrized geometry.

  ==> Convergence Check <==

  Measures of convergence in internal coordinates in au.
  Criteria marked as inactive (o), active & met (*), and active & unmet ( ).
  ---------------------------------------------------------------------------------------------
   Step     Total Energy     Delta E     MAX Force     RMS Force      MAX Disp      RMS Disp   
  ---------------------------------------------------------------------------------------------
    Convergence Criteria             o    2.50e-03 *    1.70e-03 *    1.00e-02 *    6.70e-03 *
  ---------------------------------------------------------------------------------------------
      8    -421.64131024   -1.19e-05 o    3.22e-04 *    4.90e-05 *    7.54e-03 *    2.23e-03 *  ~
  ---------------------------------------------------------------------------------------------


  **** Optimization is complete! (in 8 steps) ****

  ==> Optimization Summary <==

  Measures of convergence in internal coordinates in au.
  --------------------------------------------------------------------------------------------------------------- ~
   Step         Total Energy             Delta E       MAX Force       RMS Force        MAX Disp        RMS Disp  ~
  --------------------------------------------------------------------------------------------------------------- ~
      1    -421.637195804834   -421.637195804834      0.01702510      0.00338923      0.11438084      0.01923352  ~
      2    -421.639494246216     -0.002298441382      0.00313067      0.00065290      0.08236279      0.01923099  ~
      3    -421.640245213006     -0.000750966790      0.00150031      0.00044060      0.06868352      0.01923467  ~
      4    -421.640714422024     -0.000469209018      0.00127687      0.00030233      0.07155473      0.01923659  ~
      5    -421.641048411444     -0.000333989421      0.00086195      0.00025062      0.06841613      0.01923810  ~
      6    -421.641259846417     -0.000211434973      0.00042083      0.00012682      0.04522121      0.01310844  ~
      7    -421.641298337647     -0.000038491230      0.00056929      0.00015630      0.01466701      0.00338585  ~
      8    -421.641310239273     -0.000011901626      0.00032195      0.00004901      0.00753958      0.00222803  ~
  --------------------------------------------------------------------------------------------------------------- ~

	Writing optimization data to binary file.
	Final energy is   -421.6413102392733
	Final (previous) structure:
	Cartesian Geometry (in Angstrom)
	    C     0.7527225755   0.3296065415  -1.8874334817
	    N     0.2105424549   0.6761217466  -0.5830214017
	    C    -1.1502754199   0.3776515151  -0.2641976111
	    C    -1.3679192294  -0.8291177928   0.6576915706
	    C     0.9518705555   1.6111107058   0.2513543961
	    H    -1.7283669422   0.2135847477  -1.1823809715
	    H    -1.6220121427   1.2340288785   0.2399715615
	    N    -2.6826620971  -1.1664768365   0.8381748835
	    O    -0.4578129041  -1.4159314383   1.2579399039
	    C     2.0910932219  -0.4088401661  -1.8102752946
	    H     0.0261764867  -0.3083581573  -2.3951043423
	    H     0.8764605983   1.2312155948  -2.5105163563
	    C     1.7023351585   0.9804005765   1.4278502998
	    H     1.6605056531   2.1454886850  -0.3915792161
	    H     0.2568255013   2.3709056675   0.6361821520
	    H     1.9867868802  -1.2973560363  -1.1872878416
	    H     2.4281486313  -0.7048049943  -2.8067005402
	    H     2.2101737544   1.7521199182   2.0136432585
	    H     1.0166425530   0.4326260557   2.0714787926
	    H    -3.3969953552  -0.8857674433   0.1920045531
	    H    -2.8888147061  -1.9278105005   1.4604899735
	    H     2.8638865643   0.2250310005  -1.3711171653
	    H     2.4446137953   0.2663933486   1.0700222736
	Saving final (previous) structure.
	Cleaning optimization helper files.
			--------------------------
			 OPTKING Finished Execution 
			--------------------------

    Final optimized geometry and variables:
    Molecular point group: c1
    Full point group: C1

    Geometry (in Angstrom), charge = 0, multiplicity = 1:

    C            0.752722578453     0.329606542799    -1.887433489162
    N            0.210542455752     0.676121749211    -0.583021404034
    C           -1.150275424413     0.377651516611    -0.264197612135
    C           -1.367919234737    -0.829117796073     0.657691573231
    C            0.951870559207     1.611110712125     0.251354397134
    H           -1.728366948954     0.213584748572    -1.182380976142
    H           -1.622012149091     1.234028883382     0.239971562471
    N           -2.682662107609    -1.166476841068     0.838174886764
    O           -0.457812905905    -1.415931443822     1.257939908877
    C            2.091093230129    -0.408840167733    -1.810275301678
    H            0.026176486833    -0.308358158556    -2.395104351758
    H            0.876460601697     1.231215599635    -2.510516366214
    C            1.702335165209     0.980400580363     1.427850305388
    H            1.660505659592     2.145488693462    -0.391579217682
    H            0.256825502267     2.370905676776     0.636182154544
    H            1.986786887996    -1.297356041379    -1.187287846240
    H            2.428148640819    -0.704804997109    -2.806700551221
    H            2.210173763054     1.752119925049     2.013643266367
    H            1.016642556982     0.432626057392     2.071478800791
    H           -3.396995368584    -0.885767446805     0.192004553886
    H           -2.888814717447    -1.927810508028     1.460489979272
    H            2.863886575563     0.225031001365    -1.371117170662
    H            2.444613804948     0.266393349618     1.070022277814

	Removing binary optimization data file.
	Cleaning optimization helper files.

    Psi4 stopped on: Wednesday, 08 June 2022 12:51PM
    Psi4 wall time for execution: 0:12:50.14

*** Psi4 exiting successfully. Buy a developer a beer!
