
    -----------------------------------------------------------------------
          Psi4: An Open-Source Ab Initio Electronic Structure Package
                               Psi4 1.5 release

                         Git: Rev {HEAD} e9f4d6d 


    D. G. A. Smith, L. A. Burns, A. C. Simmonett, R. M. Parrish,
    M. C. Schieber, R. Galvelis, P. Kraus, H. Kruse, R. Di Remigio,
    A. Alenaizan, A. M. James, S. Lehtola, J. P. Misiewicz, M. Scheurer,
    R. A. Shaw, J. B. Schriber, Y. Xie, Z. L. Glick, D. A. Sirianni,
    J. S. O'Brien, J. M. Waldrop, A. Kumar, E. G. Hohenstein,
    B. P. Pritchard, B. R. Brooks, H. F. Schaefer III, A. Yu. Sokolov,
    K. Patkowski, A. E. DePrince III, U. Bozkaya, R. A. King,
    F. A. Evangelista, J. M. Turney, T. D. Crawford, C. D. Sherrill,
    J. Chem. Phys. 152(18) 184108 (2020). https://doi.org/10.1063/5.0006002

                            Additional Code Authors
    E. T. Seidl, C. L. Janssen, E. F. Valeev, M. L. Leininger,
    J. F. Gonthier, R. M. Richard, H. R. McAlexander, M. Saitow, X. Wang,
    P. Verma, M. H. Lechner, and A. Jiang

             Previous Authors, Complete List of Code Contributors,
                       and Citations for Specific Modules
    https://github.com/psi4/psi4/blob/master/codemeta.json
    https://github.com/psi4/psi4/graphs/contributors
    http://psicode.org/psi4manual/master/introduction.html#citing-psifour

    -----------------------------------------------------------------------


    Psi4 started on: Wednesday, 08 June 2022 01:03PM

    Process ID: 1113340
    Host:       node74.bme.utexas.edu
    PSIDATADIR: /home/bdw2292/miniconda3/envs/newamoebamdpoltype/share/psi4
    Memory:     500.0 MiB
    Threads:    1
    
  ==> Input File <==

--------------------------------------------------------------------------
molecule { 
0 1
 C    1.256282   -0.725091   -0.932691
 N    0.519912    0.142581    0.043624
 C   -0.937729    0.233207   -0.242446
 C   -1.738917   -1.056012   -0.594148
 C    1.123638    1.497123    0.243622
 H   -1.100977    0.948978   -1.069438
 H   -1.440506    0.683562    0.632212
 N   -3.035985   -0.800547   -0.963617
 O   -1.323319   -2.208281   -0.460493
 C    2.682834   -1.073896   -0.463153
 H    0.707979   -1.670285   -1.046717
 H    1.261865   -0.244513   -1.925777
 C    1.859163    1.583820    1.590977
 H    1.801774    1.735480   -0.592578
 H    0.344266    2.276813    0.204884
 H    2.665639   -1.517462    0.533987
 H    3.139692   -1.797801   -1.140123
 H    2.303006    2.571334    1.725921
 H    1.172527    1.407899    2.420696
 H   -3.296358    0.114319   -1.289653
 H   -3.600108   -1.587864   -1.236504
 H    3.327019   -0.194360   -0.442173
 H    2.659707    0.846304    1.655257
}
set optking { 
  frozen_dihedral = ("
    1 2 3 4
    10 1 2 5
    13 5 2 1
    2 3 4 8
    3 4 8 20
  ")
}
set {
  geom_maxiter 400
  g_convergence GAU_LOOSE
  dynamic_level 1
}
memory 8.166666666666666GB
set_num_threads(2)
psi4_io.set_default_path("/scratch/bdw2292/Psi4-4_27_Index_0-farH_in17")
for _ in range(1):
  try:
    set opt_coordinates both
    optimize('wb97x-d/6-311G')
    break
  except OptimizationConvergenceError:
    break
  else:
    try:
      set opt_coordinates cartesian
      optimize('wb97x-d/6-311G')
      break
    except OptimizationConvergenceError:
      pass
clean()
--------------------------------------------------------------------------

  Memory set to   7.606 GiB by Python driver.
  Threads set to 2 by Python driver.

Scratch directory: /scratch/bdw2292/Psi4-4_27_Index_0-farH_in17/

Scratch directory: /scratch/bdw2292/Psi4-4_27_Index_0-farH_in17/
gradient() will perform analytic gradient computation.

*** tstart() called on node74.bme.utexas.edu
*** at Wed Jun  8 13:03:41 2022

   => Loading Basis Set <=

    Name: 6-311G
    Role: ORBITAL
    Keyword: BASIS
    atoms 1, 3-5, 10, 13    entry C          line    92 file /home/bdw2292/miniconda3/envs/newamoebamdpoltype/share/psi4/basis/6-311g.gbs 
    atoms 2, 8              entry N          line   109 file /home/bdw2292/miniconda3/envs/newamoebamdpoltype/share/psi4/basis/6-311g.gbs 
    atoms 6-7, 11-12, 14-23 entry H          line    21 file /home/bdw2292/miniconda3/envs/newamoebamdpoltype/share/psi4/basis/6-311g.gbs 
    atoms 9                 entry O          line   126 file /home/bdw2292/miniconda3/envs/newamoebamdpoltype/share/psi4/basis/6-311g.gbs 

   => WB97X-D: Empirical Dispersion <=

    Chai and Head-Gordon Dispersion Correction
    Chai, J.-D.; Head-Gordon, M. (2010), J. Chem. Phys., 132: 6615-6620

        s6 =       1.000000


         ---------------------------------------------------------
                                   SCF
               by Justin Turney, Rob Parrish, Andy Simmonett
                          and Daniel G. A. Smith
                              RKS Reference
                        2 Threads,   7788 MiB Core
         ---------------------------------------------------------

  ==> Geometry <==

    Molecular point group: c1
    Full point group: C1

    Geometry (in Angstrom), charge = 0, multiplicity = 1:

       Center              X                  Y                   Z               Mass       
    ------------   -----------------  -----------------  -----------------  -----------------
         C            1.221177483108    -0.452825412847    -0.728213940072    12.000000000000
         N            0.484807483108     0.414846587153     0.248101059928    14.003074004430
         C           -0.972833516892     0.505472587153    -0.037968940072    12.000000000000
         C           -1.774021516892    -0.783746412847    -0.389670940072    12.000000000000
         C            1.088533483108     1.769388587153     0.448099059928    12.000000000000
         H           -1.136081516892     1.221243587153    -0.864960940072     1.007825032230
         H           -1.475610516892     0.955827587153     0.836689059928     1.007825032230
         N           -3.071089516892    -0.528281412847    -0.759139940072    14.003074004430
         O           -1.358423516892    -1.936015412847    -0.256015940072    15.994914619570
         C            2.647729483108    -0.801630412847    -0.258675940072    12.000000000000
         H            0.672874483108    -1.398019412847    -0.842239940072     1.007825032230
         H            1.226760483108     0.027752587153    -1.721299940072     1.007825032230
         C            1.824058483108     1.856085587153     1.795454059928    12.000000000000
         H            1.766669483108     2.007745587153    -0.388100940072     1.007825032230
         H            0.309161483108     2.549078587153     0.409361059928     1.007825032230
         H            2.630534483108    -1.245196412847     0.738464059928     1.007825032230
         H            3.104587483108    -1.525535412847    -0.935645940072     1.007825032230
         H            2.267901483108     2.843599587153     1.930398059928     1.007825032230
         H            1.137422483108     1.680164587153     2.625173059928     1.007825032230
         H           -3.331462516892     0.386584587153    -1.085175940072     1.007825032230
         H           -3.635212516892    -1.315598412847    -1.032026940072     1.007825032230
         H            3.291914483108     0.077905587153    -0.237695940072     1.007825032230
         H            2.624602483108     1.118569587153     1.859734059928     1.007825032230

  Running in c1 symmetry.

  Rotational constants: A =      0.08269  B =      0.03030  C =      0.02432 [cm^-1]
  Rotational constants: A =   2479.04043  B =    908.28152  C =    728.97244 [MHz]
  Nuclear repulsion =  475.912254720778776

  Charge       = 0
  Multiplicity = 1
  Electrons    = 72
  Nalpha       = 36
  Nbeta        = 36

  ==> Algorithm <==

  SCF Algorithm Type is DF.
  DIIS enabled.
  MOM disabled.
  Fractional occupation disabled.
  Guess Type is SAD.
  Energy threshold   = 1.00e-08
  Density threshold  = 1.00e-08
  Integral threshold = 1.00e-12

  ==> Primary Basis <==

  Basis Set: 6-311G
    Blend: 6-311G
    Number of shells: 105
    Number of basis functions: 159
    Number of Cartesian functions: 159
    Spherical Harmonics?: true
    Max angular momentum: 1

  ==> DFT Potential <==

   => LibXC <=

    Version 5.1.5
    S. Lehtola, C. Steigemann, M. J. Oliveira, and M. A. Marques, SoftwareX 7, 1 (2018) (10.1016/j.softx.2017.11.002)

   => Composite Functional: WB97X-D <= 

    wB97X-D Hyb-GGA Exchange-Correlation Functional

    J.-D. Chai and M. Head-Gordon, Phys. Chem. Chem. Phys. 10, 6615 (2008) (10.1039/B810189B)

    Deriv               =              1
    GGA                 =           TRUE
    Meta                =          FALSE

    Exchange Hybrid     =           TRUE
    MP2 Hybrid          =          FALSE

   => Exchange-Correlation Functionals <=

    1.0000   wB97X-D range-separated functional

   => Exact (HF) Exchange <=

    0.7780            HF,LR [omega = 0.2000]
    0.2220               HF 

   => LibXC Density Thresholds  <==

    XC_HYB_GGA_XC_WB97X_D:  1.00E-14 

   => Molecular Quadrature <=

    Radial Scheme          =       TREUTLER
    Pruning Scheme         =           NONE
    Nuclear Scheme         =       TREUTLER

    BS radius alpha        =              1
    Pruning alpha          =              1
    Radial Points          =             75
    Spherical Points       =            302
    Total Points           =         482201
    Total Blocks           =           3517
    Max Points             =            256
    Max Functions          =            135
    Weights Tolerance      =       1.00E-15

   => Loading Basis Set <=

    Name: (6-311G AUX)
    Role: JKFIT
    Keyword: DF_BASIS_SCF
    atoms 1, 3-5, 10, 13    entry C          line   125 file /home/bdw2292/miniconda3/envs/newamoebamdpoltype/share/psi4/basis/cc-pvtz-jkfit.gbs 
    atoms 2, 8              entry N          line   177 file /home/bdw2292/miniconda3/envs/newamoebamdpoltype/share/psi4/basis/cc-pvtz-jkfit.gbs 
    atoms 6-7, 11-12, 14-23 entry H          line    51 file /home/bdw2292/miniconda3/envs/newamoebamdpoltype/share/psi4/basis/cc-pvtz-jkfit.gbs 
    atoms 9                 entry O          line   229 file /home/bdw2292/miniconda3/envs/newamoebamdpoltype/share/psi4/basis/cc-pvtz-jkfit.gbs 

  ==> Integral Setup <==

  DFHelper Memory: AOs need 0.582 GiB; user supplied 4.312 GiB. Using in-core AOs.

  ==> MemDFJK: Density-Fitted J/K Matrices <==

    J tasked:                   Yes
    K tasked:                   Yes
    wK tasked:                  Yes
    Omega:                2.000E-01
    OpenMP threads:               2
    Memory [MiB]:              4415
    Algorithm:                 Core
    Schwarz Cutoff:           1E-12
    Mask sparsity (%):      11.3366
    Fitting Condition:        1E-10

   => Auxiliary Basis Set <=

  Basis Set: (6-311G AUX)
    Blend: CC-PVTZ-JKFIT
    Number of shells: 365
    Number of basis functions: 1131
    Number of Cartesian functions: 1354
    Spherical Harmonics?: true
    Max angular momentum: 4

  Cached 100.0% of DFT collocation blocks in 1.392 [GiB].

  Minimum eigenvalue in the overlap matrix is 2.8536769378E-03.
  Reciprocal condition number of the overlap matrix is 3.8999556841E-04.
    Using symmetric orthogonalization.

  ==> Pre-Iterations <==

  SCF Guess: Superposition of Atomic Densities via on-the-fly atomic UHF (no occupation information).

   -------------------------
    Irrep   Nso     Nmo    
   -------------------------
     A        159     159 
   -------------------------
    Total     159     159
   -------------------------

  ==> Iterations <==

                           Total Energy        Delta E     RMS |[F,P]|

   @DF-RKS iter SAD:  -420.67709215028520   -4.20677e+02   0.00000e+00 
   @DF-RKS iter   1:  -421.14289942851792   -4.65807e-01   6.44374e-03 DIIS
   @DF-RKS iter   2:  -421.20962647747120   -6.67270e-02   6.44718e-03 DIIS
   @DF-RKS iter   3:  -421.61246529001517   -4.02839e-01   1.41990e-03 DIIS
   @DF-RKS iter   4:  -421.63083643576306   -1.83711e-02   3.19966e-04 DIIS
   @DF-RKS iter   5:  -421.63183014310061   -9.93707e-04   1.16667e-04 DIIS
   @DF-RKS iter   6:  -421.63198194253840   -1.51799e-04   2.41572e-05 DIIS
   @DF-RKS iter   7:  -421.63199008021508   -8.13768e-06   6.98243e-06 DIIS
   @DF-RKS iter   8:  -421.63199086029630   -7.80081e-07   2.32788e-06 DIIS
   @DF-RKS iter   9:  -421.63199098217234   -1.21876e-07   1.11078e-06 DIIS
   @DF-RKS iter  10:  -421.63199100406314   -2.18908e-08   2.37747e-07 DIIS
   @DF-RKS iter  11:  -421.63199100613377   -2.07064e-09   5.78891e-08 DIIS
   @DF-RKS iter  12:  -421.63199100628361   -1.49839e-10   2.64995e-08 DIIS
   @DF-RKS iter  13:  -421.63199100629953   -1.59162e-11   6.63784e-09 DIIS
  Energy and wave function converged.


  ==> Post-Iterations <==

   Electrons on quadrature grid:
      Ntotal   =   72.0002042677 ; deviation = 2.043e-04 

    Orbital Energies [Eh]
    ---------------------

    Doubly Occupied:                                                      

       1A    -19.221862     2A    -14.462089     3A    -14.425691  
       4A    -10.413471     5A    -10.333011     6A    -10.312740  
       7A    -10.296552     8A    -10.265049     9A    -10.262702  
      10A     -1.161253    11A     -1.022306    12A     -1.011004  
      13A     -0.854946    14A     -0.850487    15A     -0.789698  
      16A     -0.720616    17A     -0.695768    18A     -0.666731  
      19A     -0.634861    20A     -0.577571    21A     -0.564079  
      22A     -0.559156    23A     -0.528885    24A     -0.525248  
      25A     -0.498561    26A     -0.492317    27A     -0.476748  
      28A     -0.462904    29A     -0.454184    30A     -0.440450  
      31A     -0.434064    32A     -0.418506    33A     -0.408703  
      34A     -0.358935    35A     -0.338342    36A     -0.281090  

    Virtual:                                                              

      37A      0.081389    38A      0.104067    39A      0.126198  
      40A      0.141377    41A      0.149149    42A      0.164273  
      43A      0.173736    44A      0.183841    45A      0.193255  
      46A      0.202538    47A      0.212141    48A      0.214611  
      49A      0.227188    50A      0.234326    51A      0.241539  
      52A      0.250519    53A      0.280244    54A      0.298926  
      55A      0.301933    56A      0.310508    57A      0.330778  
      58A      0.376532    59A      0.379110    60A      0.395004  
      61A      0.412901    62A      0.417467    63A      0.429214  
      64A      0.442312    65A      0.454122    66A      0.475035  
      67A      0.504818    68A      0.514934    69A      0.527859  
      70A      0.544471    71A      0.565539    72A      0.568248  
      73A      0.582694    74A      0.602018    75A      0.608975  
      76A      0.628630    77A      0.656941    78A      0.661118  
      79A      0.663625    80A      0.674735    81A      0.679535  
      82A      0.687426    83A      0.694423    84A      0.697281  
      85A      0.706952    86A      0.710080    87A      0.720852  
      88A      0.725109    89A      0.731606    90A      0.748858  
      91A      0.760789    92A      0.798597    93A      0.804616  
      94A      0.829576    95A      0.865034    96A      0.898247  
      97A      0.949531    98A      0.958940    99A      1.013761  
     100A      1.052834   101A      1.085131   102A      1.097025  
     103A      1.124402   104A      1.151436   105A      1.202647  
     106A      1.228524   107A      1.364027   108A      1.532947  
     109A      1.732653   110A      2.243360   111A      2.332439  
     112A      2.339618   113A      2.349633   114A      2.358610  
     115A      2.366606   116A      2.371926   117A      2.388028  
     118A      2.401317   119A      2.411494   120A      2.412287  
     121A      2.423967   122A      2.441243   123A      2.465712  
     124A      2.671938   125A      2.847529   126A      2.887802  
     127A      2.925537   128A      2.938514   129A      2.951166  
     130A      2.965987   131A      2.967835   132A      3.003956  
     133A      3.033957   134A      3.050316   135A      3.066227  
     136A      3.113089   137A      3.154070   138A      3.158896  
     139A      3.176061   140A      3.224252   141A      3.300309  
     142A      3.777216   143A      3.983496   144A      4.034311  
     145A      4.141933   146A      4.170048   147A      4.191466  
     148A      4.987192   149A      5.059795   150A      5.111365  
     151A     23.439826   152A     23.493635   153A     23.538677  
     154A     23.605855   155A     23.660304   156A     23.692290  
     157A     35.473841   158A     35.575067   159A     50.047624  

    Final Occupation by Irrep:
              A 
    DOCC [    36 ]

  @DF-RKS Final Energy:  -421.63199100629953

   => Energetics <=

    Nuclear Repulsion Energy =            475.9122547207787761
    One-Electron Energy =               -1514.7003411249061173
    Two-Electron Energy =                 658.4145847909992426
    DFT Exchange-Correlation Energy =     -41.2440004773421123
    Empirical Dispersion Energy =          -0.0144889158292001
    VV10 Nonlocal Energy =                  0.0000000000000000
    Total Energy =                       -421.6319910062994722

Computation Completed


Properties will be evaluated at   0.000000,   0.000000,   0.000000 [a0]

Properties computed using the SCF density matrix

  Nuclear Dipole Moment: [e a0]
     X:     8.8639      Y:     6.9134      Z:     1.2121

  Electronic Dipole Moment: [e a0]
     X:    -9.6704      Y:    -5.5930      Z:    -1.9442

  Dipole Moment: [e a0]
     X:    -0.8065      Y:     1.3204      Z:    -0.7321     Total:     1.7117

  Dipole Moment: [D]
     X:    -2.0499      Y:     3.3562      Z:    -1.8609     Total:     4.3508


*** tstop() called on node74.bme.utexas.edu at Wed Jun  8 13:04:16 2022
Module time:
	user time   =      64.07 seconds =       1.07 minutes
	system time =       4.07 seconds =       0.07 minutes
	total time  =         35 seconds =       0.58 minutes
Total time:
	user time   =      64.07 seconds =       1.07 minutes
	system time =       4.07 seconds =       0.07 minutes
	total time  =         35 seconds =       0.58 minutes

*** tstart() called on node74.bme.utexas.edu
*** at Wed Jun  8 13:04:16 2022


         ------------------------------------------------------------
                                   SCF GRAD                          
                          Rob Parrish, Justin Turney,                
                       Andy Simmonett, and Alex Sokolov              
         ------------------------------------------------------------

  ==> Geometry <==

    Molecular point group: c1
    Full point group: C1

    Geometry (in Angstrom), charge = 0, multiplicity = 1:

       Center              X                  Y                   Z               Mass       
    ------------   -----------------  -----------------  -----------------  -----------------
         C            1.221177483108    -0.452825412847    -0.728213940072    12.000000000000
         N            0.484807483108     0.414846587153     0.248101059928    14.003074004430
         C           -0.972833516892     0.505472587153    -0.037968940072    12.000000000000
         C           -1.774021516892    -0.783746412847    -0.389670940072    12.000000000000
         C            1.088533483108     1.769388587153     0.448099059928    12.000000000000
         H           -1.136081516892     1.221243587153    -0.864960940072     1.007825032230
         H           -1.475610516892     0.955827587153     0.836689059928     1.007825032230
         N           -3.071089516892    -0.528281412847    -0.759139940072    14.003074004430
         O           -1.358423516892    -1.936015412847    -0.256015940072    15.994914619570
         C            2.647729483108    -0.801630412847    -0.258675940072    12.000000000000
         H            0.672874483108    -1.398019412847    -0.842239940072     1.007825032230
         H            1.226760483108     0.027752587153    -1.721299940072     1.007825032230
         C            1.824058483108     1.856085587153     1.795454059928    12.000000000000
         H            1.766669483108     2.007745587153    -0.388100940072     1.007825032230
         H            0.309161483108     2.549078587153     0.409361059928     1.007825032230
         H            2.630534483108    -1.245196412847     0.738464059928     1.007825032230
         H            3.104587483108    -1.525535412847    -0.935645940072     1.007825032230
         H            2.267901483108     2.843599587153     1.930398059928     1.007825032230
         H            1.137422483108     1.680164587153     2.625173059928     1.007825032230
         H           -3.331462516892     0.386584587153    -1.085175940072     1.007825032230
         H           -3.635212516892    -1.315598412847    -1.032026940072     1.007825032230
         H            3.291914483108     0.077905587153    -0.237695940072     1.007825032230
         H            2.624602483108     1.118569587153     1.859734059928     1.007825032230

  Nuclear repulsion =  475.912254720778776

  ==> Basis Set <==

  Basis Set: 6-311G
    Blend: 6-311G
    Number of shells: 105
    Number of basis functions: 159
    Number of Cartesian functions: 159
    Spherical Harmonics?: true
    Max angular momentum: 1

  ==> DFJKGrad: Density-Fitted SCF Gradients <==

    Gradient:                    1
    J tasked:                  Yes
    K tasked:                  Yes
    wK tasked:                 Yes
    Omega:               2.000E-01
    OpenMP threads:              2
    Integrals threads:           2
    Memory [MiB]:             5841
    Schwarz Cutoff:          1E-12
    Fitting Condition:       1E-10

   => Auxiliary Basis Set <=

  Basis Set: (6-311G AUX)
    Blend: CC-PVTZ-JKFIT
    Number of shells: 365
    Number of basis functions: 1131
    Number of Cartesian functions: 1354
    Spherical Harmonics?: true
    Max angular momentum: 4

  ==> DFT Potential <==

   => LibXC <=

    Version 5.1.5
    S. Lehtola, C. Steigemann, M. J. Oliveira, and M. A. Marques, SoftwareX 7, 1 (2018) (10.1016/j.softx.2017.11.002)

   => Composite Functional: WB97X-D <= 

    wB97X-D Hyb-GGA Exchange-Correlation Functional

    J.-D. Chai and M. Head-Gordon, Phys. Chem. Chem. Phys. 10, 6615 (2008) (10.1039/B810189B)

    Deriv               =              1
    GGA                 =           TRUE
    Meta                =          FALSE

    Exchange Hybrid     =           TRUE
    MP2 Hybrid          =          FALSE

   => Exchange-Correlation Functionals <=

    1.0000   wB97X-D range-separated functional

   => Exact (HF) Exchange <=

    0.7780            HF,LR [omega = 0.2000]
    0.2220               HF 

   => LibXC Density Thresholds  <==

    XC_HYB_GGA_XC_WB97X_D:  1.00E-14 

   => Molecular Quadrature <=

    Radial Scheme          =       TREUTLER
    Pruning Scheme         =           NONE
    Nuclear Scheme         =       TREUTLER

    BS radius alpha        =              1
    Pruning alpha          =              1
    Radial Points          =             75
    Spherical Points       =            302
    Total Points           =         482201
    Total Blocks           =           3517
    Max Points             =            256
    Max Functions          =            135
    Weights Tolerance      =       1.00E-15


  -Total Gradient:
     Atom            X                  Y                   Z
    ------   -----------------  -----------------  -----------------
       1        0.002201376654     0.002607816395    -0.008597780578
       2        0.009807376318     0.009558189158     0.011459227984
       3       -0.002280238210    -0.003416540363     0.002300005657
       4       -0.006289164170    -0.015980083524    -0.015849447164
       5        0.001604923116     0.007515403885    -0.004054437109
       6        0.002555905506     0.000898706783     0.002678433741
       7       -0.004329109355     0.005272011108     0.004014654458
       8       -0.007930224796    -0.003237582056     0.008844251923
       9       -0.002839208310     0.007440653410     0.000359376628
      10        0.005763336626    -0.005228105089     0.003171080897
      11       -0.001337085750    -0.008591698968    -0.004554044563
      12       -0.004721311125    -0.001366871583     0.000603916109
      13        0.000503870357    -0.001911720495     0.004002221678
      14        0.000183934339     0.002821387173    -0.002613949220
      15       -0.001133681541     0.006078050935    -0.001301871837
      16        0.002693808507    -0.001501994923     0.000631600770
      17        0.001119150487    -0.000249737163     0.001552588546
      18       -0.000580094365    -0.002160092752     0.000314124865
      19        0.000875010715     0.001297415405     0.001953220735
      20        0.003290453586     0.001850879108    -0.003131952481
      21        0.000366468242    -0.001620765022    -0.001914174404
      22       -0.001176450952    -0.000824675828    -0.000994772038
      23        0.001599647001     0.000636997816     0.001008935346


*** tstop() called on node74.bme.utexas.edu at Wed Jun  8 13:04:30 2022
Module time:
	user time   =      27.52 seconds =       0.46 minutes
	system time =       0.46 seconds =       0.01 minutes
	total time  =         14 seconds =       0.23 minutes
Total time:
	user time   =      91.60 seconds =       1.53 minutes
	system time =       4.53 seconds =       0.08 minutes
	total time  =         49 seconds =       0.82 minutes

			-----------------------------------------
			 OPTKING 2.0: for geometry optimizations 
			  - R.A. King,  Bethel University        
			-----------------------------------------
	At level 1: Red. Int., RFO, no backsteps, dynamic trust

	Internal coordinates to be generated automatically.
	Detected frag 1 with atoms:  1 2 3 4 5 6 7 8 9 10 11 12 13 14 15 16 17 18 19 20
	 21 22 23
	---Fragment 1 Bond Connectivity---
	 1 : 2 10 11 12
	 2 : 1 3 5
	 3 : 2 4 6 7
	 4 : 3 8 9
	 5 : 2 13 14 15
	 6 : 3
	 7 : 3
	 8 : 4 20 21
	 9 : 4
	 10 : 1 16 17 22
	 11 : 1
	 12 : 1
	 13 : 5 18 19 23
	 14 : 5
	 15 : 5
	 16 : 10
	 17 : 10
	 18 : 13
	 19 : 13
	 20 : 8
	 21 : 8
	 22 : 10
	 23 : 13

	Assuming in current code that numbering for constraints corresponds to unified fragment.
	Frozen dihedral atom list: 
	     1     2     3     4
	    10     1     2     5
	    13     5     2     1
	     2     3     4     8
	     3     4     8    20
	---Fragment 1 Geometry and Gradient---
	 C           2.3076909937       -0.8557160129       -1.3761249075
	 N           0.9161533666        0.7839464338        0.4688430547
	 C          -1.8383889126        0.9552047536       -0.0717508980
	 C          -3.3524148076       -1.4810660721       -0.7363713558
	 C           2.0570301615        3.3436598392        0.8467845003
	 H          -2.1468829231        2.3078159122       -1.6345392860
	 H          -2.7884997448        1.8062523629        1.5811131754
	 N          -5.8035180937       -0.9983071875       -1.4345665776
	 O          -2.5670484093       -3.6585389049       -0.4838000105
	 C           5.0034835774       -1.5148619341       -0.4888266820
	 H           1.2715484899       -2.6418738084       -1.5916028187
	 H           2.3182413346        0.0524447890       -3.2527854665
	 C           3.4469709699        3.5074934251        3.3929164441
	 H           3.3385214773        3.7940892893       -0.7334044858
	 H           0.5842305316        4.8170604020        0.7735802897
	 H           4.9709897366       -2.3530801927        1.3954948268
	 H           5.8668200756       -2.8828441250       -1.7681145771
	 H           4.2857126826        5.3736244302        3.6479236464
	 H           2.1494169820        3.1750509154        4.9608581152
	 H          -6.2955517542        0.7305389940       -2.0506853247
	 H          -6.8695560648       -2.4861206914       -1.9502482708
	 H           6.2208168015        0.1472202234       -0.4491802279
	 H           4.9597798813        2.1137901720        3.5143880395
	             0.0022013767        0.0026078164       -0.0085977806
	             0.0098073763        0.0095581892        0.0114592280
	            -0.0022802382       -0.0034165404        0.0023000057
	            -0.0062891642       -0.0159800835       -0.0158494472
	             0.0016049231        0.0075154039       -0.0040544371
	             0.0025559055        0.0008987068        0.0026784337
	            -0.0043291094        0.0052720111        0.0040146545
	            -0.0079302248       -0.0032375821        0.0088442519
	            -0.0028392083        0.0074406534        0.0003593766
	             0.0057633366       -0.0052281051        0.0031710809
	            -0.0013370857       -0.0085916990       -0.0045540446
	            -0.0047213111       -0.0013668716        0.0006039161
	             0.0005038704       -0.0019117205        0.0040022217
	             0.0001839343        0.0028213872       -0.0026139492
	            -0.0011336815        0.0060780509       -0.0013018718
	             0.0026938085       -0.0015019949        0.0006316008
	             0.0011191505       -0.0002497372        0.0015525885
	            -0.0005800944       -0.0021600928        0.0003141249
	             0.0008750107        0.0012974154        0.0019532207
	             0.0032904536        0.0018508791       -0.0031319525
	             0.0003664682       -0.0016207650       -0.0019141744
	            -0.0011764510       -0.0008246758       -0.0009947720
	             0.0015996470        0.0006369978        0.0010089353

	Previous optimization step data not found.  Starting new optimization.

	---Fragment 1 Intrafragment Coordinates---
	 - Coordinate -           - BOHR/RAD -       - ANG/DEG -
	 R(1,2)           =         2.833510	       1.499429
	 R(1,10)          =         2.913601	       1.541811
	 R(1,11)          =         2.076146	       1.098649
	 R(1,12)          =         2.084879	       1.103271
	 R(2,3)           =         2.812308	       1.488209
	 R(2,5)           =         2.827821	       1.496418
	 R(3,4)           =         2.944386	       1.558102
	 R(3,6)           =         2.089745	       1.105845
	 R(3,7)           =         2.087810	       1.104822
	 R(4,8)           =         2.593924	       1.372645
	 R(4,9)           =         2.328515	       1.232197
	 R(5,13)          =         2.905437	       1.537491
	 R(5,14)          =         2.083772	       1.102684
	 R(5,15)          =         2.084564	       1.103104
	 R(8,20)          =         1.900160	       1.005521
	 R(8,21)          =         1.901566	       1.006265
	 R(10,16)         =         2.062604	       1.091483
	 R(10,17)         =         2.062354	       1.091351
	 R(10,22)         =         2.060580	       1.090412
	 R(13,18)         =         2.061786	       1.091050
	 R(13,19)         =         2.062185	       1.091261
	 R(13,23)         =         2.060523	       1.090382
	 B(1,2,3)         =         1.972612	     113.022319
	 B(1,2,5)         =         1.996207	     114.374234
	 B(1,10,16)       =         1.934326	     110.828709
	 B(1,10,17)       =         1.926744	     110.394305
	 B(1,10,22)       =         1.949793	     111.714897
	 B(2,1,10)        =         1.968182	     112.768523
	 B(2,1,11)        =         1.896871	     108.682716
	 B(2,1,12)        =         1.914012	     109.664810
	 B(2,3,4)         =         2.090529	     119.778503
	 B(2,3,6)         =         1.904727	     109.132795
	 B(2,3,7)         =         1.894808	     108.564490
	 B(2,5,13)        =         1.940320	     111.172171
	 B(2,5,14)        =         1.920297	     110.024940
	 B(2,5,15)        =         1.928433	     110.491076
	 B(3,2,5)         =         1.945212	     111.452453
	 B(3,4,8)         =         1.974317	     113.120044
	 B(3,4,9)         =         2.184427	     125.158464
	 B(4,3,6)         =         1.865910	     106.908787
	 B(4,3,7)         =         1.856653	     106.378374
	 B(4,8,20)        =         2.095890	     120.085637
	 B(4,8,21)        =         2.045553	     117.201529
	 B(5,13,18)       =         1.932680	     110.734423
	 B(5,13,19)       =         1.934996	     110.867095
	 B(5,13,23)       =         1.944162	     111.392260
	 B(6,3,7)         =         1.834877	     105.130715
	 B(8,4,9)         =         2.119928	     121.462924
	 B(10,1,11)       =         1.874166	     107.381778
	 B(10,1,12)       =         1.947637	     111.591394
	 B(11,1,12)       =         1.858609	     106.490432
	 B(13,5,14)       =         1.937089	     110.987043
	 B(13,5,15)       =         1.905951	     109.202962
	 B(14,5,15)       =         1.828735	     104.778809
	 B(16,10,17)      =         1.879392	     107.681251
	 B(16,10,22)      =         1.896026	     108.634268
	 B(17,10,22)      =         1.875133	     107.437203
	 B(18,13,19)      =         1.883715	     107.928945
	 B(18,13,23)      =         1.882033	     107.832552
	 B(19,13,23)      =         1.883990	     107.944661
	 B(20,8,21)       =         2.070057	     118.605513
	*D(1,2,3,4)       =         0.780720	      44.731976
	 D(1,2,3,6)       =        -1.376279	     -78.854985
	 D(1,2,3,7)       =         2.915889	     167.068157
	*D(1,2,5,13)      =        -1.831868	    -104.958310
	 D(1,2,5,14)      =         0.321244	      18.405918
	 D(1,2,5,15)      =         2.332156	     133.622676
	 D(2,1,10,16)     =         0.944678	      54.126035
	 D(2,1,10,17)     =         3.025420	     173.343801
	 D(2,1,10,22)     =        -1.172373	     -67.172044
	*D(2,3,4,8)       =        -3.033600	    -173.812463
	 D(2,3,4,9)       =         0.209154	      11.983653
	 D(2,5,13,18)     =         3.133851	     179.556428
	 D(2,5,13,19)     =        -1.058897	     -60.670339
	 D(2,5,13,23)     =         1.039493	      59.558550
	 D(3,2,1,10)      =        -2.916360	    -167.095125
	 D(3,2,1,11)      =        -0.840425	     -48.152782
	 D(3,2,1,12)      =         1.184904	      67.889994
	 D(3,2,5,13)      =         2.186860	     125.297865
	 D(3,2,5,14)      =        -1.943213	    -111.337908
	 D(3,2,5,15)      =         0.067699	       3.878851
	*D(3,4,8,20)      =         0.365112	      20.919395
	 D(3,4,8,21)      =         3.103704	     177.829146
	 D(4,3,2,5)       =         3.057478	     175.180606
	*D(5,2,1,10)      =         1.116030	      63.943806
	 D(5,2,1,11)      =        -3.091220	    -177.113851
	 D(5,2,1,12)      =        -1.065891	     -61.071075
	 D(5,2,3,6)       =         0.900479	      51.593645
	 D(5,2,3,7)       =        -1.090538	     -62.483213
	 D(6,3,4,8)       =        -0.857962	     -49.157609
	 D(6,3,4,9)       =         2.384792	     136.638507
	 D(7,3,4,8)       =         1.095829	      62.786369
	 D(7,3,4,9)       =        -1.944602	    -111.417515
	 D(9,4,8,20)      =        -2.873428	    -164.635294
	 D(9,4,8,21)      =        -0.134836	      -7.725543
	 D(11,1,10,16)    =        -1.144420	     -65.570418
	 D(11,1,10,17)    =         0.936323	      53.647348
	 D(11,1,10,22)    =         3.021715	     173.131503
	 D(12,1,10,16)    =         3.108172	     178.085110
	 D(12,1,10,17)    =        -1.094271	     -62.697124
	 D(12,1,10,22)    =         0.991121	      56.787031
	 D(14,5,13,18)    =         0.990377	      56.744438
	 D(14,5,13,19)    =         3.080815	     176.517672
	 D(14,5,13,23)    =        -1.103981	     -63.253440
	 D(15,5,13,18)    =        -1.017082	     -58.274485
	 D(15,5,13,19)    =         1.073356	      61.498748
	 D(15,5,13,23)    =        -3.111440	    -178.272364
	 R(1,9)           =         5.693430	       3.012833
	 R(10,13)         =         6.535650	       3.458517

	Current energy   :      -421.6319910063

	Generating empirical Hessian (Schlegel '84) for each fragment.
	Taking RFO optimization step.
	Going to follow RFO solution 1.
	Using RFO vector 1.
	Norm of target step-size    0.28433
	Projected energy change by RFO approximation:        -0.0022868350

	Back-transformation to cartesian coordinates...
	Successfully converged to displaced geometry.

	Back-transformation to cartesian coordinates to adjust frozen coordinates...
	Successfully converged to displaced geometry.

	--- Internal Coordinate Step in ANG or DEG, aJ/ANG or AJ/DEG ---
	 ---------------------------------------------------------------------------
	   Coordinate                Previous        Force       Change         New 
	   ----------                --------       ------       ------       ------
	    1 R(1,2)          =      1.499429    -0.101675    -0.020447     1.478982
	    2 R(1,10)         =      1.541811    -0.083922    -0.018624     1.523187
	    3 R(1,11)         =      1.098649    -0.070275    -0.011940     1.086709
	    4 R(1,12)         =      1.103271     0.009650     0.004008     1.107279
	    5 R(2,3)          =      1.488209    -0.117641    -0.023993     1.464217
	    6 R(2,5)          =      1.496418    -0.098076    -0.018947     1.477471
	    7 R(3,4)          =      1.558102    -0.132932    -0.032161     1.525941
	    8 R(3,6)          =      1.105845     0.014798     0.004913     1.110758
	    9 R(3,7)          =      1.104822    -0.060153    -0.009264     1.095557
	   10 R(4,8)          =      1.372645    -0.020212    -0.002122     1.370523
	   11 R(4,9)          =      1.232197     0.070506     0.007161     1.239358
	   12 R(5,13)         =      1.537491    -0.049009    -0.010404     1.527087
	   13 R(5,14)         =      1.102684    -0.022319    -0.002541     1.100143
	   14 R(5,15)         =      1.103104    -0.042370    -0.006469     1.096635
	   15 R(8,20)         =      1.005521    -0.015278    -0.000127     1.005395
	   16 R(8,21)         =      1.006265    -0.012956    -0.000927     1.005338
	   17 R(10,16)        =      1.091483    -0.009532     0.000432     1.091914
	   18 R(10,17)        =      1.091351     0.002766     0.002628     1.093979
	   19 R(10,22)        =      1.090412     0.011370     0.002997     1.093409
	   20 R(13,18)        =      1.091050     0.017655     0.004610     1.095660
	   21 R(13,19)        =      1.091261    -0.005953     0.000533     1.091794
	   22 R(13,23)        =      1.090382    -0.006589     0.000263     1.090645
	   23 B(1,2,3)        =    113.022319     0.000500     2.705503   115.727821
	   24 B(1,2,5)        =    114.374234    -0.000023     0.132152   114.506385
	   25 B(1,10,16)      =    110.828709    -0.000301    -1.473076   109.355633
	   26 B(1,10,17)      =    110.394305    -0.000150    -0.553670   109.840635
	   27 B(1,10,22)      =    111.714897     0.000163     0.766278   112.481176
	   28 B(2,1,10)       =    112.768523     0.000247    -0.443339   112.325184
	   29 B(2,1,11)       =    108.682716    -0.000335    -1.646826   107.035890
	   30 B(2,1,12)       =    109.664810     0.000125     0.956636   110.621446
	   31 B(2,3,4)        =    119.778503    -0.000128    -1.866042   117.912461
	   32 B(2,3,6)        =    109.132795     0.000218     2.039799   111.172594
	   33 B(2,3,7)        =    108.564490    -0.000014    -0.503241   108.061249
	   34 B(2,5,13)       =    111.172171     0.000624     1.332439   112.504610
	   35 B(2,5,14)       =    110.024940    -0.000205    -0.501819   109.523120
	   36 B(2,5,15)       =    110.491076    -0.000340    -1.668012   108.823064
	   37 B(3,2,5)        =    111.452453    -0.000411    -0.456843   110.995610
	   38 B(3,4,8)        =    113.120044    -0.000452    -1.092108   112.027936
	   39 B(3,4,9)        =    125.158464     0.000514     0.975504   126.133968
	   40 B(4,3,6)        =    106.908787    -0.000147    -0.330171   106.578617
	   41 B(4,3,7)        =    106.378374     0.000002    -0.459913   105.918461
	   42 B(4,8,20)       =    120.085637     0.000300     1.851002   121.936639
	   43 B(4,8,21)       =    117.201529    -0.000039     0.180400   117.381929
	   44 B(5,13,18)      =    110.734423     0.000017     0.319740   111.054164
	   45 B(5,13,19)      =    110.867095    -0.000206    -1.041168   109.825928
	   46 B(5,13,23)      =    111.392260    -0.000128    -0.686914   110.705347
	   47 B(6,3,7)        =    105.130715     0.000091     1.414650   106.545365
	   48 B(8,4,9)        =    121.462924    -0.000063     0.092134   121.555058
	   49 B(10,1,11)      =    107.381778     0.000146     1.167209   108.548987
	   50 B(10,1,12)      =    111.591394    -0.000363    -1.674171   109.917223
	   51 B(11,1,12)      =    106.490432     0.000174     1.757239   108.247671
	   52 B(13,5,14)      =    110.987043    -0.000132    -0.282279   110.704764
	   53 B(13,5,15)      =    109.202962    -0.000195    -0.185516   109.017446
	   54 B(14,5,15)      =    104.778809     0.000211     1.264140   106.042949
	   55 B(16,10,17)     =    107.681251     0.000217     0.857311   108.538562
	   56 B(16,10,22)     =    108.634268     0.000049     0.048323   108.682591
	   57 B(17,10,22)     =    107.437203     0.000039     0.416038   107.853241
	   58 B(18,13,19)     =    107.928945     0.000130     0.743244   108.672189
	   59 B(18,13,23)     =    107.832552     0.000105     0.807713   108.640265
	   60 B(19,13,23)     =    107.944661     0.000099    -0.085796   107.858865
	   61 B(20,8,21)      =    118.605513    -0.000193    -0.583065   118.022448
	   62 *D(1,2,3,4)     =     44.731976     0.000000    -0.000000    44.731976
	   63 D(1,2,3,6)      =    -78.854985     0.000025     0.120078   -78.734907
	   64 D(1,2,3,7)      =    167.068157    -0.000025    -2.388013   164.680145
	   65 *D(1,2,5,13)    =   -104.958310    -0.000000     0.000000  -104.958310
	   66 D(1,2,5,14)     =     18.405918     0.000027     0.204868    18.610785
	   67 D(1,2,5,15)     =    133.622676     0.000013     0.496854   134.119531
	   68 D(2,1,10,16)    =     54.126035    -0.000018     0.181875    54.307911
	   69 D(2,1,10,17)    =    173.343801    -0.000022    -0.022919   173.320882
	   70 D(2,1,10,22)    =    -67.172044    -0.000010     0.628765   -66.543278
	   71 *D(2,3,4,8)     =   -173.812463     0.000000    -0.000000  -173.812463
	   72 D(2,3,4,9)      =     11.983653     0.000004     0.277915    12.261569
	   73 D(2,5,13,18)    =    179.556428     0.000020     0.850646   180.407074
	   74 D(2,5,13,19)    =    -60.670339     0.000029     1.306395   -59.363944
	   75 D(2,5,13,23)    =     59.558550     0.000007     0.075453    59.634003
	   76 D(3,2,1,10)     =   -167.095125    -0.000033     2.092484  -165.002641
	   77 D(3,2,1,11)     =    -48.152782    -0.000007     2.195520   -45.957262
	   78 D(3,2,1,12)     =     67.889994     0.000013     3.877211    71.767205
	   79 D(3,2,5,13)     =    125.297865    -0.000071    -3.566432   121.731433
	   80 D(3,2,5,14)     =   -111.337908    -0.000044    -3.361564  -114.699472
	   81 D(3,2,5,15)     =      3.878851    -0.000058    -3.069577     0.809273
	   82 *D(3,4,8,20)    =     20.919395    -0.000000    -0.000000    20.919395
	   83 D(3,4,8,21)     =    177.829146     0.000031     4.232725   182.061872
	   84 D(4,3,2,5)      =    175.180606     0.000009     2.247634   177.428240
	   85 *D(5,2,1,10)    =     63.943806    -0.000000     0.000000    63.943806
	   86 D(5,2,1,11)     =   -177.113851     0.000026     0.103036  -177.010815
	   87 D(5,2,1,12)     =    -61.071075     0.000046     1.784727   -59.286348
	   88 D(5,2,3,6)      =     51.593645     0.000034     2.367712    53.961357
	   89 D(5,2,3,7)      =    -62.483213    -0.000015    -0.140378   -62.623591
	   90 D(6,3,4,8)      =    -49.157609     0.000016     1.089318   -48.068292
	   91 D(6,3,4,9)      =    136.638507     0.000020     1.367233   138.005740
	   92 D(7,3,4,8)      =     62.786369     0.000025     2.341614    65.127983
	   93 D(7,3,4,9)      =   -111.417515     0.000029     2.619529  -108.797985
	   94 D(9,4,8,20)     =   -164.635294     0.000005    -0.201066  -164.836359
	   95 D(9,4,8,21)     =     -7.725543     0.000036     4.031660    -3.693883
	   96 D(11,1,10,16)   =    -65.570418     0.000021     1.723601   -63.846817
	   97 D(11,1,10,17)   =     53.647348     0.000017     1.518807    55.166155
	   98 D(11,1,10,22)   =    173.131503     0.000030     2.170491   175.301994
	   99 D(12,1,10,16)   =    178.085110    -0.000001    -0.153030   177.932080
	  100 D(12,1,10,17)   =    -62.697124    -0.000006    -0.357824   -63.054948
	  101 D(12,1,10,22)   =     56.787031     0.000007     0.293860    57.080891
	  102 D(14,5,13,18)   =     56.744438     0.000001     0.753883    57.498321
	  103 D(14,5,13,19)   =    176.517672     0.000010     1.209632   177.727303
	  104 D(14,5,13,23)   =    -63.253440    -0.000013    -0.021310   -63.274750
	  105 D(15,5,13,18)   =    -58.274485    -0.000014    -0.507758   -58.782243
	  106 D(15,5,13,19)   =     61.498748    -0.000005    -0.052009    61.446739
	  107 D(15,5,13,23)   =   -178.272364    -0.000028    -1.282951  -179.555315
	  108 R(1,9)          =      3.012833    -0.029474    -0.034192     2.978642
	  109 R(10,13)        =      3.458517    -0.026888    -0.029484     3.429033
	 ---------------------------------------------------------------------------
	Successfully symmetrized geometry.

  ==> Convergence Check <==

  Measures of convergence in internal coordinates in au.
  Criteria marked as inactive (o), active & met (*), and active & unmet ( ).
  --------------------------------------------------------------------------------------------- ~
   Step     Total Energy     Delta E     MAX Force     RMS Force      MAX Disp      RMS Disp    ~
  --------------------------------------------------------------------------------------------- ~
    Convergence Criteria             o    2.50e-03 *    1.70e-03 *    1.00e-02 *    6.70e-03 *  ~
  --------------------------------------------------------------------------------------------- ~
      1    -421.63199101   -4.22e+02 o    1.61e-02      3.94e-03      7.39e-02      2.67e-02    ~
  ---------------------------------------------------------------------------------------------

	Writing optimization data to binary file.
	Structure for next step:
	Cartesian Geometry (in Angstrom)
	    C     1.2342724383  -0.4835740205  -0.7214243452
	    N     0.4875882622   0.4152453288   0.1852038494
	    C    -0.9470958533   0.5374434103  -0.0806516174
	    C    -1.7325893354  -0.7399458288  -0.3630913566
	    C     1.1054628342   1.7435468466   0.3769517507
	    H    -1.1402126380   1.2232183799  -0.9328264480
	    H    -1.4179159439   0.9915911067   0.7981682068
	    N    -3.0273408152  -0.4772084763  -0.7276759955
	    O    -1.3312263764  -1.8990084015  -0.1856378274
	    C     2.6102342726  -0.8429325101  -0.1758147486
	    H     0.6511963994  -1.3956396642  -0.8167892972
	    H     1.3338317950  -0.0290566930  -1.7261969088
	    C     1.7858241681   1.8808557617   1.7371908058
	    H     1.8200403442   1.9375523060  -0.4367163711
	    H     0.3280043327   2.5117220824   0.2870985156
	    H     2.5043642813  -1.2561080595   0.8293491293
	    H     3.0774465124  -1.5980236860  -0.8148289526
	    H     2.2290976641   2.8756604528   1.8569525301
	    H     1.0556279493   1.7253384465   2.5338352405
	    H    -3.3069957724   0.4187198473  -1.0881264092
	    H    -3.6274982567  -1.2646973636  -0.9019663121
	    H     3.2806254724   0.0196908077  -0.1310955834
	    H     2.5712583390   1.1330264021   1.8527335180
			--------------------------
			 OPTKING Finished Execution 
			--------------------------

    Structure for next step:
    Molecular point group: c1
    Full point group: C1

    Geometry (in Angstrom), charge = 0, multiplicity = 1:

    C            1.224678982437    -0.493201480042    -0.721672025766
    N            0.477994803392     0.405617872866     0.184956172359
    C           -0.956689317749     0.527815954765    -0.080899295443
    C           -1.742182802934    -0.749573289345    -0.363339035817
    C            1.095869377838     1.733919395823     0.376704074410
    H           -1.149806103258     1.213590927082    -0.933074129422
    H           -1.427509410241     0.981963653029     0.797920532155
    N           -3.036934287890    -0.486835935761    -0.727923676111
    O           -1.340819842399    -1.908635866532    -0.185885505941
    C            2.600640822100    -0.852559971049    -0.176062427076
    H            0.641602941239    -1.405267127344    -0.817036978207
    H            1.324238339448    -0.038684150744    -1.726444593375
    C            1.776230714403     1.871228311446     1.736943134862
    H            1.810446890602     1.927924855985    -0.436964050633
    H            0.318410873220     2.502094634664     0.286850838994
    H            2.494770830350    -1.265735522080     0.829101454797
    H            3.067853063769    -1.607651149880    -0.815076633610
    H            2.219504212108     2.866033006519     1.856704859638
    H            1.046034492738     1.715710995702     2.533587572680
    H           -3.316589246137     0.409092391318    -1.088374091288
    H           -3.637091731673    -1.274324826203    -0.902213993464
    H            3.271032024519     0.010063350195    -0.131343261730
    H            2.561664888395     1.123398948982     1.852485847507


Scratch directory: /scratch/bdw2292/Psi4-4_27_Index_0-farH_in17/

Scratch directory: /scratch/bdw2292/Psi4-4_27_Index_0-farH_in17/
gradient() will perform analytic gradient computation.

*** tstart() called on node74.bme.utexas.edu
*** at Wed Jun  8 13:04:30 2022

   => Loading Basis Set <=

    Name: 6-311G
    Role: ORBITAL
    Keyword: BASIS
    atoms 1, 3-5, 10, 13    entry C          line    92 file /home/bdw2292/miniconda3/envs/newamoebamdpoltype/share/psi4/basis/6-311g.gbs 
    atoms 2, 8              entry N          line   109 file /home/bdw2292/miniconda3/envs/newamoebamdpoltype/share/psi4/basis/6-311g.gbs 
    atoms 6-7, 11-12, 14-23 entry H          line    21 file /home/bdw2292/miniconda3/envs/newamoebamdpoltype/share/psi4/basis/6-311g.gbs 
    atoms 9                 entry O          line   126 file /home/bdw2292/miniconda3/envs/newamoebamdpoltype/share/psi4/basis/6-311g.gbs 

   => WB97X-D: Empirical Dispersion <=

    Chai and Head-Gordon Dispersion Correction
    Chai, J.-D.; Head-Gordon, M. (2010), J. Chem. Phys., 132: 6615-6620

        s6 =       1.000000


         ---------------------------------------------------------
                                   SCF
               by Justin Turney, Rob Parrish, Andy Simmonett
                          and Daniel G. A. Smith
                              RKS Reference
                        2 Threads,   7788 MiB Core
         ---------------------------------------------------------

  ==> Geometry <==

    Molecular point group: c1
    Full point group: C1

    Geometry (in Angstrom), charge = 0, multiplicity = 1:

       Center              X                  Y                   Z               Mass       
    ------------   -----------------  -----------------  -----------------  -----------------
         C            1.224678982437    -0.493201480042    -0.721672025766    12.000000000000
         N            0.477994803392     0.405617872866     0.184956172359    14.003074004430
         C           -0.956689317749     0.527815954765    -0.080899295443    12.000000000000
         C           -1.742182802934    -0.749573289345    -0.363339035817    12.000000000000
         C            1.095869377838     1.733919395823     0.376704074410    12.000000000000
         H           -1.149806103258     1.213590927082    -0.933074129422     1.007825032230
         H           -1.427509410241     0.981963653029     0.797920532155     1.007825032230
         N           -3.036934287890    -0.486835935761    -0.727923676111    14.003074004430
         O           -1.340819842399    -1.908635866532    -0.185885505941    15.994914619570
         C            2.600640822100    -0.852559971049    -0.176062427076    12.000000000000
         H            0.641602941239    -1.405267127344    -0.817036978207     1.007825032230
         H            1.324238339448    -0.038684150744    -1.726444593375     1.007825032230
         C            1.776230714403     1.871228311446     1.736943134862    12.000000000000
         H            1.810446890602     1.927924855985    -0.436964050633     1.007825032230
         H            0.318410873220     2.502094634664     0.286850838994     1.007825032230
         H            2.494770830350    -1.265735522080     0.829101454797     1.007825032230
         H            3.067853063769    -1.607651149880    -0.815076633610     1.007825032230
         H            2.219504212108     2.866033006519     1.856704859638     1.007825032230
         H            1.046034492738     1.715710995702     2.533587572680     1.007825032230
         H           -3.316589246137     0.409092391318    -1.088374091288     1.007825032230
         H           -3.637091731673    -1.274324826203    -0.902213993464     1.007825032230
         H            3.271032024519     0.010063350195    -0.131343261730     1.007825032230
         H            2.561664888395     1.123398948982     1.852485847507     1.007825032230

  Running in c1 symmetry.

  Rotational constants: A =      0.08318  B =      0.03137  C =      0.02507 [cm^-1]
  Rotational constants: A =   2493.73061  B =    940.30616  C =    751.69372 [MHz]
  Nuclear repulsion =  480.736395674580706

  Charge       = 0
  Multiplicity = 1
  Electrons    = 72
  Nalpha       = 36
  Nbeta        = 36

  ==> Algorithm <==

  SCF Algorithm Type is DF.
  DIIS enabled.
  MOM disabled.
  Fractional occupation disabled.
  Guess Type is READ.
  Energy threshold   = 1.00e-08
  Density threshold  = 1.00e-08
  Integral threshold = 1.00e-12

  ==> Primary Basis <==

  Basis Set: 6-311G
    Blend: 6-311G
    Number of shells: 105
    Number of basis functions: 159
    Number of Cartesian functions: 159
    Spherical Harmonics?: true
    Max angular momentum: 1

  ==> DFT Potential <==

   => LibXC <=

    Version 5.1.5
    S. Lehtola, C. Steigemann, M. J. Oliveira, and M. A. Marques, SoftwareX 7, 1 (2018) (10.1016/j.softx.2017.11.002)

   => Composite Functional: WB97X-D <= 

    wB97X-D Hyb-GGA Exchange-Correlation Functional

    J.-D. Chai and M. Head-Gordon, Phys. Chem. Chem. Phys. 10, 6615 (2008) (10.1039/B810189B)

    Deriv               =              1
    GGA                 =           TRUE
    Meta                =          FALSE

    Exchange Hybrid     =           TRUE
    MP2 Hybrid          =          FALSE

   => Exchange-Correlation Functionals <=

    1.0000   wB97X-D range-separated functional

   => Exact (HF) Exchange <=

    0.7780            HF,LR [omega = 0.2000]
    0.2220               HF 

   => LibXC Density Thresholds  <==

    XC_HYB_GGA_XC_WB97X_D:  1.00E-14 

   => Molecular Quadrature <=

    Radial Scheme          =       TREUTLER
    Pruning Scheme         =           NONE
    Nuclear Scheme         =       TREUTLER

    BS radius alpha        =              1
    Pruning alpha          =              1
    Radial Points          =             75
    Spherical Points       =            302
    Total Points           =         481850
    Total Blocks           =           3536
    Max Points             =            256
    Max Functions          =            137
    Weights Tolerance      =       1.00E-15

   => Loading Basis Set <=

    Name: (6-311G AUX)
    Role: JKFIT
    Keyword: DF_BASIS_SCF
    atoms 1, 3-5, 10, 13    entry C          line   125 file /home/bdw2292/miniconda3/envs/newamoebamdpoltype/share/psi4/basis/cc-pvtz-jkfit.gbs 
    atoms 2, 8              entry N          line   177 file /home/bdw2292/miniconda3/envs/newamoebamdpoltype/share/psi4/basis/cc-pvtz-jkfit.gbs 
    atoms 6-7, 11-12, 14-23 entry H          line    51 file /home/bdw2292/miniconda3/envs/newamoebamdpoltype/share/psi4/basis/cc-pvtz-jkfit.gbs 
    atoms 9                 entry O          line   229 file /home/bdw2292/miniconda3/envs/newamoebamdpoltype/share/psi4/basis/cc-pvtz-jkfit.gbs 

   => Loading Basis Set <=

    Name: 6-311G
    Role: ORBITAL
    Keyword: BASIS
    atoms 1, 3-5, 10, 13    entry C          line    92 file /home/bdw2292/miniconda3/envs/newamoebamdpoltype/share/psi4/basis/6-311g.gbs 
    atoms 2, 8              entry N          line   109 file /home/bdw2292/miniconda3/envs/newamoebamdpoltype/share/psi4/basis/6-311g.gbs 
    atoms 6-7, 11-12, 14-23 entry H          line    21 file /home/bdw2292/miniconda3/envs/newamoebamdpoltype/share/psi4/basis/6-311g.gbs 
    atoms 9                 entry O          line   126 file /home/bdw2292/miniconda3/envs/newamoebamdpoltype/share/psi4/basis/6-311g.gbs 

  Reading orbitals from file /scratch/bdw2292/Psi4-4_27_Index_0-farH_in17/4_27_Index_0-opt-1_2-3-044.default.1113340.180.npy, no projection.

  ==> Integral Setup <==

  DFHelper Memory: AOs need 0.585 GiB; user supplied 4.302 GiB. Using in-core AOs.

  ==> MemDFJK: Density-Fitted J/K Matrices <==

    J tasked:                   Yes
    K tasked:                   Yes
    wK tasked:                  Yes
    Omega:                2.000E-01
    OpenMP threads:               2
    Memory [MiB]:              4404
    Algorithm:                 Core
    Schwarz Cutoff:           1E-12
    Mask sparsity (%):      10.8619
    Fitting Condition:        1E-10

   => Auxiliary Basis Set <=

  Basis Set: (6-311G AUX)
    Blend: CC-PVTZ-JKFIT
    Number of shells: 365
    Number of basis functions: 1131
    Number of Cartesian functions: 1354
    Spherical Harmonics?: true
    Max angular momentum: 4

  Cached 100.0% of DFT collocation blocks in 1.403 [GiB].

  Minimum eigenvalue in the overlap matrix is 2.5796915557E-03.
  Reciprocal condition number of the overlap matrix is 3.4743390080E-04.
    Using symmetric orthogonalization.

  ==> Pre-Iterations <==

  SCF Guess: Orbitals guess was supplied from a previous computation.

   -------------------------------------------------------
    Irrep   Nso     Nmo     Nalpha   Nbeta   Ndocc  Nsocc
   -------------------------------------------------------
     A        159     159      36      36      36       0
   -------------------------------------------------------
    Total     159     159      36      36      36       0
   -------------------------------------------------------

  ==> Iterations <==

                           Total Energy        Delta E     RMS |[F,P]|

   @DF-RKS iter   0:  -421.65627899870691   -4.21656e+02   1.04223e-03 
   @DF-RKS iter   1:  -421.63562967862180    2.06493e-02   1.42275e-04 DIIS
   @DF-RKS iter   2:  -421.63607410466392   -4.44426e-04   8.08579e-05 DIIS
   @DF-RKS iter   3:  -421.63615597209895   -8.18674e-05   3.32318e-05 DIIS
   @DF-RKS iter   4:  -421.63617279057291   -1.68185e-05   1.42760e-05 DIIS
   @DF-RKS iter   5:  -421.63617485097831   -2.06041e-06   4.77576e-06 DIIS
   @DF-RKS iter   6:  -421.63617516635190   -3.15374e-07   1.61658e-06 DIIS
   @DF-RKS iter   7:  -421.63617521555142   -4.91995e-08   5.09187e-07 DIIS
   @DF-RKS iter   8:  -421.63617522744318   -1.18918e-08   1.42608e-07 DIIS
   @DF-RKS iter   9:  -421.63617522853644   -1.09327e-09   6.50509e-08 DIIS
   @DF-RKS iter  10:  -421.63617522872261   -1.86162e-10   2.95321e-08 DIIS
   @DF-RKS iter  11:  -421.63617522874625   -2.36469e-11   9.93261e-09 DIIS
  Energy and wave function converged.


  ==> Post-Iterations <==

   Electrons on quadrature grid:
      Ntotal   =   72.0001529085 ; deviation = 1.529e-04 

    Orbital Energies [Eh]
    ---------------------

    Doubly Occupied:                                                      

       1A    -19.221242     2A    -14.461050     3A    -14.421778  
       4A    -10.411432     5A    -10.330682     6A    -10.308638  
       7A    -10.292489     8A    -10.264655     9A    -10.260695  
      10A     -1.157515    11A     -1.024783    12A     -1.018726  
      13A     -0.860129    14A     -0.856046    15A     -0.793443  
      16A     -0.721241    17A     -0.698101    18A     -0.666284  
      19A     -0.633446    20A     -0.581291    21A     -0.568277  
      22A     -0.565463    23A     -0.532222    24A     -0.525830  
      25A     -0.500748    26A     -0.492591    27A     -0.476496  
      28A     -0.463506    29A     -0.453957    30A     -0.441794  
      31A     -0.431205    32A     -0.422023    33A     -0.407941  
      34A     -0.357736    35A     -0.338292    36A     -0.280175  

    Virtual:                                                              

      37A      0.079864    38A      0.104221    39A      0.127125  
      40A      0.142817    41A      0.149312    42A      0.165916  
      43A      0.174891    44A      0.183796    45A      0.195026  
      46A      0.203344    47A      0.213507    48A      0.219806  
      49A      0.227920    50A      0.238589    51A      0.242095  
      52A      0.252780    53A      0.283703    54A      0.304158  
      55A      0.314405    56A      0.318172    57A      0.337826  
      58A      0.376841    59A      0.383286    60A      0.394604  
      61A      0.415461    62A      0.417126    63A      0.430952  
      64A      0.442903    65A      0.453455    66A      0.474859  
      67A      0.512317    68A      0.519532    69A      0.527380  
      70A      0.544936    71A      0.568508    72A      0.574716  
      73A      0.591270    74A      0.606389    75A      0.612877  
      76A      0.632021    77A      0.659343    78A      0.663464  
      79A      0.667478    80A      0.678240    81A      0.681053  
      82A      0.689059    83A      0.694455    84A      0.698079  
      85A      0.710241    86A      0.712663    87A      0.722766  
      88A      0.727982    89A      0.736972    90A      0.752763  
      91A      0.765786    92A      0.798545    93A      0.807392  
      94A      0.821919    95A      0.866408    96A      0.897158  
      97A      0.951315    98A      0.965850    99A      1.015740  
     100A      1.055465   101A      1.091369   102A      1.105048  
     103A      1.130379   104A      1.147806   105A      1.211682  
     106A      1.228299   107A      1.378627   108A      1.531777  
     109A      1.742082   110A      2.243788   111A      2.331975  
     112A      2.340874   113A      2.352714   114A      2.360500  
     115A      2.365714   116A      2.375148   117A      2.392009  
     118A      2.404070   119A      2.412411   120A      2.416558  
     121A      2.427322   122A      2.443440   123A      2.469898  
     124A      2.672997   125A      2.848596   126A      2.896548  
     127A      2.936406   128A      2.943885   129A      2.957922  
     130A      2.963301   131A      2.973287   132A      2.999901  
     133A      3.035302   134A      3.045079   135A      3.070951  
     136A      3.119989   137A      3.159657   138A      3.175588  
     139A      3.184937   140A      3.242039   141A      3.314782  
     142A      3.776299   143A      3.993356   144A      4.042077  
     145A      4.147867   146A      4.182999   147A      4.200306  
     148A      4.990377   149A      5.061072   150A      5.114364  
     151A     23.441308   152A     23.493441   153A     23.541209  
     154A     23.622065   155A     23.675756   156A     23.702682  
     157A     35.478470   158A     35.581787   159A     50.051285  

    Final Occupation by Irrep:
              A 
    DOCC [    36 ]

  @DF-RKS Final Energy:  -421.63617522874625

   => Energetics <=

    Nuclear Repulsion Energy =            480.7363956745807059
    One-Electron Energy =               -1524.2856954111416599
    Two-Electron Energy =                 663.2152352980078831
    DFT Exchange-Correlation Energy =     -41.2874909873996643
    Empirical Dispersion Energy =          -0.0146198027935779
    VV10 Nonlocal Energy =                  0.0000000000000000
    Total Energy =                       -421.6361752287462537

Computation Completed


Properties will be evaluated at   0.000000,   0.000000,   0.000000 [a0]

Properties computed using the SCF density matrix

  Nuclear Dipole Moment: [e a0]
     X:     8.6487      Y:     6.7017      Z:     1.2251

  Electronic Dipole Moment: [e a0]
     X:    -9.4937      Y:    -5.3948      Z:    -1.9148

  Dipole Moment: [e a0]
     X:    -0.8450      Y:     1.3068      Z:    -0.6897     Total:     1.7022

  Dipole Moment: [D]
     X:    -2.1478      Y:     3.3217      Z:    -1.7529     Total:     4.3266


*** tstop() called on node74.bme.utexas.edu at Wed Jun  8 13:05:03 2022
Module time:
	user time   =      59.09 seconds =       0.98 minutes
	system time =       4.61 seconds =       0.08 minutes
	total time  =         33 seconds =       0.55 minutes
Total time:
	user time   =     151.19 seconds =       2.52 minutes
	system time =       9.17 seconds =       0.15 minutes
	total time  =         82 seconds =       1.37 minutes

*** tstart() called on node74.bme.utexas.edu
*** at Wed Jun  8 13:05:03 2022


         ------------------------------------------------------------
                                   SCF GRAD                          
                          Rob Parrish, Justin Turney,                
                       Andy Simmonett, and Alex Sokolov              
         ------------------------------------------------------------

  ==> Geometry <==

    Molecular point group: c1
    Full point group: C1

    Geometry (in Angstrom), charge = 0, multiplicity = 1:

       Center              X                  Y                   Z               Mass       
    ------------   -----------------  -----------------  -----------------  -----------------
         C            1.224678982437    -0.493201480042    -0.721672025766    12.000000000000
         N            0.477994803392     0.405617872866     0.184956172359    14.003074004430
         C           -0.956689317749     0.527815954765    -0.080899295443    12.000000000000
         C           -1.742182802934    -0.749573289345    -0.363339035817    12.000000000000
         C            1.095869377838     1.733919395823     0.376704074410    12.000000000000
         H           -1.149806103258     1.213590927082    -0.933074129422     1.007825032230
         H           -1.427509410241     0.981963653029     0.797920532155     1.007825032230
         N           -3.036934287890    -0.486835935761    -0.727923676111    14.003074004430
         O           -1.340819842399    -1.908635866532    -0.185885505941    15.994914619570
         C            2.600640822100    -0.852559971049    -0.176062427076    12.000000000000
         H            0.641602941239    -1.405267127344    -0.817036978207     1.007825032230
         H            1.324238339448    -0.038684150744    -1.726444593375     1.007825032230
         C            1.776230714403     1.871228311446     1.736943134862    12.000000000000
         H            1.810446890602     1.927924855985    -0.436964050633     1.007825032230
         H            0.318410873220     2.502094634664     0.286850838994     1.007825032230
         H            2.494770830350    -1.265735522080     0.829101454797     1.007825032230
         H            3.067853063769    -1.607651149880    -0.815076633610     1.007825032230
         H            2.219504212108     2.866033006519     1.856704859638     1.007825032230
         H            1.046034492738     1.715710995702     2.533587572680     1.007825032230
         H           -3.316589246137     0.409092391318    -1.088374091288     1.007825032230
         H           -3.637091731673    -1.274324826203    -0.902213993464     1.007825032230
         H            3.271032024519     0.010063350195    -0.131343261730     1.007825032230
         H            2.561664888395     1.123398948982     1.852485847507     1.007825032230

  Nuclear repulsion =  480.736395674580706

  ==> Basis Set <==

  Basis Set: 6-311G
    Blend: 6-311G
    Number of shells: 105
    Number of basis functions: 159
    Number of Cartesian functions: 159
    Spherical Harmonics?: true
    Max angular momentum: 1

  ==> DFJKGrad: Density-Fitted SCF Gradients <==

    Gradient:                    1
    J tasked:                  Yes
    K tasked:                  Yes
    wK tasked:                 Yes
    Omega:               2.000E-01
    OpenMP threads:              2
    Integrals threads:           2
    Memory [MiB]:             5841
    Schwarz Cutoff:          1E-12
    Fitting Condition:       1E-10

   => Auxiliary Basis Set <=

  Basis Set: (6-311G AUX)
    Blend: CC-PVTZ-JKFIT
    Number of shells: 365
    Number of basis functions: 1131
    Number of Cartesian functions: 1354
    Spherical Harmonics?: true
    Max angular momentum: 4

  ==> DFT Potential <==

   => LibXC <=

    Version 5.1.5
    S. Lehtola, C. Steigemann, M. J. Oliveira, and M. A. Marques, SoftwareX 7, 1 (2018) (10.1016/j.softx.2017.11.002)

   => Composite Functional: WB97X-D <= 

    wB97X-D Hyb-GGA Exchange-Correlation Functional

    J.-D. Chai and M. Head-Gordon, Phys. Chem. Chem. Phys. 10, 6615 (2008) (10.1039/B810189B)

    Deriv               =              1
    GGA                 =           TRUE
    Meta                =          FALSE

    Exchange Hybrid     =           TRUE
    MP2 Hybrid          =          FALSE

   => Exchange-Correlation Functionals <=

    1.0000   wB97X-D range-separated functional

   => Exact (HF) Exchange <=

    0.7780            HF,LR [omega = 0.2000]
    0.2220               HF 

   => LibXC Density Thresholds  <==

    XC_HYB_GGA_XC_WB97X_D:  1.00E-14 

   => Molecular Quadrature <=

    Radial Scheme          =       TREUTLER
    Pruning Scheme         =           NONE
    Nuclear Scheme         =       TREUTLER

    BS radius alpha        =              1
    Pruning alpha          =              1
    Radial Points          =             75
    Spherical Points       =            302
    Total Points           =         481850
    Total Blocks           =           3536
    Max Points             =            256
    Max Functions          =            137
    Weights Tolerance      =       1.00E-15


  -Total Gradient:
     Atom            X                  Y                   Z
    ------   -----------------  -----------------  -----------------
       1        0.003809753587    -0.003710015982    -0.000606124712
       2        0.003697709564     0.003522497090     0.004512404988
       3       -0.005314041041     0.000227021771     0.005612729565
       4        0.002598410599    -0.004000915483    -0.012055712211
       5       -0.000144131962     0.001755523229    -0.001445203818
       6        0.000178042444     0.000387444701    -0.000912228996
       7       -0.000535702579     0.000379138006     0.001546291907
       8       -0.001746093526     0.002872282040     0.008920671684
       9        0.000756111582    -0.000853119528     0.000766727286
      10       -0.000880836042     0.000379853835    -0.000336920741
      11       -0.001517281260    -0.000873275842     0.000523005136
      12       -0.000330180599     0.000178136280    -0.000518701905
      13       -0.000733434079    -0.000965724067    -0.000074649228
      14        0.000303034521     0.000198849092    -0.001264220447
      15       -0.001470714616     0.000070806122     0.000036209394
      16       -0.000604494269    -0.000436655239     0.000867034033
      17        0.000226323714    -0.001261280213    -0.000869244488
      18        0.000637100358     0.001330567538     0.000163673856
      19       -0.000688912353     0.000029235755     0.000335422397
      20        0.000498665208     0.001189571402    -0.003995258505
      21        0.000061104512    -0.000694264714    -0.000683635333
      22        0.000383438016     0.000872918758    -0.000076415318
      23        0.000663405664    -0.000765881698    -0.000347647900


*** tstop() called on node74.bme.utexas.edu at Wed Jun  8 13:05:17 2022
Module time:
	user time   =      27.32 seconds =       0.46 minutes
	system time =       0.46 seconds =       0.01 minutes
	total time  =         14 seconds =       0.23 minutes
Total time:
	user time   =     178.52 seconds =       2.98 minutes
	system time =       9.63 seconds =       0.16 minutes
	total time  =         96 seconds =       1.60 minutes

			-----------------------------------------
			 OPTKING 2.0: for geometry optimizations 
			  - R.A. King,  Bethel University        
			-----------------------------------------
	At level 1: Red. Int., RFO, no backsteps, dynamic trust

	Previous internal coordinate definitions found.
	---Fragment 1 Geometry and Gradient---
	 C           2.3143078684       -0.9320157219       -1.3637624811
	 N           0.9032792678        0.7665066913        0.3495165110
	 C          -1.8078807977        0.9974275992       -0.1528775121
	 C          -3.2922483580       -1.4164882278       -0.6866112684
	 C           2.0708929934        3.2766327817        0.7118675310
	 H          -2.1728186325        2.2933544805       -1.7632545594
	 H          -2.6976018269        1.8556423694        1.5078512757
	 N          -5.7389740651       -0.9199865866       -1.3755763881
	 O          -2.5337822857       -3.6067990610       -0.3512726969
	 C           4.9144989045       -1.6111048508       -0.3327097682
	 H           1.2124538402       -2.6555700038       -1.5439761232
	 H           2.5024477864       -0.0731024503       -3.2625074523
	 C           3.3565895858        3.5361090268        3.2823468204
	 H           3.4212487879        3.6432499683       -0.8257423824
	 H           0.6017093458        4.7282735995        0.5420695246
	 H           4.7144336151       -2.3918934840        1.5667746798
	 H           5.7974020837       -3.0380203786       -1.5402716088
	 H           4.1942550952        5.4160174488        3.5086636805
	 H           1.9767187091        3.2422238923        4.7877866272
	 H          -6.2674453458        0.7730725796       -2.0567289546
	 H          -6.8731072660       -2.4081249164       -1.7049373542
	 H           6.1813546739        0.0190169758       -0.2482027931
	 H           4.8408450643        2.1229163432        3.5006909031
	             0.0038097536       -0.0037100160       -0.0006061247
	             0.0036977096        0.0035224971        0.0045124050
	            -0.0053140410        0.0002270218        0.0056127296
	             0.0025984106       -0.0040009155       -0.0120557122
	            -0.0001441320        0.0017555232       -0.0014452038
	             0.0001780424        0.0003874447       -0.0009122290
	            -0.0005357026        0.0003791380        0.0015462919
	            -0.0017460935        0.0028722820        0.0089206717
	             0.0007561116       -0.0008531195        0.0007667273
	            -0.0008808360        0.0003798538       -0.0003369207
	            -0.0015172813       -0.0008732758        0.0005230051
	            -0.0003301806        0.0001781363       -0.0005187019
	            -0.0007334341       -0.0009657241       -0.0000746492
	             0.0003030345        0.0001988491       -0.0012642204
	            -0.0014707146        0.0000708061        0.0000362094
	            -0.0006044943       -0.0004366552        0.0008670340
	             0.0002263237       -0.0012612802       -0.0008692445
	             0.0006371004        0.0013305675        0.0001636739
	            -0.0006889124        0.0000292358        0.0003354224
	             0.0004986652        0.0011895714       -0.0039952585
	             0.0000611045       -0.0006942647       -0.0006836353
	             0.0003834380        0.0008729188       -0.0000764153
	             0.0006634057       -0.0007658817       -0.0003476479

	---Fragment 1 Intrafragment Coordinates---
	 - Coordinate -           - BOHR/RAD -       - ANG/DEG -
	 R(1,2)           =         2.794871	       1.478982
	 R(1,10)          =         2.878407	       1.523187
	 R(1,11)          =         2.053582	       1.086709
	 R(1,12)          =         2.092453	       1.107279
	 R(2,3)           =         2.766968	       1.464217
	 R(2,5)           =         2.792016	       1.477471
	 R(3,4)           =         2.883610	       1.525941
	 R(3,6)           =         2.099028	       1.110758
	 R(3,7)           =         2.070303	       1.095557
	 R(4,8)           =         2.589914	       1.370523
	 R(4,9)           =         2.342047	       1.239358
	 R(5,13)          =         2.885777	       1.527087
	 R(5,14)          =         2.078969	       1.100143
	 R(5,15)          =         2.072340	       1.096635
	 R(8,20)          =         1.899921	       1.005395
	 R(8,21)          =         1.899814	       1.005338
	 R(10,16)         =         2.063419	       1.091914
	 R(10,17)         =         2.067320	       1.093979
	 R(10,22)         =         2.066243	       1.093409
	 R(13,18)         =         2.070497	       1.095660
	 R(13,19)         =         2.063192	       1.091794
	 R(13,23)         =         2.061020	       1.090645
	 B(1,2,3)         =         2.019832	     115.727821
	 B(1,2,5)         =         1.998513	     114.506385
	 B(1,10,16)       =         1.908616	     109.355633
	 B(1,10,17)       =         1.917081	     109.840635
	 B(1,10,22)       =         1.963167	     112.481176
	 B(2,1,10)        =         1.960444	     112.325184
	 B(2,1,11)        =         1.868129	     107.035890
	 B(2,1,12)        =         1.930708	     110.621446
	 B(2,3,4)         =         2.057961	     117.912461
	 B(2,3,6)         =         1.940328	     111.172594
	 B(2,3,7)         =         1.886025	     108.061249
	 B(2,5,13)        =         1.963576	     112.504610
	 B(2,5,14)        =         1.911539	     109.523120
	 B(2,5,15)        =         1.899321	     108.823064
	 B(3,2,5)         =         1.937239	     110.995610
	 B(3,4,8)         =         1.955256	     112.027936
	 B(3,4,9)         =         2.201453	     126.133968
	 B(4,3,6)         =         1.860148	     106.578617
	 B(4,3,7)         =         1.848626	     105.918461
	 B(4,8,20)        =         2.128196	     121.936639
	 B(4,8,21)        =         2.048701	     117.381929
	 B(5,13,18)       =         1.938261	     111.054164
	 B(5,13,19)       =         1.916824	     109.825928
	 B(5,13,23)       =         1.932173	     110.705347
	 B(6,3,7)         =         1.859567	     106.545365
	 B(8,4,9)         =         2.121536	     121.555058
	 B(10,1,11)       =         1.894537	     108.548987
	 B(10,1,12)       =         1.918417	     109.917223
	 B(11,1,12)       =         1.889278	     108.247671
	 B(13,5,14)       =         1.932163	     110.704764
	 B(13,5,15)       =         1.902713	     109.017446
	 B(14,5,15)       =         1.850799	     106.042949
	 B(16,10,17)      =         1.894355	     108.538562
	 B(16,10,22)      =         1.896869	     108.682591
	 B(17,10,22)      =         1.882394	     107.853241
	 B(18,13,19)      =         1.896688	     108.672189
	 B(18,13,23)      =         1.896130	     108.640265
	 B(19,13,23)      =         1.882492	     107.858865
	 B(20,8,21)       =         2.059880	     118.022448
	*D(1,2,3,4)       =         0.780720	      44.731976
	 D(1,2,3,6)       =        -1.374183	     -78.734907
	 D(1,2,3,7)       =         2.874211	     164.680145
	*D(1,2,5,13)      =        -1.831868	    -104.958310
	 D(1,2,5,14)      =         0.324819	      18.610785
	 D(1,2,5,15)      =         2.340827	     134.119531
	 D(2,1,10,16)     =         0.947852	      54.307911
	 D(2,1,10,17)     =         3.025020	     173.320882
	 D(2,1,10,22)     =        -1.161399	     -66.543278
	*D(2,3,4,8)       =        -3.033600	    -173.812463
	 D(2,3,4,9)       =         0.214005	      12.261569
	 D(2,5,13,18)     =        -3.134488	    -179.592926
	 D(2,5,13,19)     =        -1.036096	     -59.363944
	 D(2,5,13,23)     =         1.040810	      59.634003
	 D(3,2,1,10)      =        -2.879839	    -165.002641
[...]
	 R(23,Z)          =         3.423633	       1.811709

	Current energy   :      -421.6384504877

	Generating empirical Hessian (Schlegel '84) for each fragment.
	Taking RFO optimization step.
	Going to follow RFO solution 1.
	Using RFO vector 1.
	Norm of target step-size    0.01538
	Projected energy change by RFO approximation:        -0.0000283644

	Back-transformation to cartesian coordinates...
	Successfully converged to displaced geometry.

	Back-transformation to cartesian coordinates to adjust frozen coordinates...

	--- Internal Coordinate Step in ANG or DEG, aJ/ANG or AJ/DEG ---
	 ---------------------------------------------------------------------------
	   Coordinate                Previous        Force       Change         New 
	   ----------                --------       ------       ------       ------
	    1 R(1,2)          =      1.460298    -0.003365    -0.001320     1.458978
	    2 R(1,10)         =      1.527453     0.001023     0.000110     1.527563
	    3 R(1,11)         =      1.085265     0.002095     0.000539     1.085804
	    4 R(1,12)         =      1.105919    -0.003056    -0.000958     1.104961
	    5 R(2,3)          =      1.439546    -0.003872    -0.001316     1.438229
	    6 R(2,5)          =      1.459349    -0.002218    -0.000966     1.458383
	    7 R(3,4)          =      1.523937     0.001499     0.000104     1.524041
	    8 R(3,6)          =      1.111646    -0.002403    -0.000698     1.110948
	    9 R(3,7)          =      1.095323    -0.000661    -0.000262     1.095061
	   10 R(4,8)          =      1.368983    -0.000861    -0.000179     1.368804
	   11 R(4,9)          =      1.239228     0.000658     0.000033     1.239260
	   12 R(5,13)         =      1.531428     0.000833    -0.000008     1.531420
	   13 R(5,14)         =      1.096584    -0.002740    -0.000761     1.095823
	   14 R(5,15)         =      1.098569    -0.000830    -0.000295     1.098274
	   15 R(8,20)         =      1.003652    -0.003282    -0.000619     1.003033
	   16 R(8,21)         =      1.004264     0.000642     0.000055     1.004320
	   17 R(10,16)        =      1.090996    -0.003321    -0.000955     1.090042
	   18 R(10,17)        =      1.093363    -0.002434    -0.000710     1.092653
	   19 R(10,22)        =      1.092300     0.000552     0.000196     1.092495
	   20 R(13,18)        =      1.093798    -0.000641    -0.000233     1.093565
	   21 R(13,19)        =      1.092526    -0.001543    -0.000479     1.092047
	   22 R(13,23)        =      1.090587    -0.002671    -0.000694     1.089893
	   23 B(1,2,3)        =    121.435346     0.000010     0.050217   121.485563
	   24 B(1,2,5)        =    118.312610    -0.000009    -0.044244   118.268366
	   25 B(1,10,16)      =    109.328124     0.000002     0.030338   109.358462
	   26 B(1,10,17)      =    110.325887     0.000008     0.043039   110.368926
	   27 B(1,10,22)      =    111.845437    -0.000012    -0.076761   111.768675
	   28 B(2,1,10)       =    112.521616     0.000014     0.072820   112.594436
	   29 B(2,1,11)       =    108.220621     0.000003     0.017063   108.237685
	   30 B(2,1,12)       =    110.706502     0.000008     0.049994   110.756497
	   31 B(2,3,4)        =    116.121342     0.000010     0.057978   116.179320
	   32 B(2,3,6)        =    112.944777     0.000010     0.034789   112.979567
	   33 B(2,3,7)        =    108.381512     0.000011     0.059846   108.441358
	   34 B(2,5,13)       =    113.328725     0.000014     0.101532   113.430257
	   35 B(2,5,14)       =    108.519735     0.000009     0.041521   108.561256
	   36 B(2,5,15)       =    109.598111     0.000001     0.013695   109.611806
	   37 B(3,2,5)        =    116.135555     0.000004     0.032812   116.168367
	   38 B(3,4,8)        =    113.405480     0.000007     0.025955   113.431436
	   39 B(3,4,9)        =    125.069685    -0.000017    -0.075772   124.993913
	   40 B(4,3,6)        =    107.424016    -0.000010    -0.021520   107.402496
	   41 B(4,3,7)        =    105.303725    -0.000011    -0.023266   105.280459
	   42 B(4,8,20)       =    122.090193     0.000008     0.024286   122.114479
	   43 B(4,8,21)       =    117.662084    -0.000011    -0.050154   117.611931
	   44 B(5,13,18)      =    111.171564     0.000007     0.040481   111.212045
	   45 B(5,13,19)      =    110.198098     0.000008     0.063041   110.261139
	   46 B(5,13,23)      =    110.580603    -0.000010    -0.076512   110.504091
	   47 B(6,3,7)        =    105.937297    -0.000014    -0.130195   105.807103
	   48 B(8,4,9)        =    121.282155     0.000011     0.054227   121.336383
	   49 B(10,1,11)      =    108.306577    -0.000014    -0.075992   108.230585
	   50 B(10,1,12)      =    109.279059    -0.000006    -0.005081   109.273978
	   51 B(11,1,12)      =    107.653944    -0.000006    -0.068148   107.585796
	   52 B(13,5,14)      =    109.798959    -0.000010    -0.057990   109.740969
	   53 B(13,5,15)      =    109.545509    -0.000012    -0.054797   109.490712
	   54 B(14,5,15)      =    105.768616    -0.000003    -0.054103   105.714512
	   55 B(16,10,17)     =    108.811456     0.000001     0.023300   108.834756
	   56 B(16,10,22)     =    108.730167     0.000003     0.001463   108.731630
	   57 B(17,10,22)     =    107.731771    -0.000001    -0.020277   107.711494
	   58 B(18,13,19)     =    108.353872    -0.000004     0.004117   108.357989
	   59 B(18,13,23)     =    108.780633     0.000000    -0.009723   108.770910
	   60 B(19,13,23)     =    107.655528    -0.000001    -0.022735   107.632793
	   61 B(20,8,21)      =    118.051367     0.000002     0.002310   118.053677
	   62 *D(1,2,3,4)     =     44.731976     0.000000    -0.000000    44.731976
	   63 D(1,2,3,6)      =    -80.000380    -0.000001    -0.050433   -80.050813
	   64 D(1,2,3,7)      =    162.942260     0.000000     0.051333   162.993592
	   65 *D(1,2,5,13)    =   -104.958310     0.000000    -0.000000  -104.958310
	   66 D(1,2,5,14)     =     17.283034     0.000001     0.023827    17.306860
	   67 D(1,2,5,15)     =    132.337932     0.000001    -0.010350   132.327583
	   68 D(2,1,10,16)    =     57.874383    -0.000002    -0.081961    57.792422
	   69 D(2,1,10,17)    =    177.499987    -0.000001    -0.007783   177.492203
	   70 D(2,1,10,22)    =    -62.605018    -0.000001    -0.054814   -62.659832
	   71 *D(2,3,4,8)     =   -173.812463     0.000000    -0.000000  -173.812463
	   72 D(2,3,4,9)      =     11.811228    -0.000000    -0.054964    11.756265
	   73 D(2,5,13,18)    =   -177.603907     0.000001    -0.007285  -177.611192
	   74 D(2,5,13,19)    =    -57.452364     0.000002     0.066063   -57.386301
	   75 D(2,5,13,23)    =     61.451193     0.000001     0.029679    61.480871
	   76 D(3,2,1,10)     =   -139.748136     0.000003     0.113496  -139.634640
	   77 D(3,2,1,11)     =    -20.112618     0.000001     0.074995   -20.037623
	   78 D(3,2,1,12)     =     97.646429     0.000001     0.031190    97.677620
	   79 D(3,2,5,13)     =     97.492512    -0.000003    -0.112888    97.379625
	   80 D(3,2,5,14)     =   -140.266144    -0.000002    -0.089061  -140.355205
	   81 D(3,2,5,15)     =    -25.211246    -0.000002    -0.123237   -25.334483
	   82 *D(3,4,8,20)    =     20.919395    -0.000000    -0.000000    20.919395
	   83 D(3,4,8,21)     =   -176.259566    -0.000001    -0.089706  -176.349272
	   84 D(4,3,2,5)      =   -158.474100     0.000002     0.093860  -158.380240
	   85 *D(5,2,1,10)    =     63.943806     0.000000     0.000000    63.943806
	   86 D(5,2,1,11)     =   -176.420676    -0.000002    -0.038502  -176.459178
	   87 D(5,2,1,12)     =    -58.661629    -0.000002    -0.082306   -58.743935
	   88 D(5,2,3,6)      =     76.793544     0.000001     0.043427    76.836971
	   89 D(5,2,3,7)      =    -40.263817     0.000002     0.145193   -40.118624
	   90 D(6,3,4,8)      =    -46.297712     0.000003     0.073477   -46.224234
	   91 D(6,3,4,9)      =    139.325980     0.000002     0.018514   139.344494
	   92 D(7,3,4,8)      =     66.299468    -0.000003    -0.093514    66.205954
	   93 D(7,3,4,9)      =   -108.076840    -0.000003    -0.148478  -108.225318
	   94 D(9,4,8,20)     =   -164.465588    -0.000000     0.044574  -164.421014
	   95 D(9,4,8,21)     =     -1.644549    -0.000001    -0.045132    -1.689681
	   96 D(11,1,10,16)   =    -61.711222    -0.000003    -0.097490   -61.808712
	   97 D(11,1,10,17)   =     57.914381    -0.000001    -0.023312    57.891069
	   98 D(11,1,10,22)   =    177.809377    -0.000002    -0.070343   177.739034
	   99 D(12,1,10,16)   =   -178.720595     0.000001     0.029147  -178.691448
	  100 D(12,1,10,17)   =    -59.094992     0.000003     0.103325   -58.991667
	  101 D(12,1,10,22)   =     60.800004     0.000002     0.056294    60.856298
	  102 D(14,5,13,18)   =     60.869259    -0.000002    -0.088344    60.780915
	  103 D(14,5,13,19)   =   -178.979198    -0.000001    -0.014996  -178.994194
	  104 D(14,5,13,23)   =    -60.075641    -0.000002    -0.051381   -60.127021
	  105 D(15,5,13,18)   =    -54.871039     0.000001     0.040817   -54.830222
	  106 D(15,5,13,19)   =     65.280504     0.000002     0.114165    65.394669
	  107 D(15,5,13,23)   =   -175.815939     0.000002     0.077781  -175.738158
	  108 R(1,9)          =      2.978536    -0.000882    -0.000430     2.978106
	  109 R(10,13)        =      3.499918     0.000194     0.000528     3.500447
	  110 R(1,X)          =      1.225020    -0.000640     0.000044     1.225064
	  111 R(1,Y)          =     -0.519002     0.003065     0.001330    -0.517672
	  112 R(1,Z)          =     -0.956211     0.000521     0.000031    -0.956180
	  113 R(2,X)          =      0.497986    -0.000850    -0.000307     0.497679
	  114 R(2,Y)          =      0.526024    -0.000085    -0.000012     0.526012
	  115 R(2,Z)          =     -0.240801    -0.001959    -0.001060    -0.241861
	  116 R(3,X)          =     -0.939460     0.003010     0.000975    -0.938486
	  117 R(3,Y)          =      0.596904    -0.000047    -0.000438     0.596467
	  118 R(3,Z)          =     -0.272656    -0.001085    -0.000349    -0.273004
	  119 R(4,X)          =     -1.680628    -0.000602    -0.000007    -1.680636
	  120 R(4,Y)          =     -0.720637     0.000358     0.000102    -0.720534
	  121 R(4,Z)          =     -0.079938    -0.000355     0.000387    -0.079552
	  122 R(5,X)          =      1.196394    -0.000607    -0.000258     1.196136
	  123 R(5,Y)          =      1.770724    -0.003086    -0.001422     1.769303
	  124 R(5,Z)          =      0.063578    -0.000882    -0.000044     0.063535
	  125 R(6,X)          =     -1.329757     0.001345     0.000047    -1.329710
	  126 R(6,Y)          =      1.065533    -0.000901    -0.000448     1.065085
	  127 R(6,Z)          =     -1.202071     0.002058     0.000871    -1.201199
	  128 R(7,X)          =     -1.271957     0.001433     0.000265    -1.271692
	  129 R(7,Y)          =      1.238704    -0.000339     0.000211     1.238916
	  130 R(7,Z)          =      0.550309    -0.002374    -0.001492     0.548817
	  131 R(8,X)          =     -3.034364     0.000253     0.000129    -3.034235
	  132 R(8,Y)          =     -0.613451     0.001417     0.000446    -0.613005
	  133 R(8,Z)          =     -0.253215     0.000419     0.000950    -0.252265
	  134 R(9,X)          =     -1.162572     0.001410     0.000976    -1.161596
	  135 R(9,Y)          =     -1.779868     0.000673     0.000326    -1.779543
	  136 R(9,Z)          =      0.301285    -0.000075    -0.000226     0.301060
	  137 R(10,X)         =      2.406158    -0.000723    -0.000608     2.405550
	  138 R(10,Y)         =     -1.063269    -0.000523    -0.000407    -1.063675
	  139 R(10,Z)         =     -0.155087     0.000156     0.000020    -0.155067
	  140 R(11,X)         =      0.539099    -0.000508     0.000382     0.539481
	  141 R(11,Y)         =     -1.337215     0.000575     0.000594    -1.336621
	  142 R(11,Z)         =     -1.150740    -0.001156    -0.001065    -1.151805
	  143 R(12,X)         =      1.586918    -0.000174     0.000268     1.587186
	  144 R(12,Y)         =     -0.145491     0.000870     0.000256    -0.145234
	  145 R(12,Z)         =     -1.932211     0.003316     0.000790    -1.931421
	  146 R(13,X)         =      1.602263    -0.000891    -0.000747     1.601516
	  147 R(13,Y)         =      1.894186    -0.000144     0.000224     1.894410
	  148 R(13,Z)         =      1.535074    -0.000184    -0.000056     1.535018
	  149 R(14,X)         =      2.086292    -0.001485    -0.000151     2.086141
	  150 R(14,Y)         =      1.835659    -0.002370    -0.000963     1.834696
	  151 R(14,Z)         =     -0.573886     0.002679     0.001463    -0.572424
	  152 R(15,X)         =      0.565460     0.001400     0.001084     0.566544
	  153 R(15,Y)         =      2.625286    -0.002519    -0.000956     2.624330
	  154 R(15,Z)         =     -0.216598    -0.000415    -0.000486    -0.217084
	  155 R(16,X)         =      2.046830     0.000245    -0.000298     2.046532
	  156 R(16,Y)         =     -1.452721     0.000207     0.000034    -1.452687
	  157 R(16,Z)         =      0.798581    -0.002980    -0.000775     0.797806
	  158 R(17,X)         =      2.896852    -0.001491    -0.000597     2.896255
	  159 R(17,Y)         =     -1.871775     0.001675     0.000406    -1.871369
	  160 R(17,Z)         =     -0.703702     0.001080     0.000247    -0.703456
	  161 R(18,X)         =      2.084331    -0.000739    -0.000401     2.083930
	  162 R(18,Y)         =      2.855962    -0.000846    -0.000150     2.855812
	  163 R(18,Z)         =      1.732541    -0.000685    -0.000373     1.732169
	  164 R(19,X)         =      0.722218     0.001286     0.000228     0.722445
	  165 R(19,Y)         =      1.812193     0.000819     0.000294     1.812487
	  166 R(19,Z)         =      2.177265     0.000298     0.000473     2.177738
	  167 R(20,X)         =     -3.447737     0.000594     0.000014    -3.447723
	  168 R(20,Y)         =      0.141734    -0.001492    -0.000260     0.141473
	  169 R(20,Z)         =     -0.769099     0.002273     0.001213    -0.767886
	  170 R(21,X)         =     -3.592168     0.001213     0.000780    -3.591389
	  171 R(21,Y)         =     -1.431404     0.000075    -0.000179    -1.431582
	  172 R(21,Z)         =     -0.084827     0.000908     0.000399    -0.084428
	  173 R(22,X)         =      3.154470    -0.000618    -0.000534     3.153936
	  174 R(22,Y)         =     -0.291995     0.000156    -0.000184    -0.292178
	  175 R(22,Z)         =      0.040576     0.000162    -0.000049     0.040527
	  176 R(23,X)         =      2.289341    -0.002742    -0.001206     2.288135
	  177 R(23,Y)         =      1.093701     0.001568     0.000618     1.094319
	  178 R(23,Z)         =      1.811709    -0.001166    -0.000511     1.811197
	 ---------------------------------------------------------------------------
	Successfully symmetrized geometry.

  ==> Convergence Check <==

  Measures of convergence in internal coordinates in au.
  Criteria marked as inactive (o), active & met (*), and active & unmet ( ).
  --------------------------------------------------------------------------------------------- ~
   Step     Total Energy     Delta E     MAX Force     RMS Force      MAX Disp      RMS Disp    ~
  --------------------------------------------------------------------------------------------- ~
    Convergence Criteria             o    2.50e-03 *    1.70e-03 *    1.00e-02 *    6.70e-03 *  ~
  --------------------------------------------------------------------------------------------- ~
      1    -421.63845049   -4.22e+02 o    4.70e-04 *    1.60e-04 *    2.82e-03 *    1.15e-03 *  ~
  ---------------------------------------------------------------------------------------------


  **** Optimization is complete! (in 1 steps) ****

  ==> Optimization Summary <==

  Measures of convergence in internal coordinates in au.
  --------------------------------------------------------------------------------------------------------------- ~
   Step         Total Energy             Delta E       MAX Force       RMS Force        MAX Disp        RMS Disp  ~
  --------------------------------------------------------------------------------------------------------------- ~
      1    -421.638450487746   -421.638450487746      0.00046996      0.00015965      0.00281919      0.00115278  ~
  --------------------------------------------------------------------------------------------------------------- ~

	Writing optimization data to binary file.
	Final energy is   -421.6384504877459
	Final (previous) structure:
	Cartesian Geometry (in Angstrom)
	    C     1.2250198189  -0.5190023077  -0.9562113096
	    N     0.4979862863   0.5260236928  -0.2408009394
	    C    -0.9394604529   0.5969044135  -0.2726555969
	    C    -1.6806284865  -0.7206367575  -0.0799383782
	    C     1.1963940196   1.7707241315   0.0635784249
	    H    -1.3297568711   1.0655326445  -1.2020706639
	    H    -1.2719571949   1.2387044079   0.5503091792
	    N    -3.0343642793  -0.6134508717  -0.2532147534
	    O    -1.1625722108  -1.7798683072   0.3012853415
	    C     2.4061581454  -1.0632685202  -0.1550868666
	    H     0.5390986801  -1.3372150592  -1.1507396317
	    H     1.5869179543  -0.1454906312  -1.9322110216
	    C     1.6022633771   1.8941864409   1.5350736093
	    H     2.0862918709   1.8356589501  -0.5738863240
	    H     0.5654598439   2.6252861290  -0.2165980029
	    H     2.0468299307  -1.4527210483   0.7985811672
	    H     2.8968521905  -1.8717754964  -0.7037022052
	    H     2.0843308744   2.8559618438   1.7325414301
	    H     0.7222175802   1.8121930415   2.1772650292
	    H    -3.4477369036   0.1417336149  -0.7690990385
	    H    -3.5921684358  -1.4314038029  -0.0848269581
	    H     3.1544704102  -0.2919945857   0.0405757555
	    H     2.2893409859   1.0937006679   1.8117085134
	Saving final (previous) structure.
	Cleaning optimization helper files.
			--------------------------
			 OPTKING Finished Execution 
			--------------------------

    Final optimized geometry and variables:
    Molecular point group: c1
    Full point group: C1

    Geometry (in Angstrom), charge = 0, multiplicity = 1:

    C            1.225019823732    -0.519002309743    -0.956211313403
    N            0.497986288264     0.526023694910    -0.240800940383
    C           -0.939460456560     0.596904415814    -0.272655597950
    C           -1.680628493111    -0.720636760378    -0.079938378475
    C            1.196394024348     1.770724138466     0.063578425112
    H           -1.329756876297     1.065532648669    -1.202070668643
    H           -1.271957199874     1.238704412772     0.550309181367
    N           -3.034364291226    -0.613450874150    -0.253214754419
    O           -1.162572215323    -1.779868314192     0.301285342693
    C            2.406158154890    -1.063268524419    -0.155086867233
    H            0.539098682224    -1.337215064473    -1.150739636196
    H            1.586917960551    -0.145490631733    -1.932211029196
    C            1.602263383420     1.894186448335     1.535073615329
    H            2.086291879109     1.835658957336    -0.573886326258
    H            0.565459846144     2.625286139284    -0.216598003742
    H            2.046829938764    -1.452721054020     0.798581170311
    H            2.896852201887    -1.871775503765    -0.703702207925
    H            2.084330882579     2.855961855003     1.732541436892
    H            0.722217583018     1.812193048642     2.177265037782
    H           -3.447736917144     0.141733615499    -0.769099041554
    H           -3.592168449930    -1.431403808527    -0.084826958412
    H            3.154470422624    -0.291994586881     0.040575755674
    H            2.289340994914     1.093700672212     1.811708520510

	Removing binary optimization data file.
	Cleaning optimization helper files.

    Psi4 stopped on: Wednesday, 08 June 2022 01:13PM
    Psi4 wall time for execution: 0:09:38.47

*** Psi4 exiting successfully. Buy a developer a beer!
