
    -----------------------------------------------------------------------
          Psi4: An Open-Source Ab Initio Electronic Structure Package
                               Psi4 1.5 release

                         Git: Rev {HEAD} e9f4d6d 


    D. G. A. Smith, L. A. Burns, A. C. Simmonett, R. M. Parrish,
    M. C. Schieber, R. Galvelis, P. Kraus, H. Kruse, R. Di Remigio,
    A. Alenaizan, A. M. James, S. Lehtola, J. P. Misiewicz, M. Scheurer,
    R. A. Shaw, J. B. Schriber, Y. Xie, Z. L. Glick, D. A. Sirianni,
    J. S. O'Brien, J. M. Waldrop, A. Kumar, E. G. Hohenstein,
    B. P. Pritchard, B. R. Brooks, H. F. Schaefer III, A. Yu. Sokolov,
    K. Patkowski, A. E. DePrince III, U. Bozkaya, R. A. King,
    F. A. Evangelista, J. M. Turney, T. D. Crawford, C. D. Sherrill,
    J. Chem. Phys. 152(18) 184108 (2020). https://doi.org/10.1063/5.0006002

                            Additional Code Authors
    E. T. Seidl, C. L. Janssen, E. F. Valeev, M. L. Leininger,
    J. F. Gonthier, R. M. Richard, H. R. McAlexander, M. Saitow, X. Wang,
    P. Verma, M. H. Lechner, and A. Jiang

             Previous Authors, Complete List of Code Contributors,
                       and Citations for Specific Modules
    https://github.com/psi4/psi4/blob/master/codemeta.json
    https://github.com/psi4/psi4/graphs/contributors
    http://psicode.org/psi4manual/master/introduction.html#citing-psifour

    -----------------------------------------------------------------------


    Psi4 started on: Wednesday, 08 June 2022 12:30PM

    Process ID: 1107062
    Host:       node74.bme.utexas.edu
    PSIDATADIR: /home/bdw2292/miniconda3/envs/newamoebamdpoltype/share/psi4
    Memory:     500.0 MiB
    Threads:    1
    
  ==> Input File <==

--------------------------------------------------------------------------
molecule { 
0 1
 C    1.560190   -0.468935   -1.352966
 N    0.593890    0.050134   -0.355483
 C   -0.785445    0.117304   -0.885551
 C   -1.816744   -0.448379    0.116694
 C    0.988493    1.303586    0.351546
 H   -0.885611   -0.458523   -1.822436
 H   -1.073875    1.145193   -1.165463
 N   -3.090215   -0.527136   -0.386807
 O   -1.555897   -0.748550    1.282050
 C    2.900803   -0.892858   -0.720551
 H    1.114896   -1.350764   -1.844269
 H    1.711161    0.288211   -2.141923
 C    1.434607    1.008117    1.793788
 H    1.782754    1.822013   -0.211200
 H    0.147481    2.016006    0.380687
 H    2.738228   -1.601786    0.093313
 H    3.540478   -1.374766   -1.461741
 H    1.664807    1.931358    2.327497
 H    0.641848    0.490669    2.339097
 H   -3.237728   -0.538658   -1.381545
 H   -3.791497   -0.937675    0.206928
 H    3.446141   -0.034944   -0.325376
 H    2.322641    0.375693    1.815380
}
set optking { 
  frozen_dihedral = ("
    1 2 3 4
    10 1 2 5
    13 5 2 1
    2 3 4 8
    3 4 8 20
  ")
}
set {
  geom_maxiter 400
  g_convergence GAU_LOOSE
  dynamic_level 1
}
memory 8.166666666666666GB
set_num_threads(2)
psi4_io.set_default_path("/scratch/bdw2292/Psi4-4_27_Index_0-farH_in17")
for _ in range(1):
  try:
    set opt_coordinates both
    optimize('wb97x-d/6-311G')
    break
  except OptimizationConvergenceError:
    break
  else:
    try:
      set opt_coordinates cartesian
      optimize('wb97x-d/6-311G')
      break
    except OptimizationConvergenceError:
      pass
clean()
--------------------------------------------------------------------------

  Memory set to   7.606 GiB by Python driver.
  Threads set to 2 by Python driver.

Scratch directory: /scratch/bdw2292/Psi4-4_27_Index_0-farH_in17/

Scratch directory: /scratch/bdw2292/Psi4-4_27_Index_0-farH_in17/
gradient() will perform analytic gradient computation.

*** tstart() called on node74.bme.utexas.edu
*** at Wed Jun  8 12:30:19 2022

   => Loading Basis Set <=

    Name: 6-311G
    Role: ORBITAL
    Keyword: BASIS
    atoms 1, 3-5, 10, 13    entry C          line    92 file /home/bdw2292/miniconda3/envs/newamoebamdpoltype/share/psi4/basis/6-311g.gbs 
    atoms 2, 8              entry N          line   109 file /home/bdw2292/miniconda3/envs/newamoebamdpoltype/share/psi4/basis/6-311g.gbs 
    atoms 6-7, 11-12, 14-23 entry H          line    21 file /home/bdw2292/miniconda3/envs/newamoebamdpoltype/share/psi4/basis/6-311g.gbs 
    atoms 9                 entry O          line   126 file /home/bdw2292/miniconda3/envs/newamoebamdpoltype/share/psi4/basis/6-311g.gbs 

   => WB97X-D: Empirical Dispersion <=

    Chai and Head-Gordon Dispersion Correction
    Chai, J.-D.; Head-Gordon, M. (2010), J. Chem. Phys., 132: 6615-6620

        s6 =       1.000000


         ---------------------------------------------------------
                                   SCF
               by Justin Turney, Rob Parrish, Andy Simmonett
                          and Daniel G. A. Smith
                              RKS Reference
                        2 Threads,   7788 MiB Core
         ---------------------------------------------------------

  ==> Geometry <==

    Molecular point group: c1
    Full point group: C1

    Geometry (in Angstrom), charge = 0, multiplicity = 1:

       Center              X                  Y                   Z               Mass       
    ------------   -----------------  -----------------  -----------------  -----------------
         C            1.546808221301    -0.396376933806    -1.341678968474    12.000000000000
         N            0.580508221301     0.122692066194    -0.344195968474    14.003074004430
         C           -0.798826778699     0.189862066194    -0.874263968474    12.000000000000
         C           -1.830125778699    -0.375820933806     0.127981031526    12.000000000000
         C            0.975111221301     1.376144066194     0.362833031526    12.000000000000
         H           -0.898992778699    -0.385964933806    -1.811148968474     1.007825032230
         H           -1.087256778699     1.217751066194    -1.154175968474     1.007825032230
         N           -3.103596778699    -0.454577933806    -0.375519968474    14.003074004430
         O           -1.569278778699    -0.675991933806     1.293337031526    15.994914619570
         C            2.887421221301    -0.820299933806    -0.709263968474    12.000000000000
         H            1.101514221301    -1.278205933806    -1.832981968474     1.007825032230
         H            1.697779221301     0.360769066194    -2.130635968474     1.007825032230
         C            1.421225221301     1.080675066194     1.805075031526    12.000000000000
         H            1.769372221301     1.894571066194    -0.199912968474     1.007825032230
         H            0.134099221301     2.088564066194     0.391974031526     1.007825032230
         H            2.724846221301    -1.529227933806     0.104600031526     1.007825032230
         H            3.527096221301    -1.302207933806    -1.450453968474     1.007825032230
         H            1.651425221301     2.003916066194     2.338784031526     1.007825032230
         H            0.628466221301     0.563227066194     2.350384031526     1.007825032230
         H           -3.251109778699    -0.466099933806    -1.370257968474     1.007825032230
         H           -3.804878778699    -0.865116933806     0.218215031526     1.007825032230
         H            3.432759221301     0.037614066194    -0.314088968474     1.007825032230
         H            2.309259221301     0.448251066194     1.826667031526     1.007825032230

  Running in c1 symmetry.

  Rotational constants: A =      0.07901  B =      0.03195  C =      0.02672 [cm^-1]
  Rotational constants: A =   2368.69105  B =    957.83603  C =    800.91131 [MHz]
  Nuclear repulsion =  480.133525354596941

  Charge       = 0
  Multiplicity = 1
  Electrons    = 72
  Nalpha       = 36
  Nbeta        = 36

  ==> Algorithm <==

  SCF Algorithm Type is DF.
  DIIS enabled.
  MOM disabled.
  Fractional occupation disabled.
  Guess Type is SAD.
  Energy threshold   = 1.00e-08
  Density threshold  = 1.00e-08
  Integral threshold = 1.00e-12

  ==> Primary Basis <==

  Basis Set: 6-311G
    Blend: 6-311G
    Number of shells: 105
    Number of basis functions: 159
    Number of Cartesian functions: 159
    Spherical Harmonics?: true
    Max angular momentum: 1

  ==> DFT Potential <==

   => LibXC <=

    Version 5.1.5
    S. Lehtola, C. Steigemann, M. J. Oliveira, and M. A. Marques, SoftwareX 7, 1 (2018) (10.1016/j.softx.2017.11.002)

   => Composite Functional: WB97X-D <= 

    wB97X-D Hyb-GGA Exchange-Correlation Functional

    J.-D. Chai and M. Head-Gordon, Phys. Chem. Chem. Phys. 10, 6615 (2008) (10.1039/B810189B)

    Deriv               =              1
    GGA                 =           TRUE
    Meta                =          FALSE

    Exchange Hybrid     =           TRUE
    MP2 Hybrid          =          FALSE

   => Exchange-Correlation Functionals <=

    1.0000   wB97X-D range-separated functional

   => Exact (HF) Exchange <=

    0.7780            HF,LR [omega = 0.2000]
    0.2220               HF 

   => LibXC Density Thresholds  <==

    XC_HYB_GGA_XC_WB97X_D:  1.00E-14 

   => Molecular Quadrature <=

    Radial Scheme          =       TREUTLER
    Pruning Scheme         =           NONE
    Nuclear Scheme         =       TREUTLER

    BS radius alpha        =              1
    Pruning alpha          =              1
    Radial Points          =             75
    Spherical Points       =            302
    Total Points           =         482250
    Total Blocks           =           3510
    Max Points             =            256
    Max Functions          =            142
    Weights Tolerance      =       1.00E-15

   => Loading Basis Set <=

    Name: (6-311G AUX)
    Role: JKFIT
    Keyword: DF_BASIS_SCF
    atoms 1, 3-5, 10, 13    entry C          line   125 file /home/bdw2292/miniconda3/envs/newamoebamdpoltype/share/psi4/basis/cc-pvtz-jkfit.gbs 
    atoms 2, 8              entry N          line   177 file /home/bdw2292/miniconda3/envs/newamoebamdpoltype/share/psi4/basis/cc-pvtz-jkfit.gbs 
    atoms 6-7, 11-12, 14-23 entry H          line    51 file /home/bdw2292/miniconda3/envs/newamoebamdpoltype/share/psi4/basis/cc-pvtz-jkfit.gbs 
    atoms 9                 entry O          line   229 file /home/bdw2292/miniconda3/envs/newamoebamdpoltype/share/psi4/basis/cc-pvtz-jkfit.gbs 

  ==> Integral Setup <==

  DFHelper Memory: AOs need 0.587 GiB; user supplied 4.299 GiB. Using in-core AOs.

  ==> MemDFJK: Density-Fitted J/K Matrices <==

    J tasked:                   Yes
    K tasked:                   Yes
    wK tasked:                  Yes
    Omega:                2.000E-01
    OpenMP threads:               2
    Memory [MiB]:              4402
    Algorithm:                 Core
    Schwarz Cutoff:           1E-12
    Mask sparsity (%):      10.5534
    Fitting Condition:        1E-10

   => Auxiliary Basis Set <=

  Basis Set: (6-311G AUX)
    Blend: CC-PVTZ-JKFIT
    Number of shells: 365
    Number of basis functions: 1131
    Number of Cartesian functions: 1354
    Spherical Harmonics?: true
    Max angular momentum: 4

  Cached 100.0% of DFT collocation blocks in 1.405 [GiB].

  Minimum eigenvalue in the overlap matrix is 2.6172146322E-03.
  Reciprocal condition number of the overlap matrix is 3.5799364964E-04.
    Using symmetric orthogonalization.

  ==> Pre-Iterations <==

  SCF Guess: Superposition of Atomic Densities via on-the-fly atomic UHF (no occupation information).

   -------------------------
    Irrep   Nso     Nmo    
   -------------------------
     A        159     159 
   -------------------------
    Total     159     159
   -------------------------

  ==> Iterations <==

                           Total Energy        Delta E     RMS |[F,P]|

   @DF-RKS iter SAD:  -420.71111961390812   -4.20711e+02   0.00000e+00 
   @DF-RKS iter   1:  -421.13886306623851   -4.27743e-01   6.48891e-03 DIIS
   @DF-RKS iter   2:  -421.19119215088836   -5.23291e-02   6.59530e-03 DIIS
   @DF-RKS iter   3:  -421.61423170196639   -4.23040e-01   1.48565e-03 DIIS
   @DF-RKS iter   4:  -421.63443455494769   -2.02029e-02   3.15609e-04 DIIS
   @DF-RKS iter   5:  -421.63540057259894   -9.66018e-04   1.15476e-04 DIIS
   @DF-RKS iter   6:  -421.63554721478937   -1.46642e-04   2.48677e-05 DIIS
   @DF-RKS iter   7:  -421.63555548181586   -8.26703e-06   6.62598e-06 DIIS
   @DF-RKS iter   8:  -421.63555613998579   -6.58170e-07   2.40504e-06 DIIS
   @DF-RKS iter   9:  -421.63555624896424   -1.08978e-07   9.81450e-07 DIIS
   @DF-RKS iter  10:  -421.63555626505496   -1.60907e-08   2.48320e-07 DIIS
   @DF-RKS iter  11:  -421.63555626667073   -1.61577e-09   5.99996e-08 DIIS
   @DF-RKS iter  12:  -421.63555626680289   -1.32161e-10   2.57614e-08 DIIS
   @DF-RKS iter  13:  -421.63555626681875   -1.58593e-11   6.59372e-09 DIIS
  Energy and wave function converged.


  ==> Post-Iterations <==

   Electrons on quadrature grid:
      Ntotal   =   71.9999546125 ; deviation = -4.539e-05 

    Orbital Energies [Eh]
    ---------------------

    Doubly Occupied:                                                      

       1A    -19.212738     2A    -14.455168     3A    -14.423640  
       4A    -10.399143     5A    -10.328922     6A    -10.313055  
       7A    -10.305790     8A    -10.269261     9A    -10.250420  
      10A     -1.150931    11A     -1.017906    12A     -1.012915  
      13A     -0.857484    14A     -0.848792    15A     -0.787144  
      16A     -0.721353    17A     -0.689613    18A     -0.662558  
      19A     -0.634878    20A     -0.579207    21A     -0.565317  
      22A     -0.557431    23A     -0.534094    24A     -0.517463  
      25A     -0.495397    26A     -0.487576    27A     -0.471606  
      28A     -0.463512    29A     -0.454622    30A     -0.435140  
      31A     -0.430053    32A     -0.416254    33A     -0.407048  
      34A     -0.353097    35A     -0.333517    36A     -0.281229  

    Virtual:                                                              

      37A      0.089205    38A      0.105945    39A      0.125850  
      40A      0.141932    41A      0.153142    42A      0.158013  
      43A      0.169441    44A      0.180953    45A      0.197367  
      46A      0.200882    47A      0.212479    48A      0.219524  
      49A      0.226557    50A      0.235220    51A      0.248120  
      52A      0.250664    53A      0.279383    54A      0.296875  
      55A      0.307379    56A      0.329394    57A      0.344083  
      58A      0.370782    59A      0.381495    60A      0.396410  
      61A      0.415656    62A      0.422675    63A      0.438229  
      64A      0.447031    65A      0.455321    66A      0.473080  
      67A      0.475242    68A      0.525652    69A      0.534926  
      70A      0.551147    71A      0.552470    72A      0.571501  
      73A      0.586567    74A      0.593822    75A      0.620082  
      76A      0.633666    77A      0.654638    78A      0.662075  
      79A      0.664796    80A      0.676386    81A      0.679575  
      82A      0.685734    83A      0.692473    84A      0.700841  
      85A      0.703755    86A      0.708119    87A      0.714744  
      88A      0.725967    89A      0.730547    90A      0.752237  
      91A      0.776191    92A      0.785443    93A      0.811592  
      94A      0.821273    95A      0.890241    96A      0.894853  
      97A      0.948707    98A      0.983784    99A      0.994032  
     100A      1.050169   101A      1.072179   102A      1.098878  
     103A      1.121015   104A      1.170839   105A      1.222368  
     106A      1.251305   107A      1.351930   108A      1.503411  
     109A      1.714226   110A      2.243829   111A      2.322046  
     112A      2.336439   113A      2.350492   114A      2.361789  
     115A      2.370029   116A      2.375294   117A      2.381479  
     118A      2.399494   119A      2.405108   120A      2.412362  
     121A      2.429028   122A      2.441697   123A      2.450870  
     124A      2.670248   125A      2.848765   126A      2.891058  
     127A      2.918916   128A      2.923728   129A      2.944790  
     130A      2.952536   131A      2.975628   132A      3.002228  
     133A      3.023181   134A      3.035636   135A      3.050980  
     136A      3.129266   137A      3.145423   138A      3.170877  
     139A      3.195907   140A      3.242090   141A      3.316771  
     142A      3.785794   143A      4.008825   144A      4.044016  
     145A      4.147808   146A      4.167546   147A      4.196057  
     148A      4.994246   149A      5.074540   150A      5.107574  
     151A     23.433381   152A     23.488295   153A     23.536725  
     154A     23.622004   155A     23.659643   156A     23.706782  
     157A     35.477426   158A     35.565830   159A     50.048257  

    Final Occupation by Irrep:
              A 
    DOCC [    36 ]

  @DF-RKS Final Energy:  -421.63555626681875

   => Energetics <=

    Nuclear Repulsion Energy =            480.1335253545969408
    One-Electron Energy =               -1523.3357041646891048
    Two-Electron Energy =                 662.8351576581565041
    DFT Exchange-Correlation Energy =     -41.2537592314155432
    Empirical Dispersion Energy =          -0.0147758834675318
    VV10 Nonlocal Energy =                  0.0000000000000000
    Total Energy =                       -421.6355562668186963

Computation Completed


Properties will be evaluated at   0.000000,   0.000000,   0.000000 [a0]

Properties computed using the SCF density matrix

  Nuclear Dipole Moment: [e a0]
     X:     9.3130      Y:     2.6112      Z:    -2.8351

  Electronic Dipole Moment: [e a0]
     X:    -9.8404      Y:    -2.3877      Z:     1.2198

  Dipole Moment: [e a0]
     X:    -0.5275      Y:     0.2235      Z:    -1.6152     Total:     1.7138

  Dipole Moment: [D]
     X:    -1.3407      Y:     0.5682      Z:    -4.1056     Total:     4.3561


*** tstop() called on node74.bme.utexas.edu at Wed Jun  8 12:30:53 2022
Module time:
	user time   =      64.07 seconds =       1.07 minutes
	system time =       3.95 seconds =       0.07 minutes
	total time  =         34 seconds =       0.57 minutes
Total time:
	user time   =      64.07 seconds =       1.07 minutes
	system time =       3.95 seconds =       0.07 minutes
	total time  =         34 seconds =       0.57 minutes

*** tstart() called on node74.bme.utexas.edu
*** at Wed Jun  8 12:30:53 2022


         ------------------------------------------------------------
                                   SCF GRAD                          
                          Rob Parrish, Justin Turney,                
                       Andy Simmonett, and Alex Sokolov              
         ------------------------------------------------------------

  ==> Geometry <==

    Molecular point group: c1
    Full point group: C1

    Geometry (in Angstrom), charge = 0, multiplicity = 1:

       Center              X                  Y                   Z               Mass       
    ------------   -----------------  -----------------  -----------------  -----------------
         C            1.546808221301    -0.396376933806    -1.341678968474    12.000000000000
         N            0.580508221301     0.122692066194    -0.344195968474    14.003074004430
         C           -0.798826778699     0.189862066194    -0.874263968474    12.000000000000
         C           -1.830125778699    -0.375820933806     0.127981031526    12.000000000000
         C            0.975111221301     1.376144066194     0.362833031526    12.000000000000
         H           -0.898992778699    -0.385964933806    -1.811148968474     1.007825032230
         H           -1.087256778699     1.217751066194    -1.154175968474     1.007825032230
         N           -3.103596778699    -0.454577933806    -0.375519968474    14.003074004430
         O           -1.569278778699    -0.675991933806     1.293337031526    15.994914619570
         C            2.887421221301    -0.820299933806    -0.709263968474    12.000000000000
         H            1.101514221301    -1.278205933806    -1.832981968474     1.007825032230
         H            1.697779221301     0.360769066194    -2.130635968474     1.007825032230
         C            1.421225221301     1.080675066194     1.805075031526    12.000000000000
         H            1.769372221301     1.894571066194    -0.199912968474     1.007825032230
         H            0.134099221301     2.088564066194     0.391974031526     1.007825032230
         H            2.724846221301    -1.529227933806     0.104600031526     1.007825032230
         H            3.527096221301    -1.302207933806    -1.450453968474     1.007825032230
         H            1.651425221301     2.003916066194     2.338784031526     1.007825032230
         H            0.628466221301     0.563227066194     2.350384031526     1.007825032230
         H           -3.251109778699    -0.466099933806    -1.370257968474     1.007825032230
         H           -3.804878778699    -0.865116933806     0.218215031526     1.007825032230
         H            3.432759221301     0.037614066194    -0.314088968474     1.007825032230
         H            2.309259221301     0.448251066194     1.826667031526     1.007825032230

  Nuclear repulsion =  480.133525354596941

  ==> Basis Set <==

  Basis Set: 6-311G
    Blend: 6-311G
    Number of shells: 105
    Number of basis functions: 159
    Number of Cartesian functions: 159
    Spherical Harmonics?: true
    Max angular momentum: 1

  ==> DFJKGrad: Density-Fitted SCF Gradients <==

    Gradient:                    1
    J tasked:                  Yes
    K tasked:                  Yes
    wK tasked:                 Yes
    Omega:               2.000E-01
    OpenMP threads:              2
    Integrals threads:           2
    Memory [MiB]:             5841
    Schwarz Cutoff:          1E-12
    Fitting Condition:       1E-10

   => Auxiliary Basis Set <=

  Basis Set: (6-311G AUX)
    Blend: CC-PVTZ-JKFIT
    Number of shells: 365
    Number of basis functions: 1131
    Number of Cartesian functions: 1354
    Spherical Harmonics?: true
    Max angular momentum: 4

  ==> DFT Potential <==

   => LibXC <=

    Version 5.1.5
    S. Lehtola, C. Steigemann, M. J. Oliveira, and M. A. Marques, SoftwareX 7, 1 (2018) (10.1016/j.softx.2017.11.002)

   => Composite Functional: WB97X-D <= 

    wB97X-D Hyb-GGA Exchange-Correlation Functional

    J.-D. Chai and M. Head-Gordon, Phys. Chem. Chem. Phys. 10, 6615 (2008) (10.1039/B810189B)

    Deriv               =              1
    GGA                 =           TRUE
    Meta                =          FALSE

    Exchange Hybrid     =           TRUE
    MP2 Hybrid          =          FALSE

   => Exchange-Correlation Functionals <=

    1.0000   wB97X-D range-separated functional

   => Exact (HF) Exchange <=

    0.7780            HF,LR [omega = 0.2000]
    0.2220               HF 

   => LibXC Density Thresholds  <==

    XC_HYB_GGA_XC_WB97X_D:  1.00E-14 

   => Molecular Quadrature <=

    Radial Scheme          =       TREUTLER
    Pruning Scheme         =           NONE
    Nuclear Scheme         =       TREUTLER

    BS radius alpha        =              1
    Pruning alpha          =              1
    Radial Points          =             75
    Spherical Points       =            302
    Total Points           =         482250
    Total Blocks           =           3510
    Max Points             =            256
    Max Functions          =            142
    Weights Tolerance      =       1.00E-15


  -Total Gradient:
     Atom            X                  Y                   Z
    ------   -----------------  -----------------  -----------------
       1       -0.000626154023     0.001705265669    -0.006417387546
       2        0.015422748553    -0.008946015470     0.015636797411
       3       -0.004286400334     0.009300990981    -0.005476067200
       4       -0.004006885710    -0.011318622835     0.008500363444
       5       -0.003381739026     0.008561619468    -0.005743904929
       6       -0.004713751325    -0.000067032066    -0.006097168764
       7        0.000999846752     0.002025748450    -0.004048026099
       8       -0.003153772619     0.008212874536     0.002411014453
       9       -0.000853393374     0.000039534006    -0.005119965934
      10        0.005411180474    -0.003320544442     0.003213506978
      11       -0.001167404482    -0.005692289281    -0.005768908296
      12       -0.005560509903     0.001267779369     0.000905930188
      13        0.001632104728    -0.001905591558     0.001376734336
      14       -0.000486560159     0.002951668006    -0.001403935192
      15       -0.001428378410     0.007533622139     0.000858774250
      16        0.002604156539    -0.001601430844     0.000668848075
      17        0.000472837198    -0.000612424625     0.001745611376
      18       -0.001108088801    -0.002503882726     0.000106728300
      19       -0.000207034208    -0.000215575362     0.004576895731
      20        0.003364472813    -0.003154445743    -0.002352323921
      21        0.000571762508    -0.001899437621     0.001667071784
      22        0.000356349769    -0.000493386032    -0.000707875725
      23        0.000265509110     0.000197649529     0.001406680227


*** tstop() called on node74.bme.utexas.edu at Wed Jun  8 12:31:08 2022
Module time:
	user time   =      27.72 seconds =       0.46 minutes
	system time =       0.48 seconds =       0.01 minutes
	total time  =         15 seconds =       0.25 minutes
Total time:
	user time   =      91.80 seconds =       1.53 minutes
	system time =       4.43 seconds =       0.07 minutes
	total time  =         49 seconds =       0.82 minutes

			-----------------------------------------
			 OPTKING 2.0: for geometry optimizations 
			  - R.A. King,  Bethel University        
			-----------------------------------------
	At level 1: Red. Int., RFO, no backsteps, dynamic trust

	Internal coordinates to be generated automatically.
	Detected frag 1 with atoms:  1 2 3 4 5 6 7 8 9 10 11 12 13 14 15 16 17 18 19 20
	 21 22 23
	---Fragment 1 Bond Connectivity---
	 1 : 2 10 11 12
	 2 : 1 3 5
	 3 : 2 4 6 7
	 4 : 3 8 9
	 5 : 2 13 14 15
	 6 : 3
	 7 : 3
	 8 : 4 20 21
	 9 : 4
	 10 : 1 16 17 22
	 11 : 1
	 12 : 1
	 13 : 5 18 19 23
	 14 : 5
	 15 : 5
	 16 : 10
	 17 : 10
	 18 : 13
	 19 : 13
	 20 : 8
	 21 : 8
	 22 : 10
	 23 : 13

	Assuming in current code that numbering for constraints corresponds to unified fragment.
	Frozen dihedral atom list: 
	     1     2     3     4
	    10     1     2     5
	    13     5     2     1
	     2     3     4     8
	     3     4     8    20
	---Fragment 1 Geometry and Gradient---
	 C           2.9230439069       -0.7490438473       -2.5354057987
	 N           1.0970015518        0.2318544029       -0.6504361139
	 C          -1.5095638334        0.3587873067       -1.6521194618
	 C          -3.4584364969       -0.7101986371        0.2418490988
	 C           1.8426931501        2.6005353943        0.6856550589
	 H          -1.6988501405       -0.7293680189       -3.4225755228
	 H          -2.0546175398        2.3012160041       -2.1810764810
	 N          -5.8649479156       -0.8590277976       -0.7096298951
	 O          -2.9655071062       -1.2774396179        2.4440527775
	 C           5.4564353171       -1.5501422156       -1.3403146511
	 H           2.0815602016       -2.4154591468       -3.4638339133
	 H           3.2083377498        0.6817547296       -4.0263184535
	 C           2.6857264309        2.0421799057        3.4110974455
	 H           3.3436289123        3.5802204403       -0.3777807593
	 H           0.2534108019        3.9468140806        0.7407235679
	 H           5.1492130922       -2.8898219783        0.1976654123
	 H           6.6652458764       -2.4608163533       -2.7409607580
	 H           3.1207413849        3.7868525435        4.4196612862
	 H           1.1876290374        1.0643449016        4.4415821092
	 H          -6.1437070855       -0.8808012220       -2.5894122816
	 H          -7.1901788323       -1.6348340714        0.4123666460
	 H           6.4869747829        0.0710802836       -0.5935421294
	 H           4.3638674809        0.8470717506        3.4519004120
	            -0.0006261540        0.0017052657       -0.0064173875
	             0.0154227486       -0.0089460155        0.0156367974
	            -0.0042864003        0.0093009910       -0.0054760672
	            -0.0040068857       -0.0113186228        0.0085003634
	            -0.0033817390        0.0085616195       -0.0057439049
	            -0.0047137513       -0.0000670321       -0.0060971688
	             0.0009998468        0.0020257484       -0.0040480261
	            -0.0031537726        0.0082128745        0.0024110145
	            -0.0008533934        0.0000395340       -0.0051199659
	             0.0054111805       -0.0033205444        0.0032135070
	            -0.0011674045       -0.0056922893       -0.0057689083
	            -0.0055605099        0.0012677794        0.0009059302
	             0.0016321047       -0.0019055916        0.0013767343
	            -0.0004865602        0.0029516680       -0.0014039352
	            -0.0014283784        0.0075336221        0.0008587742
	             0.0026041565       -0.0016014308        0.0006688481
	             0.0004728372       -0.0006124246        0.0017456114
	            -0.0011080888       -0.0025038827        0.0001067283
	            -0.0002070342       -0.0002155754        0.0045768957
	             0.0033644728       -0.0031544457       -0.0023523239
	             0.0005717625       -0.0018994376        0.0016670718
	             0.0003563498       -0.0004933860       -0.0007078757
	             0.0002655091        0.0001976495        0.0014066802

	Previous optimization step data not found.  Starting new optimization.

	---Fragment 1 Intrafragment Coordinates---
	 - Coordinate -           - BOHR/RAD -       - ANG/DEG -
	 R(1,2)           =         2.801732	       1.482613
	 R(1,10)          =         2.913430	       1.541721
	 R(1,11)          =         2.084949	       1.103308
	 R(1,12)          =         2.086000	       1.103864
	 R(2,3)           =         2.795293	       1.479206
	 R(2,5)           =         2.819902	       1.492228
	 R(3,4)           =         2.920266	       1.545338
	 R(3,6)           =         2.086726	       1.104248
	 R(3,7)           =         2.085643	       1.103675
	 R(4,8)           =         2.592057	       1.371657
	 R(4,9)           =         2.326896	       1.231340
	 R(5,13)          =         2.906975	       1.538305
	 R(5,14)          =         2.084103	       1.102860
	 R(5,15)          =         2.083583	       1.102585
	 R(8,20)          =         1.900464	       1.005682
	 R(8,21)          =         1.901838	       1.006409
	 R(10,16)         =         2.062646	       1.091505
	 R(10,17)         =         2.062125	       1.091230
	 R(10,22)         =         2.061078	       1.090676
	 R(13,18)         =         2.061631	       1.090968
	 R(13,19)         =         2.064547	       1.092511
	 R(13,23)         =         2.060608	       1.090427
	 B(1,2,3)         =         1.963360	     112.492213
	 B(1,2,5)         =         2.026958	     116.136141
	 B(1,10,16)       =         1.933639	     110.789357
	 B(1,10,17)       =         1.931084	     110.642958
	 B(1,10,22)       =         1.946703	     111.537881
	 B(2,1,10)        =         1.968201	     112.769633
	 B(2,1,11)        =         1.892695	     108.443458
	 B(2,1,12)        =         1.906948	     109.260044
	 B(2,3,4)         =         1.953330	     111.917542
	 B(2,3,6)         =         1.944365	     111.403906
	 B(2,3,7)         =         1.957207	     112.139696
	 B(2,5,13)        =         1.938601	     111.073666
	 B(2,5,14)        =         1.921476	     110.092451
	 B(2,5,15)        =         1.932175	     110.705482
	 B(3,2,5)         =         1.958679	     112.224015
	 B(3,4,8)         =         1.985084	     113.736935
	 B(3,4,9)         =         2.167197	     124.171233
	 B(4,3,6)         =         1.874273	     107.387952
	 B(4,3,7)         =         1.908162	     109.329653
	 B(4,8,20)        =         2.094300	     119.994572
	 B(4,8,21)        =         2.041822	     116.987805
	 B(5,13,18)       =         1.936177	     110.934773
	 B(5,13,19)       =         1.926768	     110.395668
	 B(5,13,23)       =         1.945654	     111.477776
	 B(6,3,7)         =         1.820145	     104.286644
	 B(8,4,9)         =         2.129495	     122.011083
	 B(10,1,11)       =         1.890036	     108.291059
	 B(10,1,12)       =         1.942127	     111.275688
	 B(11,1,12)       =         1.859958	     106.567729
	 B(13,5,14)       =         1.938882	     111.089755
	 B(13,5,15)       =         1.897087	     108.695066
	 B(14,5,15)       =         1.832869	     105.015671
	 B(16,10,17)      =         1.882767	     107.874609
	 B(16,10,22)      =         1.891464	     108.372893
	 B(17,10,22)      =         1.875879	     107.479963
	 B(18,13,19)      =         1.885723	     108.043989
	 B(18,13,23)      =         1.885236	     108.016076
	 B(19,13,23)      =         1.882170	     107.840422
	 B(20,8,21)       =         2.067638	     118.466934
	*D(1,2,3,4)       =         2.346744	     134.458513
	 D(1,2,3,6)       =         0.248075	      14.213630
	 D(1,2,3,7)       =        -1.784603	    -102.250216
	*D(1,2,5,13)      =        -1.831743	    -104.951145
	 D(1,2,5,14)      =         0.323296	      18.523472
	 D(1,2,5,15)      =         2.342116	     134.193376
	 D(2,1,10,16)     =         0.939584	      53.834193
	 D(2,1,10,17)     =         3.026907	     173.428970
	 D(2,1,10,22)     =        -1.169072	     -66.982900
	*D(2,3,4,8)       =        -3.034901	    -173.887015
	 D(2,3,4,9)       =         0.162863	       9.331357
	 D(2,5,13,18)     =        -3.081696	    -176.568179
	 D(2,5,13,19)     =        -0.991844	     -56.828491
	 D(2,5,13,23)     =         1.099716	      63.009062
	 D(3,2,1,10)      =        -2.876941	    -164.836562
	 D(3,2,1,11)      =        -0.783953	     -44.917180
	 D(3,2,1,12)      =         1.236812	      70.864121
	 D(3,2,5,13)      =         2.158751	     123.687330
	 D(3,2,5,14)      =        -1.969396	    -112.838053
	 D(3,2,5,15)      =         0.049425	       2.831851
	*D(3,4,8,20)      =         0.364726	      20.897260
	 D(3,4,8,21)      =         3.082613	     176.620716
	 D(4,3,2,5)       =        -1.612127	     -92.368086
	*D(5,2,1,10)      =         1.115745	      63.927486
	 D(5,2,1,11)      =        -3.074452	    -176.153131
	 D(5,2,1,12)      =        -1.053687	     -60.371831
	 D(5,2,3,6)       =         2.572389	     147.387030
	 D(5,2,3,7)       =         0.539711	      30.923185
	 D(6,3,4,8)       =        -0.895798	     -51.325420
	 D(6,3,4,9)       =         2.301966	     131.892952
	 D(7,3,4,8)       =         1.068997	      61.248993
	 D(7,3,4,9)       =        -2.016425	    -115.532636
	 D(9,4,8,20)      =        -2.831673	    -162.242910
	 D(9,4,8,21)      =        -0.113786	      -6.519454
	 D(11,1,10,16)    =        -1.154936	     -66.172961
	 D(11,1,10,17)    =         0.932387	      53.421817
	 D(11,1,10,22)    =         3.019593	     173.009947
	 D(12,1,10,16)    =         3.089567	     177.019138
	 D(12,1,10,17)    =        -1.106296	     -63.386084
	 D(12,1,10,22)    =         0.980911	      56.202046
	 D(14,5,13,18)    =         1.056449	      60.530050
	 D(14,5,13,19)    =        -3.136885	    -179.730262
	 D(14,5,13,23)    =        -1.045325	     -59.892709
	 D(15,5,13,18)    =        -0.951822	     -54.535367
	 D(15,5,13,19)    =         1.138030	      65.204320
	 D(15,5,13,23)    =        -3.053595	    -174.958127
	 R(5,9)           =         6.422573	       3.398679
	 R(9,13)          =         6.625065	       3.505834
	 R(10,13)         =         6.569439	       3.476397

	Current energy   :      -421.6355562668

	Generating empirical Hessian (Schlegel '84) for each fragment.
	Taking RFO optimization step.
	Going to follow RFO solution 1.
	Using RFO vector 1.
	Norm of target step-size    0.31332
	Projected energy change by RFO approximation:        -0.0056329145

	Back-transformation to cartesian coordinates...
	Successfully converged to displaced geometry.

	Back-transformation to cartesian coordinates to adjust frozen coordinates...
	Successfully converged to displaced geometry.

	--- Internal Coordinate Step in ANG or DEG, aJ/ANG or AJ/DEG ---
	 ---------------------------------------------------------------------------
	   Coordinate                Previous        Force       Change         New 
	   ----------                --------       ------       ------       ------
	    1 R(1,2)          =      1.482613    -0.042877    -0.009453     1.473160
	    2 R(1,10)         =      1.541721    -0.087939    -0.015756     1.525965
	    3 R(1,11)         =      1.103308    -0.062577    -0.007393     1.095915
	    4 R(1,12)         =      1.103864     0.004544     0.004212     1.108075
	    5 R(2,3)          =      1.479206    -0.123317    -0.017557     1.461649
	    6 R(2,5)          =      1.492228    -0.074234    -0.008922     1.483306
	    7 R(3,4)          =      1.545338    -0.063079    -0.013169     1.532169
	    8 R(3,6)          =      1.104248    -0.046491    -0.004786     1.099462
	    9 R(3,7)          =      1.103675    -0.021731     0.000382     1.104057
	   10 R(4,8)          =      1.371657     0.012712     0.004981     1.376638
	   11 R(4,9)          =      1.231340     0.049984     0.007729     1.239069
	   12 R(5,13)         =      1.538305    -0.057772    -0.006709     1.531596
	   13 R(5,14)         =      1.102860    -0.014443    -0.001765     1.101095
	   14 R(5,15)         =      1.102585    -0.049361    -0.006833     1.095752
	   15 R(8,20)         =      1.005682    -0.015336     0.001673     1.007355
	   16 R(8,21)         =      1.006409    -0.011335    -0.000913     1.005497
	   17 R(10,16)        =      1.091505    -0.009546     0.001507     1.093012
	   18 R(10,17)        =      1.091230     0.005340     0.002338     1.093568
	   19 R(10,22)        =      1.090676     0.003792     0.004917     1.095592
	   20 R(13,18)        =      1.090968     0.018847     0.007976     1.098944
	   21 R(13,19)        =      1.092511    -0.020842    -0.002817     1.089694
	   22 R(13,23)        =      1.090427    -0.000895     0.002224     1.092651
	   23 B(1,2,3)        =    112.492213     0.000124     1.227280   113.719494
	   24 B(1,2,5)        =    116.136141    -0.000213    -1.054774   115.081366
	   25 B(1,10,16)      =    110.789357    -0.000275    -1.167770   109.621587
	   26 B(1,10,17)      =    110.642958    -0.000109    -0.408982   110.233976
	   27 B(1,10,22)      =    111.537881     0.000032     0.092955   111.630837
	   28 B(2,1,10)       =    112.769633     0.000256    -0.323392   112.446241
	   29 B(2,1,11)       =    108.443458    -0.000273    -1.328142   107.115317
	   30 B(2,1,12)       =    109.260044     0.000271     2.466959   111.727003
	   31 B(2,3,4)        =    111.917542     0.000343     1.606348   113.523890
	   32 B(2,3,6)        =    111.403906    -0.000362    -2.308684   109.095223
	   33 B(2,3,7)        =    112.139696     0.000019     0.340130   112.479826
	   34 B(2,5,13)       =    111.073666     0.000497     1.782775   112.856441
	   35 B(2,5,14)       =    110.092451    -0.000127    -0.250077   109.842374
	   36 B(2,5,15)       =    110.705482    -0.000372    -2.381777   108.323706
	   37 B(3,2,5)        =    112.224015     0.000237     2.949305   115.173321
	   38 B(3,4,8)        =    113.736935     0.000005    -0.216274   113.520661
	   39 B(3,4,9)        =    124.171233     0.000078     0.363057   124.534290
	   40 B(4,3,6)        =    107.387952     0.000036     0.227370   107.615322
	   41 B(4,3,7)        =    109.329653    -0.000281    -1.533398   107.796255
	   42 B(4,8,20)       =    119.994572     0.000284     2.012198   122.006771
	   43 B(4,8,21)       =    116.987805     0.000050     0.306594   117.294399
	   44 B(5,13,18)      =    110.934773    -0.000013     0.142698   111.077471
	   45 B(5,13,19)      =    110.395668    -0.000356    -1.703534   108.692134
	   46 B(5,13,23)      =    111.477776    -0.000090    -0.477686   111.000089
	   47 B(6,3,7)        =    104.286644     0.000231     1.665426   105.952070
	   48 B(8,4,9)        =    122.011083    -0.000090    -0.349000   121.662083
	   49 B(10,1,11)      =    108.291059    -0.000057    -0.066335   108.224725
	   50 B(10,1,12)      =    111.275688    -0.000331    -1.612777   109.662911
	   51 B(11,1,12)      =    106.567729     0.000122     0.880060   107.447788
	   52 B(13,5,14)      =    111.089755    -0.000145    -0.449472   110.640282
	   53 B(13,5,15)      =    108.695066    -0.000091     0.003531   108.698597
	   54 B(14,5,15)      =    105.015671     0.000211     1.211873   106.227544
	   55 B(16,10,17)     =    107.874609     0.000211     0.836120   108.710730
	   56 B(16,10,22)     =    108.372893     0.000090     0.106820   108.479713
	   57 B(17,10,22)     =    107.479963     0.000072     0.613157   108.093120
	   58 B(18,13,19)     =    108.043989     0.000233     1.349233   109.393222
	   59 B(18,13,23)     =    108.016076     0.000081     0.588927   108.605003
	   60 B(19,13,23)     =    107.840422     0.000169     0.170998   108.011419
	   61 B(20,8,21)      =    118.466934    -0.000240    -0.624820   117.842114
	   62 *D(1,2,3,4)     =    134.458513     0.000000    -0.000000   134.458513
	   63 D(1,2,3,6)      =     14.213630    -0.000007     0.246800    14.460430
	   64 D(1,2,3,7)      =   -102.250216    -0.000022    -0.547843  -102.798058
	   65 *D(1,2,5,13)    =   -104.951145    -0.000000    -0.000000  -104.951145
	   66 D(1,2,5,14)     =     18.523472     0.000016     0.497527    19.020999
	   67 D(1,2,5,15)     =    134.193376     0.000008     0.451874   134.645250
	   68 D(2,1,10,16)    =     53.834193    -0.000042    -0.668150    53.166043
	   69 D(2,1,10,17)    =    173.428970    -0.000039    -0.634331   172.794639
	   70 D(2,1,10,22)    =    -66.982900    -0.000030    -0.074679   -67.057579
	   71 *D(2,3,4,8)     =   -173.887015     0.000000    -0.000000  -173.887015
	   72 D(2,3,4,9)      =      9.331357     0.000027     2.824536    12.155893
	   73 D(2,5,13,18)    =   -176.568179     0.000021     0.786190  -175.781989
	   74 D(2,5,13,19)    =    -56.828491     0.000033     1.448951   -55.379541
	   75 D(2,5,13,23)    =     63.009062     0.000013     0.265476    63.274537
	   76 D(3,2,1,10)     =   -164.836562     0.000061     4.704655  -160.131907
	   77 D(3,2,1,11)     =    -44.917180     0.000039     3.553823   -41.363356
	   78 D(3,2,1,12)     =     70.864121     0.000072     5.187526    76.051647
	   79 D(3,2,5,13)     =    123.687330    -0.000049    -3.932235   119.755095
	   80 D(3,2,5,14)     =   -112.838053    -0.000034    -3.434708  -116.272762
	   81 D(3,2,5,15)     =      2.831851    -0.000042    -3.480361    -0.648510
	   82 *D(3,4,8,20)    =     20.897260     0.000000    -0.000000    20.897260
	   83 D(3,4,8,21)     =    176.620716     0.000040     4.716306   181.337021
	   84 D(4,3,2,5)      =    -92.368086     0.000008     2.725441   -89.642645
	   85 *D(5,2,1,10)    =     63.927486     0.000000     0.000000    63.927486
	   86 D(5,2,1,11)     =   -176.153131    -0.000022    -1.150832  -177.303963
	   87 D(5,2,1,12)     =    -60.371831     0.000010     0.482871   -59.888960
	   88 D(5,2,3,6)      =    147.387030     0.000001     2.972241   150.359271
	   89 D(5,2,3,7)      =     30.923185    -0.000014     2.177598    33.100783
	   90 D(6,3,4,8)      =    -51.325420    -0.000049    -1.727110   -53.052530
	   91 D(6,3,4,9)      =    131.892952    -0.000021     1.097426   132.990378
	   92 D(7,3,4,8)      =     61.248993    -0.000014    -0.425130    60.823863
	   93 D(7,3,4,9)      =   -115.532636     0.000013     2.399406  -113.133230
	   94 D(9,4,8,20)     =   -162.242910    -0.000025    -2.707721  -164.950631
	   95 D(9,4,8,21)     =     -6.519454     0.000015     2.008585    -4.510869
	   96 D(11,1,10,16)   =    -66.172961     0.000008     1.222947   -64.950014
	   97 D(11,1,10,17)   =     53.421817     0.000011     1.256765    54.678582
	   98 D(11,1,10,22)   =    173.009947     0.000020     1.816418   174.826365
	   99 D(12,1,10,16)   =    177.019138     0.000025     1.102819   178.121957
	  100 D(12,1,10,17)   =    -63.386084     0.000029     1.136637   -62.249447
	  101 D(12,1,10,22)   =     56.202046     0.000037     1.696290    57.898336
	  102 D(14,5,13,18)   =     60.530050     0.000001     0.156131    60.686181
	  103 D(14,5,13,19)   =   -179.730262     0.000013     0.818891  -178.911371
	  104 D(14,5,13,23)   =    -59.892709    -0.000006    -0.364584   -60.257293
	  105 D(15,5,13,18)   =    -54.535367    -0.000026    -1.057848   -55.593215
	  106 D(15,5,13,19)   =     65.204320    -0.000015    -0.395088    64.809233
	  107 D(15,5,13,23)   =   -174.958127    -0.000034    -1.578563  -176.536689
	  108 R(5,9)          =      3.398679    -0.023369    -0.007225     3.391454
	  109 R(9,13)         =      3.505834     0.014146    -0.033008     3.472826
	  110 R(10,13)        =      3.476397    -0.026440    -0.025682     3.450715
	 ---------------------------------------------------------------------------
	Successfully symmetrized geometry.

  ==> Convergence Check <==

  Measures of convergence in internal coordinates in au.
  Criteria marked as inactive (o), active & met (*), and active & unmet ( ).
  --------------------------------------------------------------------------------------------- ~
   Step     Total Energy     Delta E     MAX Force     RMS Force      MAX Disp      RMS Disp    ~
  --------------------------------------------------------------------------------------------- ~
    Convergence Criteria             o    2.50e-03 *    1.70e-03 *    1.00e-02 *    6.70e-03 *  ~
  --------------------------------------------------------------------------------------------- ~
      1    -421.63555627   -4.22e+02 o    1.50e-02      3.31e-03      9.05e-02      2.84e-02    ~
  ---------------------------------------------------------------------------------------------

	Writing optimization data to binary file.
	Structure for next step:
	Cartesian Geometry (in Angstrom)
	    C     1.5192270927  -0.3669841598  -1.3827918184
	    N     0.5806240730   0.1566090692  -0.3752831674
	    C    -0.7927396512   0.2812607204  -0.8597938147
	    C    -1.8387943327  -0.2565844512   0.1220591159
	    C     1.0802909256   1.3121725895   0.4090652299
	    H    -0.8958064599  -0.2828830493  -1.7978421421
	    H    -1.0619627109   1.3242729253  -1.1018386647
	    N    -3.1179871993  -0.2623632120  -0.3866298771
	    O    -1.6068306874  -0.5542507428   1.3022627983
	    C     2.7881974106  -0.9374871132  -0.7560464295
	    H     1.0048500296  -1.1766290038  -1.9128114854
	    H     1.7875895250   0.4032396447  -2.1328371312
	    C     1.4863246786   0.9316922528   1.8360048612
	    H     1.9208599229   1.7875461423  -0.1199662953
	    H     0.2850965494   2.0644076954   0.4588620949
	    H     2.5218634246  -1.6730567457   0.0072882169
	    H     3.3988253408  -1.4287658521  -1.5187184939
	    H     1.7805033639   1.8193824817   2.4131905208
	    H     0.6398919162   0.4478167748   2.3226771504
	    H    -3.2986558127  -0.2422499272  -1.3774468619
	    H    -3.8533084139  -0.5853852921   0.2183358520
	    H     3.3943498819  -0.1544562555  -0.2872562549
	    H     2.3212161834   0.2268410199   1.8307873333
			--------------------------
			 OPTKING Finished Execution 
			--------------------------

    Structure for next step:
    Molecular point group: c1
    Full point group: C1

    Geometry (in Angstrom), charge = 0, multiplicity = 1:

    C            1.521523565248    -0.395979799010    -1.379420776475
    N            0.582920541815     0.127613432139    -0.371912121510
    C           -0.790443187724     0.252265083813    -0.856422770688
    C           -1.836497873353    -0.285580089898     0.125430163721
    C            1.082587396371     1.283176956901     0.412436278856
    H           -0.893509996905    -0.311878688124    -1.794471101781
    H           -1.059666248526     1.295277292824    -1.098467621658
    N           -3.115690745007    -0.291358850768    -0.383258831311
    O           -1.604534227185    -0.583246382693     1.305633850719
    C            2.790493888131    -0.966482754605    -0.752675385162
    H            1.007146500078    -1.205624646098    -1.909440445614
    H            1.789885998614     0.374244008540    -2.129466092200
    C            1.488621151021     0.902696618736     1.839375915749
    H            1.923156397036     1.758550511632    -0.116595248405
    H            0.287393017050     2.035412065837     0.462233144090
    H            2.524159901090    -1.702052390011     0.010659264291
    H            3.401121820679    -1.457761495468    -1.515347452497
    H            1.782799837485     1.790386851086     2.416561577584
    H            0.642188385295     0.418821138850     2.326048206839
    H           -3.296359359120    -0.271245565823    -1.374075819932
    H           -3.851011962508    -0.614380932166     0.221706900231
    H            3.396646361819    -0.183451893846    -0.283885208710
    H            2.323512659117     0.197845383034     1.834158387827


Scratch directory: /scratch/bdw2292/Psi4-4_27_Index_0-farH_in17/

Scratch directory: /scratch/bdw2292/Psi4-4_27_Index_0-farH_in17/
gradient() will perform analytic gradient computation.

*** tstart() called on node74.bme.utexas.edu
*** at Wed Jun  8 12:31:08 2022

   => Loading Basis Set <=

    Name: 6-311G
    Role: ORBITAL
    Keyword: BASIS
    atoms 1, 3-5, 10, 13    entry C          line    92 file /home/bdw2292/miniconda3/envs/newamoebamdpoltype/share/psi4/basis/6-311g.gbs 
    atoms 2, 8              entry N          line   109 file /home/bdw2292/miniconda3/envs/newamoebamdpoltype/share/psi4/basis/6-311g.gbs 
    atoms 6-7, 11-12, 14-23 entry H          line    21 file /home/bdw2292/miniconda3/envs/newamoebamdpoltype/share/psi4/basis/6-311g.gbs 
    atoms 9                 entry O          line   126 file /home/bdw2292/miniconda3/envs/newamoebamdpoltype/share/psi4/basis/6-311g.gbs 

   => WB97X-D: Empirical Dispersion <=

    Chai and Head-Gordon Dispersion Correction
    Chai, J.-D.; Head-Gordon, M. (2010), J. Chem. Phys., 132: 6615-6620

        s6 =       1.000000


         ---------------------------------------------------------
                                   SCF
               by Justin Turney, Rob Parrish, Andy Simmonett
                          and Daniel G. A. Smith
                              RKS Reference
                        2 Threads,   7788 MiB Core
         ---------------------------------------------------------

  ==> Geometry <==

    Molecular point group: c1
    Full point group: C1

    Geometry (in Angstrom), charge = 0, multiplicity = 1:

       Center              X                  Y                   Z               Mass       
    ------------   -----------------  -----------------  -----------------  -----------------
         C            1.521523565248    -0.395979799010    -1.379420776475    12.000000000000
         N            0.582920541815     0.127613432139    -0.371912121510    14.003074004430
         C           -0.790443187724     0.252265083813    -0.856422770688    12.000000000000
         C           -1.836497873353    -0.285580089898     0.125430163721    12.000000000000
         C            1.082587396371     1.283176956901     0.412436278856    12.000000000000
         H           -0.893509996905    -0.311878688124    -1.794471101781     1.007825032230
         H           -1.059666248526     1.295277292824    -1.098467621658     1.007825032230
         N           -3.115690745007    -0.291358850768    -0.383258831311    14.003074004430
         O           -1.604534227185    -0.583246382693     1.305633850719    15.994914619570
         C            2.790493888131    -0.966482754605    -0.752675385162    12.000000000000
         H            1.007146500078    -1.205624646098    -1.909440445614     1.007825032230
         H            1.789885998614     0.374244008540    -2.129466092200     1.007825032230
         C            1.488621151021     0.902696618736     1.839375915749    12.000000000000
         H            1.923156397036     1.758550511632    -0.116595248405     1.007825032230
         H            0.287393017050     2.035412065837     0.462233144090     1.007825032230
         H            2.524159901090    -1.702052390011     0.010659264291     1.007825032230
         H            3.401121820679    -1.457761495468    -1.515347452497     1.007825032230
         H            1.782799837485     1.790386851086     2.416561577584     1.007825032230
         H            0.642188385295     0.418821138850     2.326048206839     1.007825032230
         H           -3.296359359120    -0.271245565823    -1.374075819932     1.007825032230
         H           -3.851011962508    -0.614380932166     0.221706900231     1.007825032230
         H            3.396646361819    -0.183451893846    -0.283885208710     1.007825032230
         H            2.323512659117     0.197845383034     1.834158387827     1.007825032230

  Running in c1 symmetry.

  Rotational constants: A =      0.07929  B =      0.03227  C =      0.02681 [cm^-1]
  Rotational constants: A =   2376.94848  B =    967.46769  C =    803.88594 [MHz]
  Nuclear repulsion =  481.551649570651989

  Charge       = 0
  Multiplicity = 1
  Electrons    = 72
  Nalpha       = 36
  Nbeta        = 36

  ==> Algorithm <==

  SCF Algorithm Type is DF.
  DIIS enabled.
  MOM disabled.
  Fractional occupation disabled.
  Guess Type is READ.
  Energy threshold   = 1.00e-08
  Density threshold  = 1.00e-08
  Integral threshold = 1.00e-12

  ==> Primary Basis <==

  Basis Set: 6-311G
    Blend: 6-311G
    Number of shells: 105
    Number of basis functions: 159
    Number of Cartesian functions: 159
    Spherical Harmonics?: true
    Max angular momentum: 1

  ==> DFT Potential <==

   => LibXC <=

    Version 5.1.5
    S. Lehtola, C. Steigemann, M. J. Oliveira, and M. A. Marques, SoftwareX 7, 1 (2018) (10.1016/j.softx.2017.11.002)

   => Composite Functional: WB97X-D <= 

    wB97X-D Hyb-GGA Exchange-Correlation Functional

    J.-D. Chai and M. Head-Gordon, Phys. Chem. Chem. Phys. 10, 6615 (2008) (10.1039/B810189B)

    Deriv               =              1
    GGA                 =           TRUE
    Meta                =          FALSE

    Exchange Hybrid     =           TRUE
    MP2 Hybrid          =          FALSE

   => Exchange-Correlation Functionals <=

    1.0000   wB97X-D range-separated functional

   => Exact (HF) Exchange <=

    0.7780            HF,LR [omega = 0.2000]
    0.2220               HF 

   => LibXC Density Thresholds  <==

    XC_HYB_GGA_XC_WB97X_D:  1.00E-14 

   => Molecular Quadrature <=

    Radial Scheme          =       TREUTLER
    Pruning Scheme         =           NONE
    Nuclear Scheme         =       TREUTLER

    BS radius alpha        =              1
    Pruning alpha          =              1
    Radial Points          =             75
    Spherical Points       =            302
    Total Points           =         481954
    Total Blocks           =           3523
    Max Points             =            256
    Max Functions          =            142
    Weights Tolerance      =       1.00E-15

   => Loading Basis Set <=

    Name: (6-311G AUX)
    Role: JKFIT
    Keyword: DF_BASIS_SCF
    atoms 1, 3-5, 10, 13    entry C          line   125 file /home/bdw2292/miniconda3/envs/newamoebamdpoltype/share/psi4/basis/cc-pvtz-jkfit.gbs 
    atoms 2, 8              entry N          line   177 file /home/bdw2292/miniconda3/envs/newamoebamdpoltype/share/psi4/basis/cc-pvtz-jkfit.gbs 
    atoms 6-7, 11-12, 14-23 entry H          line    51 file /home/bdw2292/miniconda3/envs/newamoebamdpoltype/share/psi4/basis/cc-pvtz-jkfit.gbs 
    atoms 9                 entry O          line   229 file /home/bdw2292/miniconda3/envs/newamoebamdpoltype/share/psi4/basis/cc-pvtz-jkfit.gbs 

   => Loading Basis Set <=

    Name: 6-311G
    Role: ORBITAL
    Keyword: BASIS
    atoms 1, 3-5, 10, 13    entry C          line    92 file /home/bdw2292/miniconda3/envs/newamoebamdpoltype/share/psi4/basis/6-311g.gbs 
    atoms 2, 8              entry N          line   109 file /home/bdw2292/miniconda3/envs/newamoebamdpoltype/share/psi4/basis/6-311g.gbs 
    atoms 6-7, 11-12, 14-23 entry H          line    21 file /home/bdw2292/miniconda3/envs/newamoebamdpoltype/share/psi4/basis/6-311g.gbs 
    atoms 9                 entry O          line   126 file /home/bdw2292/miniconda3/envs/newamoebamdpoltype/share/psi4/basis/6-311g.gbs 

  Reading orbitals from file /scratch/bdw2292/Psi4-4_27_Index_0-farH_in17/4_27_Index_0-opt-1_2-3-134.default.1107062.180.npy, no projection.

  ==> Integral Setup <==

  DFHelper Memory: AOs need 0.587 GiB; user supplied 4.296 GiB. Using in-core AOs.

  ==> MemDFJK: Density-Fitted J/K Matrices <==

    J tasked:                   Yes
    K tasked:                   Yes
    wK tasked:                  Yes
    Omega:                2.000E-01
    OpenMP threads:               2
    Memory [MiB]:              4398
    Algorithm:                 Core
    Schwarz Cutoff:           1E-12
    Mask sparsity (%):      10.4980
    Fitting Condition:        1E-10

   => Auxiliary Basis Set <=

  Basis Set: (6-311G AUX)
    Blend: CC-PVTZ-JKFIT
    Number of shells: 365
    Number of basis functions: 1131
    Number of Cartesian functions: 1354
    Spherical Harmonics?: true
    Max angular momentum: 4

  Cached 100.0% of DFT collocation blocks in 1.409 [GiB].

  Minimum eigenvalue in the overlap matrix is 2.4441085858E-03.
  Reciprocal condition number of the overlap matrix is 3.3144147561E-04.
    Using symmetric orthogonalization.

  ==> Pre-Iterations <==

  SCF Guess: Orbitals guess was supplied from a previous computation.

   -------------------------------------------------------
    Irrep   Nso     Nmo     Nalpha   Nbeta   Ndocc  Nsocc
   -------------------------------------------------------
     A        159     159      36      36      36       0
   -------------------------------------------------------
    Total     159     159      36      36      36       0
   -------------------------------------------------------

  ==> Iterations <==

                           Total Energy        Delta E     RMS |[F,P]|

   @DF-RKS iter   0:  -421.62313126221204   -4.21623e+02   1.34931e-03 
   @DF-RKS iter   1:  -421.63802329078845   -1.48920e-02   1.95748e-04 DIIS
   @DF-RKS iter   2:  -421.63889333381684   -8.70043e-04   1.05250e-04 DIIS
   @DF-RKS iter   3:  -421.63904689957678   -1.53566e-04   3.88255e-05 DIIS
   @DF-RKS iter   4:  -421.63907625782480   -2.93582e-05   1.06235e-05 DIIS
   @DF-RKS iter   5:  -421.63907787821819   -1.62039e-06   3.71453e-06 DIIS
   @DF-RKS iter   6:  -421.63907827456637   -3.96348e-07   1.42246e-06 DIIS
   @DF-RKS iter   7:  -421.63907834736278   -7.27964e-08   8.73287e-07 DIIS
   @DF-RKS iter   8:  -421.63907836874210   -2.13793e-08   4.18514e-07 DIIS
   @DF-RKS iter   9:  -421.63907837242340   -3.68129e-09   8.90281e-08 DIIS
   @DF-RKS iter  10:  -421.63907837283341   -4.10012e-10   2.50479e-08 DIIS
   @DF-RKS iter  11:  -421.63907837284864   -1.52340e-11   1.00020e-08 DIIS
   @DF-RKS iter  12:  -421.63907837285024   -1.59162e-12   2.76317e-09 DIIS
  Energy and wave function converged.


  ==> Post-Iterations <==

   Electrons on quadrature grid:
      Ntotal   =   72.0000066406 ; deviation = 6.641e-06 

    Orbital Energies [Eh]
    ---------------------

    Doubly Occupied:                                                      

       1A    -19.213864     2A    -14.455946     3A    -14.422032  
       4A    -10.400678     5A    -10.328967     6A    -10.310628  
       7A    -10.303520     8A    -10.267852     9A    -10.250175  
      10A     -1.147627    11A     -1.022027    12A     -1.012089  
      13A     -0.861565    14A     -0.852275    15A     -0.789083  
      16A     -0.720356    17A     -0.692420    18A     -0.661157  
      19A     -0.633721    20A     -0.580911    21A     -0.569435  
      22A     -0.561454    23A     -0.536264    24A     -0.518460  
      25A     -0.495276    26A     -0.487480    27A     -0.471338  
      28A     -0.464391    29A     -0.455031    30A     -0.434026  
      31A     -0.429737    32A     -0.419219    33A     -0.405993  
      34A     -0.352681    35A     -0.335165    36A     -0.280437  

    Virtual:                                                              

      37A      0.087459    38A      0.105337    39A      0.126083  
      40A      0.141532    41A      0.154009    42A      0.158815  
      43A      0.170719    44A      0.180947    45A      0.195810  
      46A      0.202108    47A      0.213730    48A      0.222682  
      49A      0.227993    50A      0.236989    51A      0.250254  
      52A      0.252850    53A      0.281085    54A      0.300276  
      55A      0.310991    56A      0.333522    57A      0.349540  
      58A      0.368826    59A      0.379177    60A      0.397248  
      61A      0.416652    62A      0.424409    63A      0.436559  
      64A      0.444231    65A      0.456363    66A      0.471198  
      67A      0.476466    68A      0.524405    69A      0.536146  
      70A      0.550124    71A      0.553567    72A      0.574386  
      73A      0.588250    74A      0.596052    75A      0.623473  
      76A      0.632314    77A      0.654547    78A      0.663805  
      79A      0.665555    80A      0.675484    81A      0.683112  
      82A      0.686136    83A      0.694826    84A      0.702304  
      85A      0.702744    86A      0.709766    87A      0.714319  
      88A      0.728947    89A      0.733044    90A      0.753274  
      91A      0.779505    92A      0.785403    93A      0.812474  
      94A      0.818871    95A      0.889244    96A      0.900345  
      97A      0.952177    98A      0.990366    99A      0.997176  
     100A      1.054385   101A      1.081542   102A      1.098069  
     103A      1.119960   104A      1.163774   105A      1.220043  
     106A      1.249440   107A      1.352101   108A      1.494918  
     109A      1.715560   110A      2.241759   111A      2.312744  
     112A      2.336856   113A      2.349972   114A      2.363169  
     115A      2.374673   116A      2.378217   117A      2.381478  
     118A      2.399936   119A      2.404093   120A      2.418243  
     121A      2.429963   122A      2.449456   123A      2.451059  
     124A      2.668744   125A      2.846205   126A      2.901247  
     127A      2.913702   128A      2.932403   129A      2.948521  
     130A      2.950182   131A      2.975139   132A      3.000060  
     133A      3.019149   134A      3.037903   135A      3.048740  
     136A      3.129512   137A      3.153632   138A      3.175806  
     139A      3.200820   140A      3.256281   141A      3.325812  
     142A      3.783389   143A      4.014404   144A      4.046531  
     145A      4.149768   146A      4.177602   147A      4.202269  
     148A      4.992620   149A      5.070504   150A      5.111338  
     151A     23.430136   152A     23.487572   153A     23.537626  
     154A     23.624350   155A     23.672277   156A     23.712027  
     157A     35.473356   158A     35.567748   159A     50.046930  

    Final Occupation by Irrep:
              A 
    DOCC [    36 ]

  @DF-RKS Final Energy:  -421.63907837285024

   => Energetics <=

    Nuclear Repulsion Energy =            481.5516495706519891
    One-Electron Energy =               -1526.1305044609498509
    Two-Electron Energy =                 664.2244506470997294
    DFT Exchange-Correlation Energy =     -41.2698137948010881
    Empirical Dispersion Energy =          -0.0148603348510282
    VV10 Nonlocal Energy =                  0.0000000000000000
    Total Energy =                       -421.6390783728502925

Computation Completed


Properties will be evaluated at   0.000000,   0.000000,   0.000000 [a0]

Properties computed using the SCF density matrix

  Nuclear Dipole Moment: [e a0]
     X:     9.3532      Y:     1.9890      Z:    -2.7574

  Electronic Dipole Moment: [e a0]
     X:    -9.9138      Y:    -1.7025      Z:     1.1543

  Dipole Moment: [e a0]
     X:    -0.5606      Y:     0.2865      Z:    -1.6031     Total:     1.7223

  Dipole Moment: [D]
     X:    -1.4250      Y:     0.7282      Z:    -4.0748     Total:     4.3777


*** tstop() called on node74.bme.utexas.edu at Wed Jun  8 12:31:41 2022
Module time:
	user time   =      61.21 seconds =       1.02 minutes
	system time =       3.37 seconds =       0.06 minutes
	total time  =         33 seconds =       0.55 minutes
Total time:
	user time   =     153.55 seconds =       2.56 minutes
	system time =       7.83 seconds =       0.13 minutes
	total time  =         82 seconds =       1.37 minutes

*** tstart() called on node74.bme.utexas.edu
*** at Wed Jun  8 12:31:41 2022


         ------------------------------------------------------------
                                   SCF GRAD                          
                          Rob Parrish, Justin Turney,                
                       Andy Simmonett, and Alex Sokolov              
         ------------------------------------------------------------

  ==> Geometry <==

    Molecular point group: c1
    Full point group: C1

    Geometry (in Angstrom), charge = 0, multiplicity = 1:

       Center              X                  Y                   Z               Mass       
    ------------   -----------------  -----------------  -----------------  -----------------
         C            1.521523565248    -0.395979799010    -1.379420776475    12.000000000000
         N            0.582920541815     0.127613432139    -0.371912121510    14.003074004430
         C           -0.790443187724     0.252265083813    -0.856422770688    12.000000000000
         C           -1.836497873353    -0.285580089898     0.125430163721    12.000000000000
         C            1.082587396371     1.283176956901     0.412436278856    12.000000000000
         H           -0.893509996905    -0.311878688124    -1.794471101781     1.007825032230
         H           -1.059666248526     1.295277292824    -1.098467621658     1.007825032230
         N           -3.115690745007    -0.291358850768    -0.383258831311    14.003074004430
         O           -1.604534227185    -0.583246382693     1.305633850719    15.994914619570
         C            2.790493888131    -0.966482754605    -0.752675385162    12.000000000000
         H            1.007146500078    -1.205624646098    -1.909440445614     1.007825032230
         H            1.789885998614     0.374244008540    -2.129466092200     1.007825032230
         C            1.488621151021     0.902696618736     1.839375915749    12.000000000000
         H            1.923156397036     1.758550511632    -0.116595248405     1.007825032230
         H            0.287393017050     2.035412065837     0.462233144090     1.007825032230
         H            2.524159901090    -1.702052390011     0.010659264291     1.007825032230
         H            3.401121820679    -1.457761495468    -1.515347452497     1.007825032230
         H            1.782799837485     1.790386851086     2.416561577584     1.007825032230
         H            0.642188385295     0.418821138850     2.326048206839     1.007825032230
         H           -3.296359359120    -0.271245565823    -1.374075819932     1.007825032230
         H           -3.851011962508    -0.614380932166     0.221706900231     1.007825032230
         H            3.396646361819    -0.183451893846    -0.283885208710     1.007825032230
         H            2.323512659117     0.197845383034     1.834158387827     1.007825032230

  Nuclear repulsion =  481.551649570651989

  ==> Basis Set <==

  Basis Set: 6-311G
    Blend: 6-311G
    Number of shells: 105
    Number of basis functions: 159
    Number of Cartesian functions: 159
    Spherical Harmonics?: true
    Max angular momentum: 1

  ==> DFJKGrad: Density-Fitted SCF Gradients <==

    Gradient:                    1
    J tasked:                  Yes
    K tasked:                  Yes
    wK tasked:                 Yes
    Omega:               2.000E-01
    OpenMP threads:              2
    Integrals threads:           2
    Memory [MiB]:             5841
    Schwarz Cutoff:          1E-12
    Fitting Condition:       1E-10

   => Auxiliary Basis Set <=

  Basis Set: (6-311G AUX)
    Blend: CC-PVTZ-JKFIT
    Number of shells: 365
    Number of basis functions: 1131
    Number of Cartesian functions: 1354
    Spherical Harmonics?: true
    Max angular momentum: 4

  ==> DFT Potential <==

   => LibXC <=

    Version 5.1.5
    S. Lehtola, C. Steigemann, M. J. Oliveira, and M. A. Marques, SoftwareX 7, 1 (2018) (10.1016/j.softx.2017.11.002)

   => Composite Functional: WB97X-D <= 

    wB97X-D Hyb-GGA Exchange-Correlation Functional

    J.-D. Chai and M. Head-Gordon, Phys. Chem. Chem. Phys. 10, 6615 (2008) (10.1039/B810189B)

    Deriv               =              1
    GGA                 =           TRUE
    Meta                =          FALSE

    Exchange Hybrid     =           TRUE
    MP2 Hybrid          =          FALSE

   => Exchange-Correlation Functionals <=

    1.0000   wB97X-D range-separated functional

   => Exact (HF) Exchange <=

    0.7780            HF,LR [omega = 0.2000]
    0.2220               HF 

   => LibXC Density Thresholds  <==

    XC_HYB_GGA_XC_WB97X_D:  1.00E-14 

   => Molecular Quadrature <=

    Radial Scheme          =       TREUTLER
    Pruning Scheme         =           NONE
    Nuclear Scheme         =       TREUTLER

    BS radius alpha        =              1
    Pruning alpha          =              1
    Radial Points          =             75
    Spherical Points       =            302
    Total Points           =         481954
    Total Blocks           =           3523
    Max Points             =            256
    Max Functions          =            142
    Weights Tolerance      =       1.00E-15


  -Total Gradient:
     Atom            X                  Y                   Z
    ------   -----------------  -----------------  -----------------
       1        0.001424301584     0.002011081818    -0.002601670208
       2        0.002436751934    -0.006749926519     0.008972399776
       3       -0.004885752220     0.006582171554    -0.002088426878
       4        0.002513480789    -0.010904891067    -0.002002760430
       5        0.002707404043     0.004248720995    -0.001181808829
       6       -0.000574681840    -0.001599340179    -0.002891507193
       7        0.000357495394     0.001778797526    -0.001519054596
       8       -0.003847555380     0.008386025147     0.000997384081
       9        0.000339911804    -0.000454685180     0.004610115123
      10       -0.000765435870    -0.000573443144    -0.001134327827
      11       -0.001808292851    -0.002188168232    -0.000656859466
      12        0.000375274990     0.001145928696    -0.001374466845
      13        0.000139574319    -0.000693392857     0.000588449386
      14        0.000794829717     0.001483288999    -0.000166775940
      15       -0.000529288927     0.000635852491    -0.000293003848
      16       -0.000497627032    -0.001584758821     0.001093158027
      17       -0.000016992609    -0.001035632506    -0.000796308298
      18        0.000834425635     0.002670807590     0.002381335608
      19       -0.000479008599    -0.000259791558     0.000013933303
      20       -0.000650824530    -0.003186011824    -0.003878864149
      21       -0.000142053044    -0.000802344000     0.000526133353
      22        0.001257995358     0.002390898619     0.001120604368
      23        0.000965488049    -0.001276853291    -0.000125098892


*** tstop() called on node74.bme.utexas.edu at Wed Jun  8 12:31:55 2022
Module time:
	user time   =      27.80 seconds =       0.46 minutes
	system time =       0.38 seconds =       0.01 minutes
	total time  =         14 seconds =       0.23 minutes
Total time:
	user time   =     181.35 seconds =       3.02 minutes
	system time =       8.21 seconds =       0.14 minutes
	total time  =         96 seconds =       1.60 minutes

			-----------------------------------------
			 OPTKING 2.0: for geometry optimizations 
			  - R.A. King,  Bethel University        
			-----------------------------------------
	At level 1: Red. Int., RFO, no backsteps, dynamic trust

	Previous internal coordinate definitions found.
	---Fragment 1 Geometry and Gradient---
	 C           2.8752628317       -0.7482933713       -2.6067274793
	 N           1.1015601769        0.2411544367       -0.7028120524
	 C          -1.4937211425        0.4767119194       -1.6184044842
	 C          -3.4704780106       -0.5396681568        0.2370286573
	 C           2.0457936860        2.4248530190        0.7793916112
	 H          -1.6884891845       -0.5893653049       -3.3910589224
	 H          -2.0024789941        2.4477193400       -2.0758029626
	 N          -5.8878021997       -0.5505884322       -0.7242542263
	 O          -3.0321302483       -1.1021759270        2.4672903980
	 C           5.2732692033       -1.8263877112       -1.4223503393
	 H           1.9032310534       -2.2783003912       -3.6083194951
	 H           3.3823943332        0.7072186802       -4.0241077077
	 C           2.8130862800        1.7058493838        3.4759167225
	 H           3.6342388868        3.3231788448       -0.2203330870
	 H           0.5430940926        3.8463713569        0.8734940484
	 H           4.7699709099       -3.2164128683        0.0201430902
	 H           6.4271887604       -2.7547699827       -2.8635916701
	 H           3.3690034294        3.3833408072        4.5666395469
	 H           1.2135601692        0.7914572480        4.3955940655
	 H          -6.2292163998       -0.5125798322       -2.5966269753
	 H          -7.2773579150       -1.1610116985        0.4189653216
	 H           6.4187313689       -0.3466738366       -0.5364652955
	 H           4.3908025748        0.3738735891        3.4660570237
	             0.0014243016        0.0020110818       -0.0026016702
	             0.0024367519       -0.0067499265        0.0089723998
	            -0.0048857522        0.0065821716       -0.0020884269
	             0.0025134808       -0.0109048911       -0.0020027604
	             0.0027074040        0.0042487210       -0.0011818088
	            -0.0005746818       -0.0015993402       -0.0028915072
	             0.0003574954        0.0017787975       -0.0015190546
	            -0.0038475554        0.0083860251        0.0009973841
	             0.0003399118       -0.0004546852        0.0046101151
	            -0.0007654359       -0.0005734431       -0.0011343278
	            -0.0018082929       -0.0021881682       -0.0006568595
	             0.0003752750        0.0011459287       -0.0013744668
	             0.0001395743       -0.0006933929        0.0005884494
	             0.0007948297        0.0014832890       -0.0001667759
	            -0.0005292889        0.0006358525       -0.0002930038
	            -0.0004976270       -0.0015847588        0.0010931580
	            -0.0000169926       -0.0010356325       -0.0007963083
	             0.0008344256        0.0026708076        0.0023813356
	            -0.0004790086       -0.0002597916        0.0000139333
	            -0.0006508245       -0.0031860118       -0.0038788641
	            -0.0001420530       -0.0008023440        0.0005261334
	             0.0012579954        0.0023908986        0.0011206044
	             0.0009654880       -0.0012768533       -0.0001250989

	---Fragment 1 Intrafragment Coordinates---
	 - Coordinate -           - BOHR/RAD -       - ANG/DEG -
	 R(1,2)           =         2.783868	       1.473160
	 R(1,10)          =         2.883656	       1.525965
	 R(1,11)          =         2.070979	       1.095915
	 R(1,12)          =         2.093959	       1.108075
	 R(2,3)           =         2.762115	       1.461649
	 R(2,5)           =         2.803042	       1.483306
	 R(3,4)           =         2.895381	       1.532169
	 R(3,6)           =         2.077681	       1.099462
	 R(3,7)           =         2.086365	       1.104057
	 R(4,8)           =         2.601469	       1.376638
	 R(4,9)           =         2.341502	       1.239069
	 R(5,13)          =         2.894296	       1.531596
	 R(5,14)          =         2.080768	       1.101095
	 R(5,15)          =         2.070670	       1.095752
	 R(8,20)          =         1.903625	       1.007355
	 R(8,21)          =         1.900114	       1.005497
	 R(10,16)         =         2.065494	       1.093012
	 R(10,17)         =         2.066543	       1.093568
	 R(10,22)         =         2.070369	       1.095592
	 R(13,18)         =         2.076704	       1.098944
	 R(13,19)         =         2.059224	       1.089694
	 R(13,23)         =         2.064811	       1.092651
	 B(1,2,3)         =         1.984780	     113.719494
	 B(1,2,5)         =         2.008549	     115.081366
	 B(1,10,16)       =         1.913258	     109.621587
	 B(1,10,17)       =         1.923946	     110.233976
	 B(1,10,22)       =         1.948326	     111.630837
	 B(2,1,10)        =         1.962557	     112.446241
	 B(2,1,11)        =         1.869515	     107.115317
	 B(2,1,12)        =         1.950004	     111.727003
	 B(2,3,4)         =         1.981366	     113.523890
	 B(2,3,6)         =         1.904071	     109.095223
	 B(2,3,7)         =         1.963143	     112.479826
	 B(2,5,13)        =         1.969716	     112.856441
	 B(2,5,14)        =         1.917111	     109.842374
	 B(2,5,15)        =         1.890605	     108.323706
	 B(3,2,5)         =         2.010154	     115.173321
	 B(3,4,8)         =         1.981309	     113.520661
	 B(3,4,9)         =         2.173533	     124.534290
	 B(4,3,6)         =         1.878242	     107.615322
	 B(4,3,7)         =         1.881400	     107.796255
	 B(4,8,20)        =         2.129420	     122.006771
	 B(4,8,21)        =         2.047173	     117.294399
	 B(5,13,18)       =         1.938668	     111.077471
	 B(5,13,19)       =         1.897036	     108.692134
	 B(5,13,23)       =         1.937317	     111.000089
	 B(6,3,7)         =         1.849212	     105.952070
	 B(8,4,9)         =         2.123404	     121.662083
	 B(10,1,11)       =         1.888878	     108.224725
	 B(10,1,12)       =         1.913979	     109.662911
	 B(11,1,12)       =         1.875318	     107.447788
	 B(13,5,14)       =         1.931037	     110.640282
	 B(13,5,15)       =         1.897148	     108.698597
	 B(14,5,15)       =         1.854020	     106.227544
	 B(16,10,17)      =         1.897360	     108.710730
	 B(16,10,22)      =         1.893328	     108.479713
	 B(17,10,22)      =         1.886581	     108.093120
	 B(18,13,19)      =         1.909272	     109.393222
	 B(18,13,23)      =         1.895515	     108.605003
	 B(19,13,23)      =         1.885155	     108.011419
	 B(20,8,21)       =         2.056733	     117.842114
	*D(1,2,3,4)       =         2.346744	     134.458513
	 D(1,2,3,6)       =         0.252382	      14.460430
	 D(1,2,3,7)       =        -1.794165	    -102.798058
	*D(1,2,5,13)      =        -1.831743	    -104.951145
	 D(1,2,5,14)      =         0.331979	      19.020999
	 D(1,2,5,15)      =         2.350003	     134.645250
	 D(2,1,10,16)     =         0.927923	      53.166043
	 D(2,1,10,17)     =         3.015835	     172.794639
	 D(2,1,10,22)     =        -1.170376	     -67.057579
	*D(2,3,4,8)       =        -3.034901	    -173.887015
	 D(2,3,4,9)       =         0.212160	      12.155893
[...]
	 B(1,10,17)       =         1.926645	     110.388625
	 B(1,10,22)       =         1.945193	     111.451349
	 B(2,1,10)        =         1.967167	     112.710361
	 B(2,1,11)        =         1.882490	     107.858727
	 B(2,1,12)        =         1.945155	     111.449195
	 B(2,3,4)         =         2.000230	     114.604732
	 B(2,3,6)         =         1.904428	     109.115674
	 B(2,3,7)         =         1.963235	     112.485062
	 B(2,5,13)        =         1.989591	     113.995193
	 B(2,5,14)        =         1.899939	     108.858467
	 B(2,5,15)        =         1.894847	     108.566717
	 B(3,2,5)         =         2.033123	     116.489394
	 B(3,4,8)         =         1.989337	     113.980607
	 B(3,4,9)         =         2.171477	     124.416454
	 B(4,3,6)         =         1.881769	     107.817428
	 B(4,3,7)         =         1.855344	     106.303390
	 B(4,8,20)        =         2.132601	     122.189027
	 B(4,8,21)        =         2.051846	     117.562129
	 B(5,13,18)       =         1.928657	     110.503904
	 B(5,13,19)       =         1.907319	     109.281302
	 B(5,13,23)       =         1.934269	     110.825444
	 B(6,3,7)         =         1.851374	     106.075912
	 B(8,4,9)         =         2.118854	     121.401417
	 B(10,1,11)       =         1.893405	     108.484119
	 B(10,1,12)       =         1.904791	     109.136460
	 B(11,1,12)       =         1.867356	     106.991596
	 B(13,5,14)       =         1.921956	     110.119996
	 B(13,5,15)       =         1.899166	     108.814201
	 B(14,5,15)       =         1.853259	     106.183915
	 B(16,10,17)      =         1.904045	     109.093738
	 B(16,10,22)      =         1.888257	     108.189183
	 B(17,10,22)      =         1.880052	     107.719022
	 B(18,13,19)      =         1.914362	     109.684885
	 B(18,13,23)      =         1.891927	     108.399453
	 B(19,13,23)      =         1.886754	     108.103018
	 B(20,8,21)       =         2.056492	     117.828332
	*D(1,2,3,4)       =         2.346744	     134.458513
	 D(1,2,3,6)       =         0.235060	      13.467926
	 D(1,2,3,7)       =        -1.814451	    -103.960401
	*D(1,2,5,13)      =        -1.831743	    -104.951145
	 D(1,2,5,14)      =         0.321330	      18.410833
	 D(1,2,5,15)      =         2.331565	     133.588850
	 D(2,1,10,16)     =         0.965671	      55.328849
	 D(2,1,10,17)     =         3.066910	     175.720984
	 D(2,1,10,22)     =        -1.127763	     -64.616044
	*D(2,3,4,8)       =        -3.034901	    -173.887015
	 D(2,3,4,9)       =         0.195924	      11.225643
	 D(2,5,13,18)     =        -3.091928	    -177.154418
	 D(2,5,13,19)     =        -0.983825	     -56.369041
	 D(2,5,13,23)     =         1.093639	      62.660897
	 D(3,2,1,10)      =        -2.649086	    -151.781455
	 D(3,2,1,11)      =        -0.559381	     -32.050145
	 D(3,2,1,12)      =         1.485426	      85.108630
	 D(3,2,5,13)      =         1.928656	     110.503856
	 D(3,2,5,14)      =        -2.201457	    -126.134167
	 D(3,2,5,15)      =        -0.191221	     -10.956150
	*D(3,4,8,20)      =         0.364726	      20.897260
	 D(3,4,8,21)      =        -3.091942	    -177.155246
	 D(4,3,2,5)       =        -1.419756	     -81.346039
	*D(5,2,1,10)      =         1.115745	      63.927486
	 D(5,2,1,11)      =        -3.077735	    -176.341204
	 D(5,2,1,12)      =        -1.032928	     -59.182428
	 D(5,2,3,6)       =         2.751745	     157.663374
	 D(5,2,3,7)       =         0.702234	      40.235047
	 D(6,3,4,8)       =        -0.910794	     -52.184652
	 D(6,3,4,9)       =         2.320031	     132.928005
	 D(7,3,4,8)       =         1.068305	      61.209368
	 D(7,3,4,9)       =        -1.984055	    -113.677974
	 D(9,4,8,20)      =        -2.863103	    -164.043731
	 D(9,4,8,21)      =        -0.036586	      -2.096238
	 D(11,1,10,16)    =        -1.117716	     -64.040382
	 D(11,1,10,17)    =         0.983524	      56.351753
	 D(11,1,10,22)    =         3.072036	     176.014725
	 D(12,1,10,16)    =         3.136684	     179.718752
	 D(12,1,10,17)    =        -1.045262	     -59.889113
	 D(12,1,10,22)    =         1.043251	      59.773859
	 D(14,5,13,18)    =         1.050176	      60.170634
	 D(14,5,13,19)    =        -3.124907	    -179.043989
	 D(14,5,13,23)    =        -1.047443	     -60.014051
	 D(15,5,13,18)    =        -0.974446	     -55.831618
	 D(15,5,13,19)    =         1.133657	      64.953758
	 D(15,5,13,23)    =        -3.072064	    -176.016303
	 R(5,9)           =         6.184288	       3.272584
	 R(9,13)          =         6.075978	       3.215269
	 R(10,13)         =         6.567657	       3.475454

	Current energy   :      -421.6406212330

	Energy change for the previous step:
		Projected    :        -0.0000235802
		Actual       :        -0.0000036969

	Performing BFGS update.
	Previous computed or guess Hessian on step 1.
	Steps to be used in Hessian update: 5 4
	Taking RFO optimization step.
	Going to follow RFO solution 1.
	Using RFO vector 1.
	Norm of target step-size    0.01728
	Projected energy change by RFO approximation:        -0.0000058901

	Back-transformation to cartesian coordinates...
	Successfully converged to displaced geometry.

	Back-transformation to cartesian coordinates to adjust frozen coordinates...
	Successfully converged to displaced geometry.

	--- Internal Coordinate Step in ANG or DEG, aJ/ANG or AJ/DEG ---
	 ---------------------------------------------------------------------------
	   Coordinate                Previous        Force       Change         New 
	   ----------                --------       ------       ------       ------
	    1 R(1,2)          =      1.461279     0.000490     0.000076     1.461354
	    2 R(1,10)         =      1.527115    -0.000921    -0.000151     1.526964
	    3 R(1,11)         =      1.091880     0.000222     0.000035     1.091915
	    4 R(1,12)         =      1.105516    -0.000334    -0.000057     1.105459
	    5 R(2,3)          =      1.441349    -0.001813    -0.000228     1.441121
	    6 R(2,5)          =      1.467537    -0.001098    -0.000148     1.467389
	    7 R(3,4)          =      1.527719    -0.000365    -0.000067     1.527652
	    8 R(3,6)          =      1.094039     0.000557     0.000094     1.094133
	    9 R(3,7)          =      1.104153    -0.000154    -0.000034     1.104119
	   10 R(4,8)          =      1.369902    -0.001437    -0.000129     1.369773
	   11 R(4,9)          =      1.237444    -0.000657    -0.000068     1.237376
	   12 R(5,13)         =      1.528518    -0.000047    -0.000023     1.528494
	   13 R(5,14)         =      1.098647     0.000047     0.000016     1.098662
	   14 R(5,15)         =      1.096408     0.000205     0.000017     1.096426
	   15 R(8,20)         =      1.003068     0.000234     0.000023     1.003091
	   16 R(8,21)         =      1.004501    -0.000226    -0.000026     1.004476
	   17 R(10,16)        =      1.090117    -0.000532    -0.000084     1.090033
	   18 R(10,17)        =      1.092247     0.000183     0.000025     1.092272
	   19 R(10,22)        =      1.091164     0.000091     0.000015     1.091179
	   20 R(13,18)        =      1.093887    -0.000861    -0.000149     1.093738
	   21 R(13,19)        =      1.087625    -0.000982    -0.000154     1.087471
	   22 R(13,23)        =      1.090924    -0.000674    -0.000162     1.090762
	   23 B(1,2,3)        =    117.190821     0.000002    -0.005227   117.185594
	   24 B(1,2,5)        =    116.221390     0.000003     0.001766   116.223156
	   25 B(1,10,16)      =    109.924097    -0.000006    -0.028583   109.895514
	   26 B(1,10,17)      =    110.388625     0.000002     0.009329   110.397954
	   27 B(1,10,22)      =    111.451349     0.000002     0.012016   111.463366
	   28 B(2,1,10)       =    112.710361    -0.000002    -0.010508   112.699853
	   29 B(2,1,11)       =    107.858727     0.000002     0.020812   107.879539
	   30 B(2,1,12)       =    111.449195     0.000006     0.027215   111.476411
	   31 B(2,3,4)        =    114.604732     0.000001    -0.004536   114.600197
	   32 B(2,3,6)        =    109.115674    -0.000001     0.012299   109.127973
	   33 B(2,3,7)        =    112.485062    -0.000003    -0.026330   112.458732
	   34 B(2,5,13)       =    113.995193     0.000002    -0.006860   113.988333
	   35 B(2,5,14)       =    108.858467     0.000002     0.022680   108.881147
	   36 B(2,5,15)       =    108.566717    -0.000003    -0.017095   108.549623
	   37 B(3,2,5)        =    116.489394    -0.000006    -0.033176   116.456218
	   38 B(3,4,8)        =    113.980607    -0.000006    -0.015242   113.965366
	   39 B(3,4,9)        =    124.416454     0.000011     0.024980   124.441434
	   40 B(4,3,6)        =    107.817428     0.000001     0.012360   107.829788
	   41 B(4,3,7)        =    106.303390     0.000002     0.004925   106.308315
	   42 B(4,8,20)       =    122.189027    -0.000000    -0.003138   122.185889
	   43 B(4,8,21)       =    117.562129    -0.000002    -0.008157   117.553972
	   44 B(5,13,18)      =    110.503904     0.000004     0.018636   110.522540
	   45 B(5,13,19)      =    109.281302    -0.000006    -0.017940   109.263362
	   46 B(5,13,23)      =    110.825444     0.000006     0.023725   110.849169
	   47 B(6,3,7)        =    106.075912     0.000001     0.002968   106.078879
	   48 B(8,4,9)        =    121.401417    -0.000005    -0.011432   121.389986
	   49 B(10,1,11)      =    108.484119     0.000000    -0.002774   108.481344
	   50 B(10,1,12)      =    109.136460    -0.000005    -0.031530   109.104930
	   51 B(11,1,12)      =    106.991596    -0.000000    -0.002755   106.988840
	   52 B(13,5,14)      =    110.119996    -0.000003    -0.005748   110.114248
	   53 B(13,5,15)      =    108.814201     0.000001     0.002469   108.816669
	   54 B(14,5,15)      =    106.183915     0.000001     0.005100   106.189015
	   55 B(16,10,17)     =    109.093738     0.000002     0.003893   109.097631
	   56 B(16,10,22)     =    108.189183     0.000001     0.003483   108.192666
	   57 B(17,10,22)     =    107.719022    -0.000001     0.000313   107.719334
	   58 B(18,13,19)     =    109.684885    -0.000002    -0.020174   109.664710
	   59 B(18,13,23)     =    108.399453    -0.000004    -0.005861   108.393592
	   60 B(19,13,23)     =    108.103018     0.000001     0.000953   108.103971
	   61 B(20,8,21)      =    117.828332     0.000001     0.004341   117.832673
	   62 *D(1,2,3,4)     =    134.458513     0.000000    -0.000000   134.458513
	   63 D(1,2,3,6)      =     13.467926    -0.000000    -0.022030    13.445896
	   64 D(1,2,3,7)      =   -103.960401     0.000000    -0.017718  -103.978120
	   65 *D(1,2,5,13)    =   -104.951145     0.000000    -0.000000  -104.951145
	   66 D(1,2,5,14)     =     18.410833    -0.000000     0.004897    18.415729
	   67 D(1,2,5,15)     =    133.588850    -0.000000     0.013834   133.602684
	   68 D(2,1,10,16)    =     55.328849    -0.000000    -0.020168    55.308681
	   69 D(2,1,10,17)    =    175.720984    -0.000000    -0.027767   175.693217
	   70 D(2,1,10,22)    =    -64.616044     0.000000    -0.013346   -64.629390
	   71 *D(2,3,4,8)     =   -173.887015    -0.000000    -0.000000  -173.887015
	   72 D(2,3,4,9)      =     11.225643     0.000000     0.022202    11.247845
	   73 D(2,5,13,18)    =   -177.154418     0.000000    -0.283896  -177.438314
	   74 D(2,5,13,19)    =    -56.369041    -0.000000    -0.308716   -56.677757
	   75 D(2,5,13,23)    =     62.660897    -0.000000    -0.304333    62.356564
	   76 D(3,2,1,10)     =   -151.781455    -0.000001    -0.069085  -151.850540
	   77 D(3,2,1,11)     =    -32.050145    -0.000001    -0.065088   -32.115233
	   78 D(3,2,1,12)     =     85.108630     0.000000    -0.040436    85.068195
	   79 D(3,2,5,13)     =    110.503856     0.000000     0.058564   110.562420
	   80 D(3,2,5,14)     =   -126.134167    -0.000000     0.063461  -126.070706
	   81 D(3,2,5,15)     =    -10.956150    -0.000000     0.072398   -10.883752
	   82 *D(3,4,8,20)    =     20.897260     0.000000    -0.000000    20.897260
	   83 D(3,4,8,21)     =   -177.155246    -0.000000    -0.024443  -177.179690
	   84 D(4,3,2,5)      =    -81.346039    -0.000000    -0.056754   -81.402793
	   85 *D(5,2,1,10)    =     63.927486    -0.000000     0.000000    63.927486
	   86 D(5,2,1,11)     =   -176.341204     0.000000     0.003997  -176.337207
	   87 D(5,2,1,12)     =    -59.182428     0.000001     0.028649   -59.153779
	   88 D(5,2,3,6)      =    157.663374    -0.000000    -0.078785   157.584590
	   89 D(5,2,3,7)      =     40.235047     0.000000    -0.074473    40.160574
	   90 D(6,3,4,8)      =    -52.184652     0.000000     0.021893   -52.162760
	   91 D(6,3,4,9)      =    132.928005     0.000000     0.044095   132.972100
	   92 D(7,3,4,8)      =     61.209368     0.000001     0.033302    61.242670
	   93 D(7,3,4,9)      =   -113.677974     0.000001     0.055504  -113.622471
	   94 D(9,4,8,20)     =   -164.043731     0.000000    -0.019361  -164.063092
	   95 D(9,4,8,21)     =     -2.096238    -0.000000    -0.043804    -2.140042
	   96 D(11,1,10,16)   =    -64.040382    -0.000000    -0.037788   -64.078170
	   97 D(11,1,10,17)   =     56.351753    -0.000001    -0.045388    56.306365
	   98 D(11,1,10,22)   =    176.014725    -0.000000    -0.030967   175.983758
	   99 D(12,1,10,16)   =    179.718752     0.000000    -0.015846   179.702906
	  100 D(12,1,10,17)   =    -59.889113     0.000000    -0.023446   -59.912559
	  101 D(12,1,10,22)   =     59.773859     0.000001    -0.009025    59.764834
	  102 D(14,5,13,18)   =     60.170634    -0.000000    -0.304285    59.866350
	  103 D(14,5,13,19)   =   -179.043989    -0.000001    -0.329104  -179.373093
	  104 D(14,5,13,23)   =    -60.014051    -0.000000    -0.324722   -60.338772
	  105 D(15,5,13,18)   =    -55.831618    -0.000000    -0.308626   -56.140244
	  106 D(15,5,13,19)   =     64.953758    -0.000001    -0.333445    64.620313
	  107 D(15,5,13,23)   =   -176.016303    -0.000000    -0.329063  -176.345366
	  108 R(5,9)          =      3.272584    -0.000023     0.000526     3.273111
	  109 R(9,13)         =      3.215269     0.000068     0.001215     3.216484
	  110 R(10,13)        =      3.475454    -0.000034    -0.000403     3.475052
	 ---------------------------------------------------------------------------
	Successfully symmetrized geometry.

  ==> Convergence Check <==

  Measures of convergence in internal coordinates in au.
  Criteria marked as inactive (o), active & met (*), and active & unmet ( ).
  ---------------------------------------------------------------------------------------------
   Step     Total Energy     Delta E     MAX Force     RMS Force      MAX Disp      RMS Disp   
  ---------------------------------------------------------------------------------------------
    Convergence Criteria             o    2.50e-03 *    1.70e-03 *    1.00e-02 *    6.70e-03 *
  ---------------------------------------------------------------------------------------------
      6    -421.64062123   -3.70e-06 o    2.20e-04 *    5.06e-05 *    5.82e-03 *    1.65e-03 *  ~
  ---------------------------------------------------------------------------------------------


  **** Optimization is complete! (in 6 steps) ****

  ==> Optimization Summary <==

  Measures of convergence in internal coordinates in au.
  --------------------------------------------------------------------------------------------------------------- ~
   Step         Total Energy             Delta E       MAX Force       RMS Force        MAX Disp        RMS Disp  ~
  --------------------------------------------------------------------------------------------------------------- ~
      1    -421.639832273831   -421.639832273831      0.00196595      0.00065649      0.08637227      0.01894582  ~
      2    -421.640182567468     -0.000350293637      0.00360617      0.00047588      0.13628637      0.01846624  ~
      3    -421.640479398739     -0.000296831271      0.00184294      0.00031631      0.14748684      0.01906600  ~
      4    -421.640611517132     -0.000132118393      0.00062519      0.00013547      0.02771334      0.00807094  ~
      5    -421.640617536131     -0.000006018999      0.00025651      0.00005210      0.02105800      0.00591168  ~
      6    -421.640621232991     -0.000003696859      0.00022012      0.00005055      0.00581972      0.00164800  ~
  --------------------------------------------------------------------------------------------------------------- ~

	Writing optimization data to binary file.
	Final energy is   -421.6406212329906
	Final (previous) structure:
	Cartesian Geometry (in Angstrom)
	    C     1.5844199907  -0.5196663920  -1.3309448340
	    N     0.5686326403   0.1229502021  -0.4999482981
	    C    -0.8073191247  -0.0417484279  -0.8963291609
	    C    -1.7600801398  -0.3945004661   0.2446075624
	    C     0.9317684403   1.4210579082   0.0803212032
	    H    -0.8718611126  -0.8373913313  -1.6444651294
	    H    -1.2197929532   0.8631871556  -1.3760273528
	    N    -3.0367772595  -0.6775341234  -0.1635190947
	    O    -1.4634322781  -0.3427104219   1.4448519203
	    C     2.8412670186  -0.8887354405  -0.5459575354
	    H     1.1516837750  -1.4342031695  -1.7415091812
	    H     1.8671015162   0.1175017449  -2.1890087298
	    C     1.2575011323   1.3655439585   1.5726962531
	    H     1.7837721904   1.8334792934  -0.4773728960
	    H     0.0993381380   2.1176819036  -0.0742308915
	    H     2.5763617260  -1.5136971769   0.3070384938
	    H     3.5420306891  -1.4324993998  -1.1833384178
	    H     1.4703691328   2.3677373155   1.9559511969
	    H     0.4124777089   0.9399996098   2.1091440140
	    H    -3.2482931896  -0.9526359496  -1.1046487889
	    H    -3.7191050673  -0.8739357851   0.5470286432
	    H     3.3531268947  -0.0007293449  -0.1716808826
	    H     2.1282170741   0.7345006288   1.7564165183
	Saving final (previous) structure.
	Cleaning optimization helper files.
			--------------------------
			 OPTKING Finished Execution 
			--------------------------

    Final optimized geometry and variables:
    Molecular point group: c1
    Full point group: C1

    Geometry (in Angstrom), charge = 0, multiplicity = 1:

    C            1.584419996961    -0.519666394038    -1.330944839256
    N            0.568632642522     0.122950202534    -0.499948300051
    C           -0.807319127856    -0.041748428016    -0.896329164445
    C           -1.760080146682    -0.394500467624     0.244607563329
    C            0.931768443942     1.421057913776     0.080321203561
    H           -0.871861115987    -0.837391334576    -1.644465135881
    H           -1.219792958036     0.863187159003    -1.376027358224
    N           -3.036777271387    -0.677534126087    -0.163519095308
    O           -1.463432283819    -0.342710423208     1.444851926013
    C            2.841267029813    -0.888735443982    -0.545957537557
    H            1.151683779545    -1.434203175187    -1.741509188077
    H            1.867101523553     0.117501745321    -2.189008738378
    C            1.257501137195     1.365543963853     1.572696259307
    H            1.783772197406     1.833479300611    -0.477372897917
    H            0.099338138350     2.117681911878    -0.074230891818
    H            2.576361736079    -1.513697182826     0.307038495029
    H            3.542030702981    -1.432499405473    -1.183338422428
    H            1.470369138568     2.367737324792     1.955951204635
    H            0.412477710546     0.939999613477     2.109144022241
    H           -3.248293202397    -0.952635953331    -1.104648793263
    H           -3.719105081933    -0.873935788491     0.547028645309
    H            3.353126907844    -0.000729344914    -0.171680883312
    H            2.128217082468     0.734500631732     1.756416525239

	Removing binary optimization data file.
	Cleaning optimization helper files.

    Psi4 stopped on: Wednesday, 08 June 2022 12:38PM
    Psi4 wall time for execution: 0:08:28.53

*** Psi4 exiting successfully. Buy a developer a beer!
