      -----------------------------------------------------------      
     |                   =====================                   |     
     |                           x T B                           |     
     |                   =====================                   |     
     |                         S. Grimme                         |     
     |          Mulliken Center for Theoretical Chemistry        |     
     |                    University of Bonn                     |     
      -----------------------------------------------------------      

   * xtb version 6.5.0 (97a52f5) compiled by 'conda@d2599ee0d4f4' on 2022-05-15

   xtb is free software: you can redistribute it and/or modify it under
   the terms of the GNU Lesser General Public License as published by
   the Free Software Foundation, either version 3 of the License, or
   (at your option) any later version.
   
   xtb is distributed in the hope that it will be useful,
   but WITHOUT ANY WARRANTY; without even the implied warranty of
   MERCHANTABILITY or FITNESS FOR A PARTICULAR PURPOSE.  See the
   GNU Lesser General Public License for more details.
   
   Cite this work as:
   * C. Bannwarth, E. Caldeweyher, S. Ehlert, A. Hansen, P. Pracht,
     J. Seibert, S. Spicher, S. Grimme, WIREs Comput. Mol. Sci., 2020, 11,
     e01493. DOI: 10.1002/wcms.1493
   
   for GFN2-xTB:
   * C. Bannwarth, S. Ehlert and S. Grimme., J. Chem. Theory Comput., 2019,
     15, 1652-1671. DOI: 10.1021/acs.jctc.8b01176
   for GFN1-xTB:
   * S. Grimme, C. Bannwarth, P. Shushkov, J. Chem. Theory Comput., 2017,
     13, 1989-2009. DOI: 10.1021/acs.jctc.7b00118
   for GFN0-xTB:
   * P. Pracht, E. Caldeweyher, S. Ehlert, S. Grimme, ChemRxiv, 2019, preprint.
     DOI: 10.26434/chemrxiv.8326202.v1
   for GFN-FF:
   * S. Spicher and S. Grimme, Angew. Chem. Int. Ed., 2020, 59, 15665-15673.
     DOI: 10.1002/anie.202004239
   
   for ALPB and GBSA implicit solvation:
   * S. Ehlert, M. Stahn, S. Spicher, S. Grimme, J. Chem. Theory Comput.,
     2021, 17, 4250-4261. DOI: 10.1021/acs.jctc.1c00471
   
   for DFT-D4:
   * E. Caldeweyher, C. Bannwarth and S. Grimme, J. Chem. Phys., 2017,
     147, 034112. DOI: 10.1063/1.4993215
   * E. Caldeweyher, S. Ehlert, A. Hansen, H. Neugebauer, S. Spicher,
     C. Bannwarth and S. Grimme, J. Chem. Phys., 2019, 150, 154122.
     DOI: 10.1063/1.5090222
   * E. Caldeweyher, J.-M. Mewes, S. Ehlert and S. Grimme, Phys. Chem. Chem. Phys.
     2020, 22, 8499-8512. DOI: 10.1039/D0CP00502A
   
   for sTDA-xTB:
   * S. Grimme and C. Bannwarth, J. Chem. Phys., 2016, 145, 054103.
     DOI: 10.1063/1.4959605
   
   in the mass-spec context:
   * V. Asgeirsson, C. Bauer and S. Grimme, Chem. Sci., 2017, 8, 4879.
     DOI: 10.1039/c7sc00601b
   * J. Koopman and S. Grimme, ACS Omega 2019, 4, 12, 15120-15133.
     DOI: 10.1021/acsomega.9b02011
   
   for metadynamics refer to:
   * S. Grimme, J. Chem. Theory Comput., 2019, 155, 2847-2862
     DOI: 10.1021/acs.jctc.9b00143
   
   for SPH calculations refer to:
   * S. Spicher and S. Grimme, J. Chem. Theory Comput., 2021, 17, 1701-1714
     DOI: 10.1021/acs.jctc.0c01306
   
   with help from (in alphabetical order)
   P. Atkinson, C. Bannwarth, F. Bohle, G. Brandenburg, E. Caldeweyher
   M. Checinski, S. Dohm, S. Ehlert, S. Ehrlich, I. Gerasimov, C. Hölzer
   A. Katbashev, J. Koopman, C. Lavigne, S. Lehtola, F. März, M. Müller,
   F. Musil, H. Neugebauer, J. Pisarek, C. Plett, P. Pracht, F. Pultar,
   J. Seibert, P. Shushkov, S. Spicher, M. Stahn, M. Steiner, T. Strunk,
   J. Stückrath, T. Rose, and J. Unsleber
   
 * started run on 2023/11/18 at 08:11:23.400     

           -------------------------------------------------
          |                Calculation Setup                |
           -------------------------------------------------

          program call               : /home/liuchw/anaconda3/envs/xtbenv/bin/xtb --gfn 2 --chrg 0 --uhf 0 4_27_Index_0-opt-2-3-219_preQMOPTprefit_xyzformat.xyz --opt --input xtb-opt-2-3-219_constr.txt
          hostname                   : node165.bme.utexas.edu
          coordinate file            : 4_27_Index_0-opt-2-3-219_preQMOPTprefit_xyzformat.xyz
          omp threads                :                    64

   ID    Z sym.   atoms
    1    6 C      1, 3-5
    2    7 N      2
    3    1 H      6, 7, 9-15
    4    8 O      8
constraining angle 5 2 3 4 to  218.9487601°, actual value: -141.0512399°
constraining angle 2 3 4 8 to  358.9614477°, actual value:   -1.0385523°
constraining angle 10 5 2 1 to  176.0068658°, actual value:  176.0068658°
constraining angle 13 1 2 5 to  300.9825341°, actual value:  -59.0174659°

           -------------------------------------------------
          |                 G F N 2 - x T B                 |
           -------------------------------------------------

        Reference                      10.1021/acs.jctc.8b01176
      * Hamiltonian:
        H0-scaling (s, p, d)           1.850000    2.230000    2.230000
        zeta-weighting                 0.500000
      * Dispersion:
        s8                             2.700000
        a1                             0.520000
        a2                             5.000000
        s9                             5.000000
      * Repulsion:
        kExp                           1.500000    1.000000
        rExp                           1.000000
      * Coulomb:
        alpha                          2.000000
        third order                    shell-resolved
        anisotropic                    true
        a3                             3.000000
        a5                             4.000000
        cn-shift                       1.200000
        cn-exp                         4.000000
        max-rad                        5.000000

q/qsh data taken from xtbrestart
CAMM data taken from xtbrestart

          ...................................................
          :                      SETUP                      :
          :.................................................:
          :  # basis functions                  33          :
          :  # atomic orbitals                  33          :
          :  # shells                           21          :
          :  # electrons                        36          :
          :  max. iterations                   250          :
          :  Hamiltonian                  GFN2-xTB          :
          :  restarted?                       true          :
          :  GBSA solvation                  false          :
          :  PC potential                    false          :
          :  electronic temp.          300.0000000     K    :
          :  accuracy                    1.0000000          :
          :  -> integral cutoff          0.2500000E+02      :
          :  -> integral neglect         0.1000000E-07      :
          :  -> SCF convergence          0.1000000E-05 Eh   :
          :  -> wf. convergence          0.1000000E-03 e    :
          :  Broyden damping             0.4000000          :
          ...................................................

 iter      E             dE          RMSdq      gap      omega  full diag
   1    -20.2979908 -0.202980E+02  0.162E+00    2.22       0.0  T
   2    -20.2983456 -0.354734E-03  0.947E-01    2.23       1.0  T
   3    -20.2983674 -0.218499E-04  0.800E-02    2.22       1.0  T
   4    -20.2983993 -0.318940E-04  0.321E-02    2.24       1.0  T
   5    -20.2984030 -0.372252E-05  0.180E-02    2.23       1.4  T
   6    -20.2984042 -0.112861E-05  0.670E-03    2.23       3.9  T
   7    -20.2984043 -0.912069E-07  0.245E-03    2.23      10.5  T
   8    -20.2984043 -0.138433E-07  0.996E-04    2.23      25.9  T
   9    -20.2984043 -0.152894E-08  0.235E-04    2.23     109.7  T

   *** convergence criteria satisfied after 9 iterations ***

         #    Occupation            Energy/Eh            Energy/eV
      -------------------------------------------------------------
         1        2.0000           -0.7171433             -19.5145
       ...           ...                  ...                  ...
        12        2.0000           -0.4942429             -13.4490
        13        2.0000           -0.4819564             -13.1147
        14        2.0000           -0.4699235             -12.7873
        15        2.0000           -0.4592301             -12.4963
        16        2.0000           -0.4549368             -12.3795
        17        2.0000           -0.4067439             -11.0681
        18        2.0000           -0.3573625              -9.7243 (HOMO)
        19                         -0.2752378              -7.4896 (LUMO)
        20                         -0.0233755              -0.6361
        21                          0.0241152               0.6562
        22                          0.0576960               1.5700
        23                          0.1013642               2.7583
       ...                                ...                  ...
        33                          0.5331954              14.5090
      -------------------------------------------------------------
                  HL-Gap            0.0821247 Eh            2.2347 eV
             Fermi-level           -0.3163001 Eh           -8.6070 eV

 SCC (total)                   0 d,  0 h,  0 min,  1.334 sec
 SCC setup                      ...        0 min,  0.022 sec (  1.644%)
 Dispersion                     ...        0 min,  0.052 sec (  3.902%)
 classical contributions        ...        0 min,  0.014 sec (  1.082%)
 integral evaluation            ...        0 min,  0.063 sec (  4.702%)
 iterations                     ...        0 min,  0.965 sec ( 72.317%)
 molecular gradient             ...        0 min,  0.218 sec ( 16.315%)
 printout                       ...        0 min,  0.000 sec (  0.015%)

         :::::::::::::::::::::::::::::::::::::::::::::::::::::
         ::                     SUMMARY                     ::
         :::::::::::::::::::::::::::::::::::::::::::::::::::::
         :: total energy             -20.092611215272 Eh    ::
         :: gradient norm              0.067887180037 Eh/a0 ::
         :: HOMO-LUMO gap              2.234725660087 eV    ::
         ::.................................................::
         :: SCC energy               -20.298404280440 Eh    ::
         :: -> isotropic ES            0.027269876264 Eh    ::
         :: -> anisotropic ES          0.005083126166 Eh    ::
         :: -> anisotropic XC          0.013309664106 Eh    ::
         :: -> dispersion             -0.008467324254 Eh    ::
         :: repulsion energy           0.205776446488 Eh    ::
         :: add. restraining           0.000000000000 Eh    ::
         :: total charge              -0.000000000000 e     ::
         :::::::::::::::::::::::::::::::::::::::::::::::::::::

      ----------------------------------------------------------- 
     |                   =====================                   |
     |                        A N C O P T                        |
     |                   =====================                   |
     |               Approximate Normal Coordinate               |
     |                Rational Function Optimizer                |
      ----------------------------------------------------------- 

          ...................................................
          :                      SETUP                      :
          :.................................................:
          :   optimization level            normal          :
          :   max. optcycles                   200          :
          :   ANC micro-cycles                  20          :
          :   degrees of freedom                39          :
          :.................................................:
          :   RF solver                   davidson          :
          :   write xtbopt.log                true          :
          :   linear?                        false          :
          :   energy convergence         0.5000000E-05 Eh   :
          :   grad. convergence          0.1000000E-02 Eh/α :
          :   maximium RF displ.         1.0000000          :
          :   Hlow (freq-cutoff)         0.1000000E-01      :
          :   Hmax (freq-cutoff)         5.0000000          :
          :   S6 in model hess.         20.0000000          :
          ...................................................

generating ANC from model Hessian ...
Using Lindh-Hessian (1995)
 Shifting diagonal of input Hessian by    5.5234096150347028E-003
 Lowest  eigenvalues of input Hessian
    0.000000    0.000000    0.000000    0.000000    0.000000    0.000000
    0.010000    0.013161    0.016748    0.020301    0.028830    0.034980
    0.036460    0.046586    0.060139    0.062204    0.066273    0.068666
 Highest eigenvalues
    1.397396    2.051371    2.356428    4.315179    7.460821   15.251129


........................................................................
.............................. CYCLE    1 ..............................
........................................................................
   1    -20.2984043 -0.202984E+02  0.774E-05    2.23       0.0  T
   2    -20.2984043 -0.593658E-11  0.421E-05    2.23     612.7  T
   3    -20.2984043 -0.412115E-12  0.149E-05    2.23    1727.6  T
     SCC iter.                  ...        0 min,  0.304 sec
     gradient                   ...        0 min,  0.207 sec
 * total energy  :   -20.0926112 Eh     change       -0.8130030E-10 Eh
   gradient norm :     0.0678853 Eh/α   predicted     0.0000000E+00 (-100.00%)
   displ. norm   :     0.2877494 α      lambda       -0.9684138E-02
   maximum displ.:     0.1272180 α      in ANC's #13, #9, #15, ...

........................................................................
.............................. CYCLE    2 ..............................
........................................................................
   1    -20.3263775 -0.203264E+02  0.292E-01    2.48       0.0  T
   2    -20.3264460 -0.685489E-04  0.177E-01    2.45       1.0  T
   3    -20.3264320  0.139945E-04  0.588E-02    2.46       1.0  T
   4    -20.3264564 -0.243374E-04  0.105E-02    2.44       2.5  T
   5    -20.3264569 -0.509033E-06  0.451E-03    2.45       5.7  T
   6    -20.3264569 -0.443507E-07  0.177E-03    2.45      14.5  T
   7    -20.3264569 -0.294457E-08  0.604E-04    2.45      42.8  T
   8    -20.3264569 -0.646878E-09  0.182E-04    2.45     141.6  T
     SCC iter.                  ...        0 min,  0.841 sec
     gradient                   ...        0 min,  0.211 sec
 * total energy  :   -20.0987096 Eh     change       -0.6098386E-02 Eh
   gradient norm :     0.0206679 Eh/α   predicted    -0.5243003E-02 ( -14.03%)
   displ. norm   :     0.1939456 α      lambda       -0.1423965E-02
   maximum displ.:     0.1339212 α      in ANC's #1, #5, #13, ...

........................................................................
.............................. CYCLE    3 ..............................
........................................................................
   1    -20.3348739 -0.203349E+02  0.152E-01    2.48       0.0  T
   2    -20.3348859 -0.120100E-04  0.912E-02    2.49       1.0  T
   3    -20.3348848  0.108760E-05  0.198E-02    2.50       1.3  T
   4    -20.3348871 -0.229992E-05  0.545E-03    2.49       4.7  T
   5    -20.3348873 -0.181155E-06  0.230E-03    2.49      11.2  T
   6    -20.3348873 -0.605756E-08  0.768E-04    2.49      33.6  T
   7    -20.3348873 -0.124063E-08  0.285E-04    2.49      90.6  T
     SCC iter.                  ...        0 min,  0.715 sec
     gradient                   ...        0 min,  0.218 sec
 * total energy  :   -20.0994691 Eh     change       -0.7594639E-03 Eh
   gradient norm :     0.0135511 Eh/α   predicted    -0.7387662E-03 (  -2.73%)
   displ. norm   :     0.0590521 α      lambda       -0.1543478E-03
   maximum displ.:     0.0327561 α      in ANC's #1, #7, #4, ...

........................................................................
.............................. CYCLE    4 ..............................
........................................................................
   1    -20.3345654 -0.203346E+02  0.528E-02    2.45       0.0  T
   2    -20.3345659 -0.476817E-06  0.310E-02    2.46       1.0  T
   3    -20.3345659 -0.423120E-07  0.267E-03    2.46       9.7  T
   4    -20.3345659 -0.106498E-07  0.985E-04    2.46      26.2  T
   5    -20.3345659 -0.106993E-08  0.457E-04    2.46      56.6  T
     SCC iter.                  ...        0 min,  0.576 sec
     gradient                   ...        0 min,  0.200 sec
 * total energy  :   -20.0995233 Eh     change       -0.5426379E-04 Eh
   gradient norm :     0.0233142 Eh/α   predicted    -0.7744288E-04 (  42.72%)
   displ. norm   :     0.0401408 α      lambda       -0.8346804E-04
   maximum displ.:     0.0247743 α      in ANC's #2, #7, #4, ...

........................................................................
.............................. CYCLE    5 ..............................
........................................................................
   1    -20.3337009 -0.203337E+02  0.357E-02    2.43       0.0  T
   2    -20.3337012 -0.224651E-06  0.209E-02    2.43       1.2  T
   3    -20.3337012  0.390948E-08  0.227E-03    2.43      11.4  T
   4    -20.3337012 -0.315364E-07  0.803E-04    2.43      32.1  T
   5    -20.3337012 -0.321754E-08  0.396E-04    2.43      65.2  T
     SCC iter.                  ...        0 min,  0.598 sec
     gradient                   ...        0 min,  0.226 sec
 * total energy  :   -20.0995416 Eh     change       -0.1826498E-04 Eh
   gradient norm :     0.0160606 Eh/α   predicted    -0.4179995E-04 ( 128.85%)
   displ. norm   :     0.0300045 α      lambda       -0.4150622E-04
   maximum displ.:     0.0253073 α      in ANC's #2, #4, #7, ...

........................................................................
.............................. CYCLE    6 ..............................
........................................................................
   1    -20.3336169 -0.203336E+02  0.426E-02    2.44       0.0  T
   2    -20.3336170 -0.901396E-07  0.254E-02    2.44       1.0  T
   3    -20.3336170  0.105354E-07  0.212E-03    2.44      12.2  T
   4    -20.3336171 -0.438424E-07  0.798E-04    2.44      32.3  T
   5    -20.3336171 -0.881876E-09  0.355E-04    2.44      72.7  T
     SCC iter.                  ...        0 min,  0.595 sec
     gradient                   ...        0 min,  0.237 sec
 * total energy  :   -20.0995558 Eh     change       -0.1424128E-04 Eh
   gradient norm :     0.0013712 Eh/α   predicted    -0.2077172E-04 (  45.86%)
   displ. norm   :     0.0240091 α      lambda       -0.9154684E-05
   maximum displ.:     0.0163597 α      in ANC's #4, #2, #3, ...

........................................................................
.............................. CYCLE    7 ..............................
........................................................................
   1    -20.3339844 -0.203340E+02  0.325E-02    2.44       0.0  T
   2    -20.3339845 -0.466080E-07  0.194E-02    2.44       1.3  T
   3    -20.3339845 -0.519654E-08  0.131E-03    2.44      19.7  T
   4    -20.3339845 -0.133845E-07  0.597E-04    2.44      43.3  T
   5    -20.3339845 -0.562881E-09  0.274E-04    2.44      94.1  T
     SCC iter.                  ...        0 min,  0.572 sec
     gradient                   ...        0 min,  0.202 sec
 * total energy  :   -20.0995585 Eh     change       -0.2680906E-05 Eh
   gradient norm :     0.0018563 Eh/α   predicted    -0.4578815E-05 (  70.79%)
   displ. norm   :     0.0166477 α      lambda       -0.3542011E-05
   maximum displ.:     0.0140304 α      in ANC's #2, #3, #5, ...

........................................................................
.............................. CYCLE    8 ..............................
........................................................................
   1    -20.3338953 -0.203339E+02  0.194E-02    2.44       0.0  T
   2    -20.3338953 -0.256724E-07  0.115E-02    2.44       2.2  T
   3    -20.3338953 -0.139714E-08  0.862E-04    2.44      30.0  T
   4    -20.3338953 -0.610531E-08  0.363E-04    2.44      71.2  T
     SCC iter.                  ...        0 min,  0.491 sec
     gradient                   ...        0 min,  0.232 sec
 * total energy  :   -20.0995612 Eh     change       -0.2645933E-05 Eh
   gradient norm :     0.0007830 Eh/α   predicted    -0.1770041E-05 ( -33.10%)
   displ. norm   :     0.0110662 α      lambda       -0.8055188E-06
   maximum displ.:     0.0079988 α      in ANC's #1, #2, #4, ...

   *** GEOMETRY OPTIMIZATION CONVERGED AFTER 8 ITERATIONS ***

------------------------------------------------------------------------
 total energy gain   :        -0.0069499 Eh       -4.3612 kcal/mol
 total RMSD          :         0.1259444 a0        0.0666 Å
 total power (kW/mol):        -2.2808852 (step)   -2.3229 (real)
------------------------------------------------------------------------

 ANCopt (total)                0 d,  0 h,  0 min,  7.855 sec
 optimizer setup                ...        0 min,  0.000 sec (  0.003%)
 model hessian                  ...        0 min,  0.006 sec (  0.075%)
 ANC generation                 ...        0 min,  0.000 sec (  0.006%)
 coordinate transformation      ...        0 min,  0.000 sec (  0.002%)
 single point calculation       ...        0 min,  7.676 sec ( 97.718%)
 optimization log               ...        0 min,  0.001 sec (  0.019%)
 hessian update                 ...        0 min,  0.168 sec (  2.143%)
 rational function              ...        0 min,  0.002 sec (  0.020%)

================
 final structure:
================
15
 xtb: 6.5.0 (97a52f5)
C            1.64353800179096       -0.40947268165880       -0.14076962891137
N            0.59188822373630        0.57346835614079        0.03399177963283
C           -0.74571993718293        0.05473659417232        0.28898476823356
C           -1.10142370371453       -1.38983108507971        0.07281633826007
C            0.96520934281272        1.54287120579207        1.04364660480715
H           -1.03757440770674        0.23784995784338        1.33794020879809
H           -1.45667527092601        0.62709729640588       -0.32554049933742
O           -0.44147375345090       -2.30579321380202       -0.32496880193506
H            1.10461678175046        1.09232125586312        2.03940640923228
H            0.19687052168465        2.31267496037791        1.11167322956572
H            1.37648291695543       -1.09593569808918       -0.93773758970878
H            1.85172068783552       -0.98634630539130        0.77165011945239
H            2.54991743587371        0.11985635969167       -0.43421008188445
H           -2.17150547864587       -1.54319788595781        0.33651726213473
H            1.89924664918721        2.01646988369172        0.74593488166030

 Bond Distances (Angstroems)
 ---------------------------
C1-N2=1.4501         C1-H11=1.0852        C1-H12=1.0994        C1-H13=1.0899        N2-C1=1.4501         N2-C3=1.4572         
N2-C5=1.4486         C3-N2=1.4572         C3-C4=1.5033         C3-H6=1.1041         C3-H7=1.1003         C4-C3=1.5033         
C4-O8=1.1970         C4-H14=1.1127        C5-N2=1.4486         C5-H9=1.1018         C5-H10=1.0898        C5-H15=1.0887        
H6-C3=1.1041         H7-C3=1.1003         O8-C4=1.1970         H9-C5=1.1018         H10-C5=1.0898        H11-C1=1.0852        
H12-C1=1.0994        H13-C1=1.0899        H14-C4=1.1127        H15-C5=1.0887        
 C  H  Rav=1.0969 sigma=0.0085  Rmin=1.0852  Rmax=1.1127     9
 C  C  Rav=1.5033 sigma=0.0000  Rmin=1.5033  Rmax=1.5033     1
 N  C  Rav=1.4519 sigma=0.0037  Rmin=1.4486  Rmax=1.4572     3
 O  C  Rav=1.1970 sigma=0.0000  Rmin=1.1970  Rmax=1.1970     1

 selected bond angles (degree)
 --------------------
H11-C1-N2=109.81               H12-C1-N2=113.14               H12-C1-H11=108.92              H13-C1-N2=107.84               
H13-C1-H11=108.31              H13-C1-H12=108.71              C3-N2-C1=116.46                C5-N2-C1=110.53                
C5-N2-C3=110.66                C4-C3-N2=122.28                H6-C3-N2=110.48                H6-C3-C4=103.50                
H7-C3-N2=108.07                H7-C3-C4=105.47                H7-C3-H6=105.87                O8-C4-C3=130.74                
H14-C4-C3=109.02               H14-C4-O8=120.23               H9-C5-N2=112.88                H10-C5-N2=109.54               
H10-C5-H9=108.76               H15-C5-N2=108.76               H15-C5-H9=108.45               H15-C5-H10=108.34              

 selected dihedral angles (degree)
 ---------------------------------
C3-N2-C1-H11= 55.79           C3-N2-C1-H12=293.88           C3-N2-C1-H13=173.61           C5-N2-C1-H11=183.18           
C5-N2-C1-H12= 61.27           C5-N2-C1-H13=301.00           C4-C3-N2-C1=346.21            C4-C3-N2-C5=218.88            
H6-C3-N2-C1=108.26            H6-C3-N2-C5=340.93            H7-C3-N2-C1=223.66            H7-C3-N2-C5= 96.34            
O8-C4-C3-N2=358.97            O8-C4-C3-H6=233.71            O8-C4-C3-H7=122.72            H14-C4-C3-N2=179.85           
H14-C4-C3-H6= 54.60           H14-C4-C3-H7=303.60           H9-C5-N2-C1=297.35            H9-C5-N2-C3= 67.87            
H10-C5-N2-C1=176.00           H10-C5-N2-C3=306.52           H15-C5-N2-C1= 57.76           H15-C5-N2-C3=188.27           
           -------------------------------------------------
          |                Final Singlepoint                |
           -------------------------------------------------

          ...................................................
          :                      SETUP                      :
          :.................................................:
          :  # basis functions                  33          :
          :  # atomic orbitals                  33          :
          :  # shells                           21          :
          :  # electrons                        36          :
          :  max. iterations                   250          :
          :  Hamiltonian                  GFN2-xTB          :
          :  restarted?                      false          :
          :  GBSA solvation                  false          :
          :  PC potential                    false          :
          :  electronic temp.          300.0000000     K    :
          :  accuracy                    1.0000000          :
          :  -> integral cutoff          0.2500000E+02      :
          :  -> integral neglect         0.1000000E-07      :
          :  -> SCF convergence          0.1000000E-05 Eh   :
          :  -> wf. convergence          0.1000000E-03 e    :
          :  Broyden damping             0.4000000          :
          ...................................................

 iter      E             dE          RMSdq      gap      omega  full diag
   1    -20.3338953 -0.203339E+02  0.181E-04    2.44       0.0  T
   2    -20.3338953 -0.616254E-10  0.110E-04    2.44     235.1  T
   3    -20.3338953 -0.115143E-10  0.684E-05    2.44     377.6  T

   *** convergence criteria satisfied after 3 iterations ***

         #    Occupation            Energy/Eh            Energy/eV
      -------------------------------------------------------------
         1        2.0000           -0.7238727             -19.6976
       ...           ...                  ...                  ...
        12        2.0000           -0.4955327             -13.4841
        13        2.0000           -0.4852431             -13.2041
        14        2.0000           -0.4693575             -12.7719
        15        2.0000           -0.4605406             -12.5319
        16        2.0000           -0.4544923             -12.3674
        17        2.0000           -0.4053845             -11.0311
        18        2.0000           -0.3535853              -9.6215 (HOMO)
        19                         -0.2640508              -7.1852 (LUMO)
        20                          0.0067253               0.1830
        21                          0.0622526               1.6940
        22                          0.0879717               2.3938
        23                          0.1253205               3.4101
       ...                                ...                  ...
        33                          0.6356610              17.2972
      -------------------------------------------------------------
                  HL-Gap            0.0895345 Eh            2.4364 eV
             Fermi-level           -0.3088180 Eh           -8.4034 eV

 SCC (total)                   0 d,  0 h,  0 min,  0.788 sec
 SCC setup                      ...        0 min,  0.016 sec (  2.089%)
 Dispersion                     ...        0 min,  0.048 sec (  6.131%)
 classical contributions        ...        0 min,  0.022 sec (  2.807%)
 integral evaluation            ...        0 min,  0.069 sec (  8.819%)
 iterations                     ...        0 min,  0.395 sec ( 50.138%)
 molecular gradient             ...        0 min,  0.236 sec ( 29.963%)
 printout                       ...        0 min,  0.000 sec (  0.017%)

         :::::::::::::::::::::::::::::::::::::::::::::::::::::
         ::                     SUMMARY                     ::
         :::::::::::::::::::::::::::::::::::::::::::::::::::::
         :: total energy             -20.099561161929 Eh    ::
         :: gradient norm              0.000782090953 Eh/a0 ::
         :: HOMO-LUMO gap              2.436357269673 eV    ::
         ::.................................................::
         :: SCC energy               -20.333895340503 Eh    ::
         :: -> isotropic ES            0.026392663955 Eh    ::
         :: -> anisotropic ES          0.004674120123 Eh    ::
         :: -> anisotropic XC          0.012108928905 Eh    ::
         :: -> dispersion             -0.008577172368 Eh    ::
         :: repulsion energy           0.234314412940 Eh    ::
         :: add. restraining           0.000003624502 Eh    ::
         :: total charge              -0.000000000000 e     ::
         :::::::::::::::::::::::::::::::::::::::::::::::::::::

           -------------------------------------------------
          |                Property Printout                |
           -------------------------------------------------

    * Orbital Energies and Occupations

         #    Occupation            Energy/Eh            Energy/eV
      -------------------------------------------------------------
         1        2.0000           -0.7238727             -19.6976
       ...           ...                  ...                  ...
         6        2.0000           -0.5716033             -15.5541
         7        2.0000           -0.5629067             -15.3175
         8        2.0000           -0.5559977             -15.1295
         9        2.0000           -0.5322154             -14.4823
        10        2.0000           -0.5193638             -14.1326
        11        2.0000           -0.5165944             -14.0572
        12        2.0000           -0.4955327             -13.4841
        13        2.0000           -0.4852431             -13.2041
        14        2.0000           -0.4693575             -12.7719
        15        2.0000           -0.4605406             -12.5319
        16        2.0000           -0.4544923             -12.3674
        17        2.0000           -0.4053845             -11.0311
        18        2.0000           -0.3535853              -9.6215 (HOMO)
        19                         -0.2640508              -7.1852 (LUMO)
        20                          0.0067253               0.1830
        21                          0.0622526               1.6940
        22                          0.0879717               2.3938
        23                          0.1253205               3.4101
        24                          0.1509444               4.1074
        25                          0.1602016               4.3593
        26                          0.1689966               4.5986
        27                          0.1879546               5.1145
        28                          0.2045021               5.5648
        29                          0.2169304               5.9030
       ...                                ...                  ...
        33                          0.6356610              17.2972
      -------------------------------------------------------------
                  HL-Gap            0.0895345 Eh            2.4364 eV
             Fermi-level           -0.3088180 Eh           -8.4034 eV

     #   Z          covCN         q      C6AA      α(0)
     1   6 C        3.707    -0.038    21.400     6.612
     2   7 N        2.722    -0.164    24.546     7.358
     3   6 C        3.755    -0.018    20.951     6.527
     4   6 C        2.754     0.212    23.520     7.941
     5   6 C        3.720    -0.035    21.319     6.595
     6   1 H        0.923     0.057     2.233     2.337
     7   1 H        0.923     0.070     2.087     2.259
     8   8 O        0.856    -0.317    20.090     6.009
     9   1 H        0.923     0.014     2.824     2.628
    10   1 H        0.925     0.037     2.492     2.469
    11   1 H        0.925     0.065     2.141     2.288
    12   1 H        0.923     0.018     2.759     2.598
    13   1 H        0.925     0.039     2.466     2.456
    14   1 H        0.921     0.014     2.833     2.632
    15   1 H        0.925     0.047     2.358     2.401

 Mol. C6AA /au·bohr⁶  :       1774.245867
 Mol. C8AA /au·bohr⁸  :      37043.102746
 Mol. α(0) /au        :         63.111338


Wiberg/Mayer (AO) data.
largest (>0.10) Wiberg bond orders for each atom

 ---------------------------------------------------------------------------
     #   Z sym  total        # sym  WBO       # sym  WBO       # sym  WBO
 ---------------------------------------------------------------------------
     1   6 C    3.980 --     2 N    1.010    13 H    0.982    11 H    0.979
                            12 H    0.976
     2   7 N    3.127 --     5 C    1.015     1 C    1.010     3 C    1.008
     3   6 C    3.991 --     4 C    1.011     2 N    1.008     7 H    0.932
                             6 H    0.932
     4   6 C    3.924 --     8 O    1.914     3 C    1.011    14 H    0.927
     5   6 C    3.986 --     2 N    1.015    10 H    0.984    15 H    0.981
                             9 H    0.973
     6   1 H    0.997 --     3 C    0.932
     7   1 H    0.995 --     3 C    0.932
     8   8 O    2.109 --     4 C    1.914
     9   1 H    1.000 --     5 C    0.973
    10   1 H    0.999 --     5 C    0.984
    11   1 H    0.996 --     1 C    0.979
    12   1 H    1.000 --     1 C    0.976
    13   1 H    0.999 --     1 C    0.982
    14   1 H    0.999 --     4 C    0.927
    15   1 H    0.997 --     5 C    0.981
 ---------------------------------------------------------------------------

Topologies differ in total number of bonds
Writing topology from bond orders to xtbtopo.mol

molecular dipole:
                 x           y           z       tot (Debye)
 q only:       -0.245       0.851       0.332
   full:       -0.410       0.866       0.689       2.998
molecular quadrupole (traceless):
                xx          xy          yy          xz          yz          zz
 q only:        4.277      -0.101      -5.086      -0.743      -0.411       0.808
  q+dip:        5.597       0.308      -7.339      -0.405      -1.115       1.742
   full:        5.448       0.254      -7.484      -0.116      -0.900       2.036

           -------------------------------------------------
          |                Geometry Summary                 |
           -------------------------------------------------

      molecular mass/u    :       87.1205185
   center of mass at/Å    :        0.1689827      -0.3268870       0.1738861
  moments of inertia/u·Å² :        0.7223494E+02   0.2048086E+03   0.2596240E+03
rotational constants/cm⁻¹ :        0.2333723E+00   0.8230921E-01   0.6493094E-01

 * 12 selected distances

     #   Z          #   Z                                           value/Å
     1   6 C        2   7 N                                       1.4500629
     2   7 N        3   6 C                                       1.4571548 (max)
     2   7 N        5   6 C                                       1.4486248
     3   6 C        6   1 H                                       1.1040912
     3   6 C        7   1 H                                       1.1003162
     4   6 C        8   8 O                                       1.1969770
     5   6 C        9   1 H                                       1.1018019
     5   6 C       10   1 H                                       1.0897569
     1   6 C       11   1 H                                       1.0852226 (min)
     1   6 C       12   1 H                                       1.0993786
     1   6 C       13   1 H                                       1.0898718
     5   6 C       15   1 H                                       1.0887396

 * 3 distinct bonds (by element types)

   Z      Z             #   av. dist./Å        max./Å        min./Å
   1 H    6 C           8     1.0948973     1.1040912     1.0852226
   6 C    7 N           3     1.4519475     1.4571548     1.4486248
   6 C    8 O           1     1.1969770     1.1969770     1.1969770


optimized geometry written to: xtbopt.xyz


           -------------------------------------------------
          | TOTAL ENERGY              -20.099561161929 Eh   |
          | GRADIENT NORM               0.000782090953 Eh/α |
          | HOMO-LUMO GAP               2.436357269673 eV   |
           -------------------------------------------------
########################################################################
[WARNING] Runtime exception occurred
-1- restart_readRestart: Number of electron missmatch in restart file.
########################################################################

------------------------------------------------------------------------
 * finished run on 2023/11/18 at 08:11:33.608     
------------------------------------------------------------------------
 total:
 * wall-time:     0 d,  0 h,  0 min, 10.208 sec
 *  cpu-time:     0 d,  0 h,  4 min, 57.373 sec
 * ratio c/w:    29.132 speedup
 SCF:
 * wall-time:     0 d,  0 h,  0 min,  1.335 sec
 *  cpu-time:     0 d,  0 h,  0 min, 42.767 sec
 * ratio c/w:    32.046 speedup
 ANC optimizer:
 * wall-time:     0 d,  0 h,  0 min,  8.682 sec
 *  cpu-time:     0 d,  0 h,  4 min,  9.094 sec
 * ratio c/w:    28.690 speedup

