15
 energy: -20.106564529977 gnorm: 0.000887568479 xtb: 6.5.0 (97a52f5)
C            1.51410243540401       -0.08127826421862        1.36848865861829
N            0.96437034742141       -0.07650208974848        0.02896757630579
C           -0.27404109042666       -0.80298300821630       -0.11731599051747
C           -1.41748172399959       -0.49030765566160        0.82127517188875
C            0.95451484352921        1.23464899342444       -0.58132145991211
H           -0.63699609789312       -0.68851643370907       -1.14343929334014
H           -0.06400534936342       -1.87336368145429        0.02570344481980
O           -1.42601323169032        0.30406372952539        1.71817458029868
H            0.32131272151744        1.95729097153960       -0.04617769015211
H            0.59672141807174        1.15141492559976       -1.60689056965830
H            1.53780138176156       -1.10615071426874        1.73708766202536
H            0.94887123870310        0.53650377789907        2.07578182302480
H            2.53600901143244        0.29479556546026        1.31909179397814
H           -2.30443501052734       -1.12994368854937        0.61799794971140
H            1.97439010605946        1.61709058237793       -0.59808164709101
