      -----------------------------------------------------------      
     |                   =====================                   |     
     |                           x T B                           |     
     |                   =====================                   |     
     |                         S. Grimme                         |     
     |          Mulliken Center for Theoretical Chemistry        |     
     |                    University of Bonn                     |     
      -----------------------------------------------------------      

   * xtb version 6.5.0 (97a52f5) compiled by 'conda@d2599ee0d4f4' on 2022-05-15

   xtb is free software: you can redistribute it and/or modify it under
   the terms of the GNU Lesser General Public License as published by
   the Free Software Foundation, either version 3 of the License, or
   (at your option) any later version.
   
   xtb is distributed in the hope that it will be useful,
   but WITHOUT ANY WARRANTY; without even the implied warranty of
   MERCHANTABILITY or FITNESS FOR A PARTICULAR PURPOSE.  See the
   GNU Lesser General Public License for more details.
   
   Cite this work as:
   * C. Bannwarth, E. Caldeweyher, S. Ehlert, A. Hansen, P. Pracht,
     J. Seibert, S. Spicher, S. Grimme, WIREs Comput. Mol. Sci., 2020, 11,
     e01493. DOI: 10.1002/wcms.1493
   
   for GFN2-xTB:
   * C. Bannwarth, S. Ehlert and S. Grimme., J. Chem. Theory Comput., 2019,
     15, 1652-1671. DOI: 10.1021/acs.jctc.8b01176
   for GFN1-xTB:
   * S. Grimme, C. Bannwarth, P. Shushkov, J. Chem. Theory Comput., 2017,
     13, 1989-2009. DOI: 10.1021/acs.jctc.7b00118
   for GFN0-xTB:
   * P. Pracht, E. Caldeweyher, S. Ehlert, S. Grimme, ChemRxiv, 2019, preprint.
     DOI: 10.26434/chemrxiv.8326202.v1
   for GFN-FF:
   * S. Spicher and S. Grimme, Angew. Chem. Int. Ed., 2020, 59, 15665-15673.
     DOI: 10.1002/anie.202004239
   
   for ALPB and GBSA implicit solvation:
   * S. Ehlert, M. Stahn, S. Spicher, S. Grimme, J. Chem. Theory Comput.,
     2021, 17, 4250-4261. DOI: 10.1021/acs.jctc.1c00471
   
   for DFT-D4:
   * E. Caldeweyher, C. Bannwarth and S. Grimme, J. Chem. Phys., 2017,
     147, 034112. DOI: 10.1063/1.4993215
   * E. Caldeweyher, S. Ehlert, A. Hansen, H. Neugebauer, S. Spicher,
     C. Bannwarth and S. Grimme, J. Chem. Phys., 2019, 150, 154122.
     DOI: 10.1063/1.5090222
   * E. Caldeweyher, J.-M. Mewes, S. Ehlert and S. Grimme, Phys. Chem. Chem. Phys.
     2020, 22, 8499-8512. DOI: 10.1039/D0CP00502A
   
   for sTDA-xTB:
   * S. Grimme and C. Bannwarth, J. Chem. Phys., 2016, 145, 054103.
     DOI: 10.1063/1.4959605
   
   in the mass-spec context:
   * V. Asgeirsson, C. Bauer and S. Grimme, Chem. Sci., 2017, 8, 4879.
     DOI: 10.1039/c7sc00601b
   * J. Koopman and S. Grimme, ACS Omega 2019, 4, 12, 15120-15133.
     DOI: 10.1021/acsomega.9b02011
   
   for metadynamics refer to:
   * S. Grimme, J. Chem. Theory Comput., 2019, 155, 2847-2862
     DOI: 10.1021/acs.jctc.9b00143
   
   for SPH calculations refer to:
   * S. Spicher and S. Grimme, J. Chem. Theory Comput., 2021, 17, 1701-1714
     DOI: 10.1021/acs.jctc.0c01306
   
   with help from (in alphabetical order)
   P. Atkinson, C. Bannwarth, F. Bohle, G. Brandenburg, E. Caldeweyher
   M. Checinski, S. Dohm, S. Ehlert, S. Ehrlich, I. Gerasimov, C. Hölzer
   A. Katbashev, J. Koopman, C. Lavigne, S. Lehtola, F. März, M. Müller,
   F. Musil, H. Neugebauer, J. Pisarek, C. Plett, P. Pracht, F. Pultar,
   J. Seibert, P. Shushkov, S. Spicher, M. Stahn, M. Steiner, T. Strunk,
   J. Stückrath, T. Rose, and J. Unsleber
   
 * started run on 2023/11/18 at 08:12:42.080     

           -------------------------------------------------
          |                Calculation Setup                |
           -------------------------------------------------

          program call               : /home/liuchw/anaconda3/envs/xtbenv/bin/xtb --gfn 2 --chrg 0 --uhf 0 4_27_Index_0-opt-2-3-309_preQMOPTprefit_xyzformat.xyz --opt --input xtb-opt-2-3-309_constr.txt
          hostname                   : node165.bme.utexas.edu
          coordinate file            : 4_27_Index_0-opt-2-3-309_preQMOPTprefit_xyzformat.xyz
          omp threads                :                    64

   ID    Z sym.   atoms
    1    6 C      1, 3-5
    2    7 N      2
    3    1 H      6, 7, 9-15
    4    8 O      8
constraining angle 5 2 3 4 to  308.9577449°, actual value:  -51.0422551°
constraining angle 2 3 4 8 to  358.9949993°, actual value:   -1.0050007°
constraining angle 10 5 2 1 to  176.0130574°, actual value:  176.0130574°
constraining angle 13 1 2 5 to  301.0068555°, actual value:  -58.9931445°

           -------------------------------------------------
          |                 G F N 2 - x T B                 |
           -------------------------------------------------

        Reference                      10.1021/acs.jctc.8b01176
      * Hamiltonian:
        H0-scaling (s, p, d)           1.850000    2.230000    2.230000
        zeta-weighting                 0.500000
      * Dispersion:
        s8                             2.700000
        a1                             0.520000
        a2                             5.000000
        s9                             5.000000
      * Repulsion:
        kExp                           1.500000    1.000000
        rExp                           1.000000
      * Coulomb:
        alpha                          2.000000
        third order                    shell-resolved
        anisotropic                    true
        a3                             3.000000
        a5                             4.000000
        cn-shift                       1.200000
        cn-exp                         4.000000
        max-rad                        5.000000

q/qsh data taken from xtbrestart
CAMM data taken from xtbrestart

          ...................................................
          :                      SETUP                      :
          :.................................................:
          :  # basis functions                  33          :
          :  # atomic orbitals                  33          :
          :  # shells                           21          :
          :  # electrons                        36          :
          :  max. iterations                   250          :
          :  Hamiltonian                  GFN2-xTB          :
          :  restarted?                       true          :
          :  GBSA solvation                  false          :
          :  PC potential                    false          :
          :  electronic temp.          300.0000000     K    :
          :  accuracy                    1.0000000          :
          :  -> integral cutoff          0.2500000E+02      :
          :  -> integral neglect         0.1000000E-07      :
          :  -> SCF convergence          0.1000000E-05 Eh   :
          :  -> wf. convergence          0.1000000E-03 e    :
          :  Broyden damping             0.4000000          :
          ...................................................

 iter      E             dE          RMSdq      gap      omega  full diag
   1    -20.3073224 -0.203073E+02  0.164E+00    2.08       0.0  T
   2    -20.3075874 -0.264978E-03  0.957E-01    2.05       1.0  T
   3    -20.3076262 -0.387927E-04  0.670E-02    2.03       1.0  T
   4    -20.3076492 -0.229646E-04  0.301E-02    2.03       1.0  T
   5    -20.3076501 -0.908839E-06  0.109E-02    2.03       2.4  T
   6    -20.3076503 -0.243134E-06  0.466E-03    2.03       5.5  T
   7    -20.3076503 -0.348990E-07  0.228E-03    2.03      11.3  T
   8    -20.3076504 -0.194022E-07  0.752E-04    2.03      34.3  T
   9    -20.3076504 -0.210893E-08  0.242E-04    2.03     106.7  T

   *** convergence criteria satisfied after 9 iterations ***

         #    Occupation            Energy/Eh            Energy/eV
      -------------------------------------------------------------
         1        2.0000           -0.7193330             -19.5740
       ...           ...                  ...                  ...
        12        2.0000           -0.4916234             -13.3778
        13        2.0000           -0.4705734             -12.8050
        14        2.0000           -0.4641732             -12.6308
        15        2.0000           -0.4597455             -12.5103
        16        2.0000           -0.4566613             -12.4264
        17        2.0000           -0.4254208             -11.5763
        18        2.0000           -0.3518971              -9.5756 (HOMO)
        19                         -0.2772143              -7.5434 (LUMO)
        20                         -0.0019628              -0.0534
        21                          0.0314654               0.8562
        22                          0.0540573               1.4710
        23                          0.0964436               2.6244
       ...                                ...                  ...
        33                          0.5281833              14.3726
      -------------------------------------------------------------
                  HL-Gap            0.0746828 Eh            2.0322 eV
             Fermi-level           -0.3145557 Eh           -8.5595 eV

 SCC (total)                   0 d,  0 h,  0 min,  1.380 sec
 SCC setup                      ...        0 min,  0.018 sec (  1.292%)
 Dispersion                     ...        0 min,  0.062 sec (  4.491%)
 classical contributions        ...        0 min,  0.025 sec (  1.788%)
 integral evaluation            ...        0 min,  0.069 sec (  4.973%)
 iterations                     ...        0 min,  0.963 sec ( 69.775%)
 molecular gradient             ...        0 min,  0.243 sec ( 17.639%)
 printout                       ...        0 min,  0.000 sec (  0.014%)

         :::::::::::::::::::::::::::::::::::::::::::::::::::::
         ::                     SUMMARY                     ::
         :::::::::::::::::::::::::::::::::::::::::::::::::::::
         :: total energy             -20.100705247852 Eh    ::
         :: gradient norm              0.064611216859 Eh/a0 ::
         :: HOMO-LUMO gap              2.032223252822 eV    ::
         ::.................................................::
         :: SCC energy               -20.307650363127 Eh    ::
         :: -> isotropic ES            0.027743349076 Eh    ::
         :: -> anisotropic ES          0.004224955008 Eh    ::
         :: -> anisotropic XC          0.013564642114 Eh    ::
         :: -> dispersion             -0.008759968115 Eh    ::
         :: repulsion energy           0.206925228277 Eh    ::
         :: add. restraining           0.000000000000 Eh    ::
         :: total charge               0.000000000000 e     ::
         :::::::::::::::::::::::::::::::::::::::::::::::::::::

      ----------------------------------------------------------- 
     |                   =====================                   |
     |                        A N C O P T                        |
     |                   =====================                   |
     |               Approximate Normal Coordinate               |
     |                Rational Function Optimizer                |
      ----------------------------------------------------------- 

          ...................................................
          :                      SETUP                      :
          :.................................................:
          :   optimization level            normal          :
          :   max. optcycles                   200          :
          :   ANC micro-cycles                  20          :
          :   degrees of freedom                39          :
          :.................................................:
          :   RF solver                   davidson          :
          :   write xtbopt.log                true          :
          :   linear?                        false          :
          :   energy convergence         0.5000000E-05 Eh   :
          :   grad. convergence          0.1000000E-02 Eh/α :
          :   maximium RF displ.         1.0000000          :
          :   Hlow (freq-cutoff)         0.1000000E-01      :
          :   Hmax (freq-cutoff)         5.0000000          :
          :   S6 in model hess.         20.0000000          :
          ...................................................

generating ANC from model Hessian ...
Using Lindh-Hessian (1995)
 Shifting diagonal of input Hessian by    4.2672080983989389E-003
 Lowest  eigenvalues of input Hessian
    0.000000    0.000000    0.000000    0.000000    0.000000    0.000000
    0.010000    0.010643    0.016129    0.021293    0.027446    0.032142
    0.034378    0.047851    0.058719    0.061997    0.066359    0.068145
 Highest eigenvalues
    1.413220    2.047814    2.418087    4.295873    7.576005   16.653654


........................................................................
.............................. CYCLE    1 ..............................
........................................................................
   1    -20.3076504 -0.203077E+02  0.569E-05    2.03       0.0  T
   2    -20.3076504 -0.422062E-11  0.308E-05    2.03     838.3  T
   3    -20.3076504 -0.248690E-12  0.117E-05    2.03    2200.9  T
     SCC iter.                  ...        0 min,  0.335 sec
     gradient                   ...        0 min,  0.216 sec
 * total energy  :   -20.1007052 Eh     change       -0.5426415E-10 Eh
   gradient norm :     0.0646095 Eh/α   predicted     0.0000000E+00 (-100.00%)
   displ. norm   :     0.2685754 α      lambda       -0.8795436E-02
   maximum displ.:     0.1360438 α      in ANC's #9, #13, #16, ...

........................................................................
.............................. CYCLE    2 ..............................
........................................................................
   1    -20.3350775 -0.203351E+02  0.277E-01    2.27       0.0  T
   2    -20.3351544 -0.769544E-04  0.162E-01    2.25       1.0  T
   3    -20.3351503  0.418267E-05  0.524E-02    2.25       1.0  T
   4    -20.3351622 -0.119064E-04  0.118E-02    2.24       2.2  T
   5    -20.3351631 -0.908112E-06  0.520E-03    2.24       5.0  T
   6    -20.3351631 -0.633580E-07  0.189E-03    2.24      13.7  T
   7    -20.3351631 -0.385429E-08  0.667E-04    2.24      38.7  T
   8    -20.3351631 -0.619558E-09  0.189E-04    2.24     136.8  T
     SCC iter.                  ...        0 min,  0.833 sec
     gradient                   ...        0 min,  0.201 sec
 * total energy  :   -20.1061067 Eh     change       -0.5401419E-02 Eh
   gradient norm :     0.0234426 Eh/α   predicted    -0.4714946E-02 ( -12.71%)
   displ. norm   :     0.1376045 α      lambda       -0.1099481E-02
   maximum displ.:     0.0826205 α      in ANC's #1, #9, #6, ...

........................................................................
.............................. CYCLE    3 ..............................
........................................................................
   1    -20.3428813 -0.203429E+02  0.119E-01    2.26       0.0  T
   2    -20.3428898 -0.853195E-05  0.692E-02    2.26       1.0  T
   3    -20.3428892  0.641904E-06  0.175E-02    2.26       1.5  T
   4    -20.3428908 -0.166098E-05  0.426E-03    2.26       6.1  T
   5    -20.3428909 -0.855369E-07  0.192E-03    2.26      13.4  T
   6    -20.3428909 -0.790529E-08  0.590E-04    2.26      43.8  T
   7    -20.3428909 -0.540425E-09  0.195E-04    2.26     132.5  T
     SCC iter.                  ...        0 min,  0.710 sec
     gradient                   ...        0 min,  0.204 sec
 * total energy  :   -20.1066842 Eh     change       -0.5775223E-03 Eh
   gradient norm :     0.0351487 Eh/α   predicted    -0.5601504E-03 (  -3.01%)
   displ. norm   :     0.1158230 α      lambda       -0.4014775E-03
   maximum displ.:     0.0927364 α      in ANC's #1, #5, #2, ...

........................................................................
.............................. CYCLE    4 ..............................
........................................................................
   1    -20.3439950 -0.203440E+02  0.772E-02    2.23       0.0  T
   2    -20.3439966 -0.154022E-05  0.452E-02    2.23       1.0  T
   3    -20.3439967 -0.164710E-06  0.470E-03    2.24       5.5  T
   4    -20.3439968 -0.611284E-07  0.186E-03    2.24      13.9  T
   5    -20.3439968 -0.519300E-08  0.615E-04    2.24      42.0  T
   6    -20.3439968 -0.477097E-09  0.179E-04    2.24     144.1  T
     SCC iter.                  ...        0 min,  0.550 sec
     gradient                   ...        0 min,  0.170 sec
 * total energy  :   -20.1066265 Eh     change        0.5773196E-04 Eh
   gradient norm :     0.0747388 Eh/α   predicted    -0.2034339E-03 (-452.38%)
   displ. norm   :     0.0286746 α      lambda       -0.3887617E-03
   maximum displ.:     0.0168848 α      in ANC's #1, #9, #13, ...

........................................................................
.............................. CYCLE    5 ..............................
........................................................................
   1    -20.3420011 -0.203420E+02  0.219E-02    2.23       0.0  T
   2    -20.3420016 -0.533293E-06  0.129E-02    2.23       2.0  T
   3    -20.3420016  0.152041E-07  0.443E-03    2.23       5.8  T
   4    -20.3420017 -0.643669E-07  0.103E-03    2.23      25.0  T
   5    -20.3420017 -0.616322E-08  0.440E-04    2.23      58.7  T
   6    -20.3420017 -0.440583E-09  0.149E-04    2.23     173.4  T
     SCC iter.                  ...        0 min,  0.654 sec
     gradient                   ...        0 min,  0.190 sec
 * total energy  :   -20.1068302 Eh     change       -0.2037724E-03 Eh
   gradient norm :     0.0032467 Eh/α   predicted    -0.1945426E-03 (  -4.53%)
   displ. norm   :     0.0288180 α      lambda       -0.1432073E-04
   maximum displ.:     0.0189949 α      in ANC's #1, #4, #3, ...

........................................................................
.............................. CYCLE    6 ..............................
........................................................................
   1    -20.3418853 -0.203419E+02  0.174E-02    2.22       0.0  T
   2    -20.3418854 -0.613258E-07  0.102E-02    2.22       2.5  T
   3    -20.3418854 -0.192461E-09  0.121E-03    2.22      21.4  T
   4    -20.3418854 -0.697365E-08  0.433E-04    2.22      59.6  T
   5    -20.3418854 -0.894584E-09  0.224E-04    2.22     115.3  T
     SCC iter.                  ...        0 min,  0.528 sec
     gradient                   ...        0 min,  0.191 sec
 * total energy  :   -20.1068393 Eh     change       -0.9102445E-05 Eh
   gradient norm :     0.0016563 Eh/α   predicted    -0.7165594E-05 ( -21.28%)
   displ. norm   :     0.0469125 α      lambda       -0.7178396E-05
   maximum displ.:     0.0324107 α      in ANC's #1, #2, #5, ...

........................................................................
.............................. CYCLE    7 ..............................
........................................................................
   1    -20.3418303 -0.203418E+02  0.263E-02    2.22       0.0  T
   2    -20.3418305 -0.132973E-06  0.154E-02    2.22       1.7  T
   3    -20.3418304  0.345511E-07  0.257E-03    2.22      10.1  T
   4    -20.3418305 -0.578487E-07  0.590E-04    2.22      43.7  T
   5    -20.3418305 -0.110177E-08  0.278E-04    2.22      93.0  T
     SCC iter.                  ...        0 min,  0.488 sec
     gradient                   ...        0 min,  0.199 sec
 * total energy  :   -20.1068431 Eh     change       -0.3813852E-05 Eh
   gradient norm :     0.0019957 Eh/α   predicted    -0.3592160E-05 (  -5.81%)
   displ. norm   :     0.0084678 α      lambda       -0.1749602E-05
   maximum displ.:     0.0061983 α      in ANC's #2, #3, #7, ...

........................................................................
.............................. CYCLE    8 ..............................
........................................................................
   1    -20.3420541 -0.203421E+02  0.115E-02    2.22       0.0  T
   2    -20.3420541 -0.113906E-07  0.682E-03    2.22       3.8  T
   3    -20.3420541  0.480473E-09  0.620E-04    2.22      41.6  T
   4    -20.3420541 -0.340791E-08  0.242E-04    2.22     106.8  T
     SCC iter.                  ...        0 min,  0.421 sec
     gradient                   ...        0 min,  0.232 sec
 * total energy  :   -20.1068441 Eh     change       -0.9474320E-06 Eh
   gradient norm :     0.0006826 Eh/α   predicted    -0.8743146E-06 (  -7.72%)
   displ. norm   :     0.0053917 α      lambda       -0.3420228E-06
   maximum displ.:     0.0036789 α      in ANC's #4, #1, #5, ...

   *** GEOMETRY OPTIMIZATION CONVERGED AFTER 8 ITERATIONS ***

------------------------------------------------------------------------
 total energy gain   :        -0.0061388 Eh       -3.8522 kcal/mol
 total RMSD          :         0.1264774 a0        0.0669 Å
 total power (kW/mol):        -2.0146920 (step)   -2.1753 (real)
------------------------------------------------------------------------

 ANCopt (total)                0 d,  0 h,  0 min,  7.409 sec
 optimizer setup                ...        0 min,  0.000 sec (  0.003%)
 model hessian                  ...        0 min,  0.006 sec (  0.080%)
 ANC generation                 ...        0 min,  0.001 sec (  0.009%)
 coordinate transformation      ...        0 min,  0.000 sec (  0.003%)
 single point calculation       ...        0 min,  7.252 sec ( 97.880%)
 optimization log               ...        0 min,  0.007 sec (  0.089%)
 hessian update                 ...        0 min,  0.141 sec (  1.899%)
 rational function              ...        0 min,  0.002 sec (  0.022%)

================
 final structure:
================
15
 xtb: 6.5.0 (97a52f5)
C            1.65084538098916       -0.17027441851324        1.29802904700866
N            0.99225453179865       -0.11266161071287        0.00670626411271
C           -0.23453847513361       -0.87950696846267       -0.02962966630895
C           -1.47700518382054       -0.32102637663458        0.62374058125683
C            0.83472816528231        1.25893169442055       -0.44300032747404
H           -0.50304305940847       -1.04226142398175       -1.08350017366199
H           -0.04660009762603       -1.86848405077072        0.40105891984581
O           -1.59232569455179        0.71576986506019        1.21325489611497
H            0.21128515035950        1.86925039415260        0.21790981347326
H            0.40208829220553        1.25463195542804       -1.44354443242031
H            1.80114820034040       -1.21260633513977        1.57831504216542
H            1.08571900395545        0.33308836266064        2.09391418202639
H            2.62686763717786        0.30510508848389        1.21078285209720
H           -2.35090498473364       -0.99381034059795        0.47979313489262
H            1.82460213316519        1.71061717460765       -0.50448813312862

 Bond Distances (Angstroems)
 ---------------------------
C1-N2=1.4507         C1-H11=1.0898        C1-H12=1.0983        C1-H13=1.0891        N2-C1=1.4507         N2-C3=1.4472         
N2-C5=1.4520         C3-N2=1.4472         C3-C4=1.5108         C3-H6=1.0996         C3-H7=1.0949         C4-C3=1.5108         
C4-O8=1.1982         C4-H14=1.1122        C5-N2=1.4520         C5-H9=1.0945         C5-H10=1.0901        C5-H15=1.0898        
H6-C3=1.0996         H7-C3=1.0949         O8-C4=1.1982         H9-C5=1.0945         H10-C5=1.0901        H11-C1=1.0898        
H12-C1=1.0983        H13-C1=1.0891        H14-C4=1.1122        H15-C5=1.0898        
 C  H  Rav=1.0954 sigma=0.0070  Rmin=1.0891  Rmax=1.1122     9
 C  C  Rav=1.5108 sigma=0.0000  Rmin=1.5108  Rmax=1.5108     1
 N  C  Rav=1.4500 sigma=0.0020  Rmin=1.4472  Rmax=1.4520     3
 O  C  Rav=1.1982 sigma=0.0000  Rmin=1.1982  Rmax=1.1982     1

 selected bond angles (degree)
 --------------------
H11-C1-N2=109.24               H12-C1-N2=113.16               H12-C1-H11=108.84              H13-C1-N2=108.55               
H13-C1-H11=108.33              H13-C1-H12=108.61              C3-N2-C1=112.71                C5-N2-C1=111.25                
C5-N2-C3=113.63                C4-C3-N2=119.37                H6-C3-N2=108.03                H6-C3-C4=105.57                
H7-C3-N2=108.86                H7-C3-C4=107.75                H7-C3-H6=106.57                O8-C4-C3=127.72                
H14-C4-C3=111.51               H14-C4-O8=120.76               H9-C5-N2=113.67                H10-C5-N2=108.88               
H10-C5-H9=109.29               H15-C5-N2=108.09               H15-C5-H9=108.68               H15-C5-H10=108.08              

 selected dihedral angles (degree)
 ---------------------------------
C3-N2-C1-H11= 54.10           C3-N2-C1-H12=292.68           C3-N2-C1-H13=172.04           C5-N2-C1-H11=183.07           
C5-N2-C1-H12= 61.65           C5-N2-C1-H13=301.01           C4-C3-N2-C1= 76.60            C4-C3-N2-C5=308.87            
H6-C3-N2-C1=197.06            H6-C3-N2-C5= 69.33            H7-C3-N2-C1=312.41            H7-C3-N2-C5=184.68            
O8-C4-C3-N2=358.98            O8-C4-C3-H6=237.28            O8-C4-C3-H7=123.70            H14-C4-C3-N2=177.49           
H14-C4-C3-H6= 55.80           H14-C4-C3-H7=302.22           H9-C5-N2-C1=298.12            H9-C5-N2-C3= 66.61            
H10-C5-N2-C1=176.03           H10-C5-N2-C3=304.52           H15-C5-N2-C1= 58.86           H15-C5-N2-C3=187.35           
           -------------------------------------------------
          |                Final Singlepoint                |
           -------------------------------------------------

          ...................................................
          :                      SETUP                      :
          :.................................................:
          :  # basis functions                  33          :
          :  # atomic orbitals                  33          :
          :  # shells                           21          :
          :  # electrons                        36          :
          :  max. iterations                   250          :
          :  Hamiltonian                  GFN2-xTB          :
          :  restarted?                      false          :
          :  GBSA solvation                  false          :
          :  PC potential                    false          :
          :  electronic temp.          300.0000000     K    :
          :  accuracy                    1.0000000          :
          :  -> integral cutoff          0.2500000E+02      :
          :  -> integral neglect         0.1000000E-07      :
          :  -> SCF convergence          0.1000000E-05 Eh   :
          :  -> wf. convergence          0.1000000E-03 e    :
          :  Broyden damping             0.4000000          :
          ...................................................

 iter      E             dE          RMSdq      gap      omega  full diag
   1    -20.3420541 -0.203421E+02  0.115E-04    2.22       0.0  T
   2    -20.3420541 -0.107647E-10  0.698E-05    2.22     369.7  T
   3    -20.3420541  0.106937E-11  0.320E-05    2.22     806.5  T

   *** convergence criteria satisfied after 3 iterations ***

         #    Occupation            Energy/Eh            Energy/eV
      -------------------------------------------------------------
         1        2.0000           -0.7248247             -19.7235
       ...           ...                  ...                  ...
        12        2.0000           -0.4932881             -13.4231
        13        2.0000           -0.4743266             -12.9071
        14        2.0000           -0.4646509             -12.6438
        15        2.0000           -0.4594452             -12.5021
        16        2.0000           -0.4549402             -12.3796
        17        2.0000           -0.4226783             -11.5017
        18        2.0000           -0.3478768              -9.4662 (HOMO)
        19                         -0.2662747              -7.2457 (LUMO)
        20                          0.0272104               0.7404
        21                          0.0623524               1.6967
        22                          0.0906299               2.4662
        23                          0.1216385               3.3100
       ...                                ...                  ...
        33                          0.6208243              16.8935
      -------------------------------------------------------------
                  HL-Gap            0.0816021 Eh            2.2205 eV
             Fermi-level           -0.3070758 Eh           -8.3560 eV

 SCC (total)                   0 d,  0 h,  0 min,  0.714 sec
 SCC setup                      ...        0 min,  0.018 sec (  2.463%)
 Dispersion                     ...        0 min,  0.049 sec (  6.874%)
 classical contributions        ...        0 min,  0.023 sec (  3.192%)
 integral evaluation            ...        0 min,  0.074 sec ( 10.295%)
 iterations                     ...        0 min,  0.306 sec ( 42.860%)
 molecular gradient             ...        0 min,  0.245 sec ( 34.254%)
 printout                       ...        0 min,  0.000 sec (  0.020%)

         :::::::::::::::::::::::::::::::::::::::::::::::::::::
         ::                     SUMMARY                     ::
         :::::::::::::::::::::::::::::::::::::::::::::::::::::
         :: total energy             -20.106844093182 Eh    ::
         :: gradient norm              0.000682786975 Eh/a0 ::
         :: HOMO-LUMO gap              2.220505125886 eV    ::
         ::.................................................::
         :: SCC energy               -20.342054094397 Eh    ::
         :: -> isotropic ES            0.026749354142 Eh    ::
         :: -> anisotropic ES          0.003947204590 Eh    ::
         :: -> anisotropic XC          0.012376420068 Eh    ::
         :: -> dispersion             -0.008843218790 Eh    ::
         :: repulsion energy           0.235184480106 Eh    ::
         :: add. restraining           0.000007039889 Eh    ::
         :: total charge              -0.000000000000 e     ::
         :::::::::::::::::::::::::::::::::::::::::::::::::::::

           -------------------------------------------------
          |                Property Printout                |
           -------------------------------------------------

    * Orbital Energies and Occupations

         #    Occupation            Energy/Eh            Energy/eV
      -------------------------------------------------------------
         1        2.0000           -0.7248247             -19.7235
       ...           ...                  ...                  ...
         6        2.0000           -0.5717098             -15.5570
         7        2.0000           -0.5649551             -15.3732
         8        2.0000           -0.5527177             -15.0402
         9        2.0000           -0.5346672             -14.5490
        10        2.0000           -0.5209389             -14.1755
        11        2.0000           -0.5151205             -14.0171
        12        2.0000           -0.4932881             -13.4231
        13        2.0000           -0.4743266             -12.9071
        14        2.0000           -0.4646509             -12.6438
        15        2.0000           -0.4594452             -12.5021
        16        2.0000           -0.4549402             -12.3796
        17        2.0000           -0.4226783             -11.5017
        18        2.0000           -0.3478768              -9.4662 (HOMO)
        19                         -0.2662747              -7.2457 (LUMO)
        20                          0.0272104               0.7404
        21                          0.0623524               1.6967
        22                          0.0906299               2.4662
        23                          0.1216385               3.3100
        24                          0.1310077               3.5649
        25                          0.1649436               4.4883
        26                          0.1829613               4.9786
        27                          0.1996616               5.4331
        28                          0.2123854               5.7793
        29                          0.2243585               6.1051
       ...                                ...                  ...
        33                          0.6208243              16.8935
      -------------------------------------------------------------
                  HL-Gap            0.0816021 Eh            2.2205 eV
             Fermi-level           -0.3070758 Eh           -8.3560 eV

     #   Z          covCN         q      C6AA      α(0)
     1   6 C        3.712    -0.035    21.338     6.601
     2   7 N        2.723    -0.163    24.521     7.355
     3   6 C        3.757    -0.019    20.966     6.528
     4   6 C        2.753     0.209    23.570     7.950
     5   6 C        3.710    -0.038    21.397     6.611
     6   1 H        0.923     0.067     2.120     2.277
     7   1 H        0.924     0.067     2.119     2.277
     8   8 O        0.856    -0.320    20.148     6.018
     9   1 H        0.924     0.041     2.440     2.443
    10   1 H        0.925     0.034     2.527     2.486
    11   1 H        0.925     0.034     2.525     2.485
    12   1 H        0.923     0.027     2.623     2.533
    13   1 H        0.925     0.044     2.399     2.422
    14   1 H        0.921     0.011     2.876     2.652
    15   1 H        0.925     0.041     2.435     2.440

 Mol. C6AA /au·bohr⁶  :       1772.395721
 Mol. C8AA /au·bohr⁸  :      37021.233566
 Mol. α(0) /au        :         63.077074


Wiberg/Mayer (AO) data.
largest (>0.10) Wiberg bond orders for each atom

 ---------------------------------------------------------------------------
     #   Z sym  total        # sym  WBO       # sym  WBO       # sym  WBO
 ---------------------------------------------------------------------------
     1   6 C    3.985 --     2 N    1.012    11 H    0.983    13 H    0.982
                            12 H    0.976
     2   7 N    3.131 --     3 C    1.019     1 C    1.012     5 C    1.009
     3   6 C    3.993 --     2 N    1.019     4 C    0.995     7 H    0.941
                             6 H    0.935
     4   6 C    3.914 --     8 O    1.923     3 C    0.995    14 H    0.928
     5   6 C    3.983 --     2 N    1.009    10 H    0.984    15 H    0.983
                             9 H    0.974
     6   1 H    0.996 --     3 C    0.935
     7   1 H    0.996 --     3 C    0.941
     8   8 O    2.102 --     4 C    1.923
     9   1 H    0.998 --     5 C    0.974
    10   1 H    0.999 --     5 C    0.984
    11   1 H    0.999 --     1 C    0.983
    12   1 H    0.999 --     1 C    0.976
    13   1 H    0.998 --     1 C    0.982
    14   1 H    1.000 --     4 C    0.928
    15   1 H    0.998 --     5 C    0.983
 ---------------------------------------------------------------------------

Topologies differ in total number of bonds
Writing topology from bond orders to xtbtopo.mol

molecular dipole:
                 x           y           z       tot (Debye)
 q only:        0.370      -0.640      -0.424
   full:        0.146      -0.724      -0.341       2.066
molecular quadrupole (traceless):
                xx          xy          yy          xz          yz          zz
 q only:       -0.723       3.458       1.650       3.375      -2.047      -0.927
  q+dip:       -0.726       4.859       1.687       4.070      -2.480      -0.961
   full:       -1.182       4.882       1.649       4.658      -3.283      -0.467

           -------------------------------------------------
          |                Geometry Summary                 |
           -------------------------------------------------

      molecular mass/u    :       87.1205185
   center of mass at/Å    :        0.0322529       0.1020255       0.4578048
  moments of inertia/u·Å² :        0.9512909E+02   0.1865745E+03   0.1997571E+03
rotational constants/cm⁻¹ :        0.1772080E+00   0.9035336E-01   0.8439066E-01

 * 12 selected distances

     #   Z          #   Z                                           value/Å
     1   6 C        2   7 N                                       1.4507157
     2   7 N        3   6 C                                       1.4472020
     2   7 N        5   6 C                                       1.4520052 (max)
     3   6 C        6   1 H                                       1.0996486
     3   6 C        7   1 H                                       1.0949381
     4   6 C        8   8 O                                       1.1982373
     5   6 C        9   1 H                                       1.0945193
     5   6 C       10   1 H                                       1.0900846
     1   6 C       11   1 H                                       1.0897739
     1   6 C       12   1 H                                       1.0982601
     1   6 C       13   1 H                                       1.0891360 (min)
     5   6 C       15   1 H                                       1.0897941

 * 3 distinct bonds (by element types)

   Z      Z             #   av. dist./Å        max./Å        min./Å
   1 H    6 C           8     1.0932693     1.0996486     1.0891360
   6 C    7 N           3     1.4499743     1.4520052     1.4472020
   6 C    8 O           1     1.1982373     1.1982373     1.1982373


optimized geometry written to: xtbopt.xyz


           -------------------------------------------------
          | TOTAL ENERGY              -20.106844093182 Eh   |
          | GRADIENT NORM               0.000682786975 Eh/α |
          | HOMO-LUMO GAP               2.220505125886 eV   |
           -------------------------------------------------
########################################################################
[WARNING] Runtime exception occurred
-1- restart_readRestart: Number of electron missmatch in restart file.
########################################################################

------------------------------------------------------------------------
 * finished run on 2023/11/18 at 08:12:51.791     
------------------------------------------------------------------------
 total:
 * wall-time:     0 d,  0 h,  0 min,  9.711 sec
 *  cpu-time:     0 d,  0 h,  5 min,  7.869 sec
 * ratio c/w:    31.704 speedup
 SCF:
 * wall-time:     0 d,  0 h,  0 min,  1.381 sec
 *  cpu-time:     0 d,  0 h,  0 min, 42.300 sec
 * ratio c/w:    30.640 speedup
 ANC optimizer:
 * wall-time:     0 d,  0 h,  0 min,  8.154 sec
 *  cpu-time:     0 d,  0 h,  4 min, 20.142 sec
 * ratio c/w:    31.902 speedup

