15
 energy: -20.099406794794 gnorm: 0.000647336206 xtb: 6.5.0 (97a52f5)
C            1.91248824591137       -0.31677464469491        1.06050602938625
N            0.90754679259864       -0.02494377326561        0.06160545569763
C           -0.28593725100720       -0.83578163437578        0.24894961767791
C           -1.67102757772968       -0.27886420418888        0.07022091822130
C            0.72155242352943        1.40061847812940       -0.10984153406095
H           -0.22786137176574       -1.69568276364324       -0.43645310786125
H           -0.30713858930820       -1.26202796081398        1.26618030121532
O           -2.03701120666910        0.82495296638752       -0.21393350649150
H            0.36072112554118        1.90212628503033        0.80000623842320
H            0.01523269195892        1.58571559690976       -0.91246814840717
H            2.06496550409328       -1.39412445504817        1.11830325006736
H            1.64901415661595        0.05961329862637        2.06175810503358
H            2.85233065460760        0.13998918158944        0.75321080544823
H           -2.41380829753912       -1.09089705841722        0.23457158163877
H            1.68405469916278        1.83284770777485       -0.38327600598870
