      -----------------------------------------------------------      
     |                   =====================                   |     
     |                           x T B                           |     
     |                   =====================                   |     
     |                         S. Grimme                         |     
     |          Mulliken Center for Theoretical Chemistry        |     
     |                    University of Bonn                     |     
      -----------------------------------------------------------      

   * xtb version 6.5.0 (97a52f5) compiled by 'conda@d2599ee0d4f4' on 2022-05-15

   xtb is free software: you can redistribute it and/or modify it under
   the terms of the GNU Lesser General Public License as published by
   the Free Software Foundation, either version 3 of the License, or
   (at your option) any later version.
   
   xtb is distributed in the hope that it will be useful,
   but WITHOUT ANY WARRANTY; without even the implied warranty of
   MERCHANTABILITY or FITNESS FOR A PARTICULAR PURPOSE.  See the
   GNU Lesser General Public License for more details.
   
   Cite this work as:
   * C. Bannwarth, E. Caldeweyher, S. Ehlert, A. Hansen, P. Pracht,
     J. Seibert, S. Spicher, S. Grimme, WIREs Comput. Mol. Sci., 2020, 11,
     e01493. DOI: 10.1002/wcms.1493
   
   for GFN2-xTB:
   * C. Bannwarth, S. Ehlert and S. Grimme., J. Chem. Theory Comput., 2019,
     15, 1652-1671. DOI: 10.1021/acs.jctc.8b01176
   for GFN1-xTB:
   * S. Grimme, C. Bannwarth, P. Shushkov, J. Chem. Theory Comput., 2017,
     13, 1989-2009. DOI: 10.1021/acs.jctc.7b00118
   for GFN0-xTB:
   * P. Pracht, E. Caldeweyher, S. Ehlert, S. Grimme, ChemRxiv, 2019, preprint.
     DOI: 10.26434/chemrxiv.8326202.v1
   for GFN-FF:
   * S. Spicher and S. Grimme, Angew. Chem. Int. Ed., 2020, 59, 15665-15673.
     DOI: 10.1002/anie.202004239
   
   for ALPB and GBSA implicit solvation:
   * S. Ehlert, M. Stahn, S. Spicher, S. Grimme, J. Chem. Theory Comput.,
     2021, 17, 4250-4261. DOI: 10.1021/acs.jctc.1c00471
   
   for DFT-D4:
   * E. Caldeweyher, C. Bannwarth and S. Grimme, J. Chem. Phys., 2017,
     147, 034112. DOI: 10.1063/1.4993215
   * E. Caldeweyher, S. Ehlert, A. Hansen, H. Neugebauer, S. Spicher,
     C. Bannwarth and S. Grimme, J. Chem. Phys., 2019, 150, 154122.
     DOI: 10.1063/1.5090222
   * E. Caldeweyher, J.-M. Mewes, S. Ehlert and S. Grimme, Phys. Chem. Chem. Phys.
     2020, 22, 8499-8512. DOI: 10.1039/D0CP00502A
   
   for sTDA-xTB:
   * S. Grimme and C. Bannwarth, J. Chem. Phys., 2016, 145, 054103.
     DOI: 10.1063/1.4959605
   
   in the mass-spec context:
   * V. Asgeirsson, C. Bauer and S. Grimme, Chem. Sci., 2017, 8, 4879.
     DOI: 10.1039/c7sc00601b
   * J. Koopman and S. Grimme, ACS Omega 2019, 4, 12, 15120-15133.
     DOI: 10.1021/acsomega.9b02011
   
   for metadynamics refer to:
   * S. Grimme, J. Chem. Theory Comput., 2019, 155, 2847-2862
     DOI: 10.1021/acs.jctc.9b00143
   
   for SPH calculations refer to:
   * S. Spicher and S. Grimme, J. Chem. Theory Comput., 2021, 17, 1701-1714
     DOI: 10.1021/acs.jctc.0c01306
   
   with help from (in alphabetical order)
   P. Atkinson, C. Bannwarth, F. Bohle, G. Brandenburg, E. Caldeweyher
   M. Checinski, S. Dohm, S. Ehlert, S. Ehrlich, I. Gerasimov, C. Hölzer
   A. Katbashev, J. Koopman, C. Lavigne, S. Lehtola, F. März, M. Müller,
   F. Musil, H. Neugebauer, J. Pisarek, C. Plett, P. Pracht, F. Pultar,
   J. Seibert, P. Shushkov, S. Spicher, M. Stahn, M. Steiner, T. Strunk,
   J. Stückrath, T. Rose, and J. Unsleber
   
 * started run on 2023/11/18 at 08:10:21.165     

           -------------------------------------------------
          |                Calculation Setup                |
           -------------------------------------------------

          program call               : /home/liuchw/anaconda3/envs/xtbenv/bin/xtb --gfn 2 --chrg 0 --uhf 0 4_27_Index_0-opt-2-3-069_preQMOPTprefit_xyzformat.xyz --opt --input xtb-opt-2-3-069_constr.txt
          hostname                   : node165.bme.utexas.edu
          coordinate file            : 4_27_Index_0-opt-2-3-069_preQMOPTprefit_xyzformat.xyz
          omp threads                :                    64

   ID    Z sym.   atoms
    1    6 C      1, 3-5
    2    7 N      2
    3    1 H      6, 7, 9-15
    4    8 O      8
constraining angle 5 2 3 4 to   69.0430447°, actual value:   69.0430447°
constraining angle 2 3 4 8 to  358.9722914°, actual value:   -1.0277086°
constraining angle 10 5 2 1 to  175.9928091°, actual value:  175.9928091°
constraining angle 13 1 2 5 to  301.0058180°, actual value:  -58.9941820°

           -------------------------------------------------
          |                 G F N 2 - x T B                 |
           -------------------------------------------------

        Reference                      10.1021/acs.jctc.8b01176
      * Hamiltonian:
        H0-scaling (s, p, d)           1.850000    2.230000    2.230000
        zeta-weighting                 0.500000
      * Dispersion:
        s8                             2.700000
        a1                             0.520000
        a2                             5.000000
        s9                             5.000000
      * Repulsion:
        kExp                           1.500000    1.000000
        rExp                           1.000000
      * Coulomb:
        alpha                          2.000000
        third order                    shell-resolved
        anisotropic                    true
        a3                             3.000000
        a5                             4.000000
        cn-shift                       1.200000
        cn-exp                         4.000000
        max-rad                        5.000000


          ...................................................
          :                      SETUP                      :
          :.................................................:
          :  # basis functions                  33          :
          :  # atomic orbitals                  33          :
          :  # shells                           21          :
          :  # electrons                        36          :
          :  max. iterations                   250          :
          :  Hamiltonian                  GFN2-xTB          :
          :  restarted?                      false          :
          :  GBSA solvation                  false          :
          :  PC potential                    false          :
          :  electronic temp.          300.0000000     K    :
          :  accuracy                    1.0000000          :
          :  -> integral cutoff          0.2500000E+02      :
          :  -> integral neglect         0.1000000E-07      :
          :  -> SCF convergence          0.1000000E-05 Eh   :
          :  -> wf. convergence          0.1000000E-03 e    :
          :  Broyden damping             0.4000000          :
          ...................................................

 iter      E             dE          RMSdq      gap      omega  full diag
   1    -20.2568222 -0.202568E+02  0.395E+00    3.43       0.0  T
   2    -20.2978247 -0.410025E-01  0.203E+00    2.64       1.0  T
   3    -20.3020538 -0.422915E-02  0.142E+00    2.80       1.0  T
   4    -20.3072300 -0.517621E-02  0.171E-01    2.27       1.0  T
   5    -20.3073980 -0.167993E-03  0.739E-02    2.33       1.0  T
   6    -20.3074113 -0.132516E-04  0.275E-02    2.35       1.0  T
   7    -20.3074117 -0.401768E-06  0.624E-03    2.35       4.1  T
   8    -20.3074118 -0.113955E-06  0.210E-03    2.35      12.3  T
   9    -20.3074118 -0.655750E-08  0.102E-03    2.35      25.3  T
  10    -20.3074118 -0.146303E-08  0.202E-04    2.35     127.9  T
  11    -20.3074118 -0.373248E-10  0.913E-05    2.35     282.8  T

   *** convergence criteria satisfied after 11 iterations ***

         #    Occupation            Energy/Eh            Energy/eV
      -------------------------------------------------------------
         1        2.0000           -0.7147801             -19.4502
       ...           ...                  ...                  ...
        12        2.0000           -0.4925148             -13.4020
        13        2.0000           -0.4826692             -13.1341
        14        2.0000           -0.4728132             -12.8659
        15        2.0000           -0.4622314             -12.5780
        16        2.0000           -0.4562918             -12.4163
        17        2.0000           -0.4089332             -11.1276
        18        2.0000           -0.3599259              -9.7941 (HOMO)
        19                         -0.2737330              -7.4487 (LUMO)
        20                         -0.0179682              -0.4889
        21                          0.0364610               0.9922
        22                          0.0707281               1.9246
        23                          0.0949727               2.5843
       ...                                ...                  ...
        33                          0.5357496              14.5785
      -------------------------------------------------------------
                  HL-Gap            0.0861929 Eh            2.3454 eV
             Fermi-level           -0.3168294 Eh           -8.6214 eV

 SCC (total)                   0 d,  0 h,  0 min,  1.595 sec
 SCC setup                      ...        0 min,  0.020 sec (  1.259%)
 Dispersion                     ...        0 min,  0.045 sec (  2.839%)
 classical contributions        ...        0 min,  0.030 sec (  1.902%)
 integral evaluation            ...        0 min,  0.079 sec (  4.929%)
 iterations                     ...        0 min,  1.229 sec ( 77.065%)
 molecular gradient             ...        0 min,  0.191 sec ( 11.972%)
 printout                       ...        0 min,  0.000 sec (  0.013%)

         :::::::::::::::::::::::::::::::::::::::::::::::::::::
         ::                     SUMMARY                     ::
         :::::::::::::::::::::::::::::::::::::::::::::::::::::
         :: total energy             -20.099618756627 Eh    ::
         :: gradient norm              0.067819898353 Eh/a0 ::
         :: HOMO-LUMO gap              2.345427995614 eV    ::
         ::.................................................::
         :: SCC energy               -20.307411797796 Eh    ::
         :: -> isotropic ES            0.026406771964 Eh    ::
         :: -> anisotropic ES          0.006242051509 Eh    ::
         :: -> anisotropic XC          0.013270680619 Eh    ::
         :: -> dispersion             -0.008431413298 Eh    ::
         :: repulsion energy           0.207774569260 Eh    ::
         :: add. restraining           0.000000000000 Eh    ::
         :: total charge              -0.000000000000 e     ::
         :::::::::::::::::::::::::::::::::::::::::::::::::::::

      ----------------------------------------------------------- 
     |                   =====================                   |
     |                        A N C O P T                        |
     |                   =====================                   |
     |               Approximate Normal Coordinate               |
     |                Rational Function Optimizer                |
      ----------------------------------------------------------- 

          ...................................................
          :                      SETUP                      :
          :.................................................:
          :   optimization level            normal          :
          :   max. optcycles                   200          :
          :   ANC micro-cycles                  20          :
          :   degrees of freedom                39          :
          :.................................................:
          :   RF solver                   davidson          :
          :   write xtbopt.log                true          :
          :   linear?                        false          :
          :   energy convergence         0.5000000E-05 Eh   :
          :   grad. convergence          0.1000000E-02 Eh/α :
          :   maximium RF displ.         1.0000000          :
          :   Hlow (freq-cutoff)         0.1000000E-01      :
          :   Hmax (freq-cutoff)         5.0000000          :
          :   S6 in model hess.         20.0000000          :
          ...................................................

generating ANC from model Hessian ...
Using Lindh-Hessian (1995)
 Shifting diagonal of input Hessian by    2.9870888035379633E-003
 Lowest  eigenvalues of input Hessian
    0.000000    0.000000    0.000000    0.000000    0.000000    0.000000
    0.010000    0.010232    0.014737    0.020032    0.022838    0.031862
    0.036603    0.043053    0.059490    0.062184    0.064675    0.066063
 Highest eigenvalues
    1.399207    2.060812    2.491449    4.189033    7.229572   14.900340


........................................................................
.............................. CYCLE    1 ..............................
........................................................................
   1    -20.3074118 -0.203074E+02  0.159E-05    2.35       0.0  T
   2    -20.3074118 -0.849099E-12  0.803E-06    2.35    3214.9  T
   3    -20.3074118 -0.387246E-12  0.482E-06    2.35    5354.9  T
     SCC iter.                  ...        0 min,  0.331 sec
     gradient                   ...        0 min,  0.233 sec
 * total energy  :   -20.0996188 Eh     change       -0.8235190E-10 Eh
   gradient norm :     0.0678205 Eh/α   predicted     0.0000000E+00 (-100.00%)
   displ. norm   :     0.2761768 α      lambda       -0.8956084E-02
   maximum displ.:     0.1259586 α      in ANC's #9, #13, #5, ...

........................................................................
.............................. CYCLE    2 ..............................
........................................................................
   1    -20.3346724 -0.203347E+02  0.263E-01    2.58       0.0  T
   2    -20.3347729 -0.100513E-03  0.158E-01    2.57       1.0  T
   3    -20.3347720  0.882576E-06  0.551E-02    2.58       1.0  T
   4    -20.3347794 -0.734919E-05  0.129E-02    2.56       2.0  T
   5    -20.3347807 -0.135189E-05  0.494E-03    2.57       5.2  T
   6    -20.3347808 -0.787678E-07  0.189E-03    2.57      13.7  T
   7    -20.3347808 -0.301051E-08  0.693E-04    2.57      37.2  T
   8    -20.3347808 -0.687695E-09  0.180E-04    2.57     143.2  T
     SCC iter.                  ...        0 min,  0.869 sec
     gradient                   ...        0 min,  0.220 sec
 * total energy  :   -20.1051616 Eh     change       -0.5542847E-02 Eh
   gradient norm :     0.0209467 Eh/α   predicted    -0.4819602E-02 ( -13.05%)
   displ. norm   :     0.1367194 α      lambda       -0.1086822E-02
   maximum displ.:     0.0700229 α      in ANC's #5, #1, #3, ...

........................................................................
.............................. CYCLE    3 ..............................
........................................................................
   1    -20.3424166 -0.203424E+02  0.129E-01    2.58       0.0  T
   2    -20.3424294 -0.127699E-04  0.778E-02    2.58       1.0  T
   3    -20.3424295 -0.120572E-06  0.166E-02    2.58       1.6  T
   4    -20.3424302 -0.708929E-06  0.430E-03    2.58       6.0  T
   5    -20.3424303 -0.105639E-06  0.199E-03    2.58      13.0  T
   6    -20.3424304 -0.108894E-07  0.848E-04    2.58      30.4  T
   7    -20.3424304 -0.131919E-08  0.289E-04    2.58      89.2  T
     SCC iter.                  ...        0 min,  0.808 sec
     gradient                   ...        0 min,  0.243 sec
 * total energy  :   -20.1056907 Eh     change       -0.5290658E-03 Eh
   gradient norm :     0.0220903 Eh/α   predicted    -0.5535710E-03 (   4.63%)
   displ. norm   :     0.1000654 α      lambda       -0.2487078E-03
   maximum displ.:     0.0895610 α      in ANC's #2, #3, #4, ...

........................................................................
.............................. CYCLE    4 ..............................
........................................................................
   1    -20.3424612 -0.203425E+02  0.117E-01    2.55       0.0  T
   2    -20.3424624 -0.114111E-05  0.694E-02    2.55       1.0  T
   3    -20.3424626 -0.177849E-06  0.468E-03    2.55       5.5  T
   4    -20.3424626 -0.754707E-07  0.243E-03    2.55      10.6  T
   5    -20.3424627 -0.249049E-07  0.950E-04    2.55      27.2  T
   6    -20.3424627 -0.118082E-08  0.331E-04    2.55      77.9  T
     SCC iter.                  ...        0 min,  0.616 sec
     gradient                   ...        0 min,  0.160 sec
 * total energy  :   -20.1057043 Eh     change       -0.1364901E-04 Eh
   gradient norm :     0.0399017 Eh/α   predicted    -0.1255983E-03 ( 820.20%)
   displ. norm   :     0.0262535 α      lambda       -0.1653538E-03
   maximum displ.:     0.0183905 α      in ANC's #4, #3, #9, ...

........................................................................
.............................. CYCLE    5 ..............................
........................................................................
   1    -20.3410822 -0.203411E+02  0.233E-02    2.54       0.0  T
   2    -20.3410826 -0.374107E-06  0.141E-02    2.54       1.8  T
   3    -20.3410826  0.987529E-08  0.313E-03    2.54       8.3  T
   4    -20.3410826 -0.296851E-07  0.811E-04    2.54      31.8  T
   5    -20.3410826 -0.500556E-08  0.342E-04    2.54      75.4  T
     SCC iter.                  ...        0 min,  0.588 sec
     gradient                   ...        0 min,  0.341 sec
 * total energy  :   -20.1057826 Eh     change       -0.7829608E-04 Eh
   gradient norm :     0.0064385 Eh/α   predicted    -0.8273380E-04 (   5.67%)
   displ. norm   :     0.0333271 α      lambda       -0.2435625E-04
   maximum displ.:     0.0249791 α      in ANC's #4, #1, #2, ...

........................................................................
.............................. CYCLE    6 ..............................
........................................................................
   1    -20.3409834 -0.203410E+02  0.499E-02    2.54       0.0  T
   2    -20.3409835 -0.136299E-06  0.297E-02    2.54       1.0  T
   3    -20.3409836 -0.269547E-07  0.159E-03    2.54      16.2  T
   4    -20.3409836 -0.104589E-07  0.879E-04    2.54      29.4  T
   5    -20.3409836 -0.154994E-08  0.487E-04    2.54      53.0  T
     SCC iter.                  ...        0 min,  0.828 sec
     gradient                   ...        0 min,  0.328 sec
 * total energy  :   -20.1057854 Eh     change       -0.2770816E-05 Eh
   gradient norm :     0.0031756 Eh/α   predicted    -0.1219163E-04 ( 340.00%)
   displ. norm   :     0.0190396 α      lambda       -0.1061166E-04
   maximum displ.:     0.0166814 α      in ANC's #2, #4, #1, ...

........................................................................
.............................. CYCLE    7 ..............................
........................................................................
   1    -20.3411071 -0.203411E+02  0.269E-02    2.54       0.0  T
   2    -20.3411071 -0.282681E-07  0.159E-02    2.54       1.6  T
   3    -20.3411071 -0.980934E-08  0.716E-04    2.54      36.0  T
   4    -20.3411072 -0.655032E-09  0.381E-04    2.54      67.8  T
     SCC iter.                  ...        0 min,  0.587 sec
     gradient                   ...        0 min,  0.301 sec
 * total energy  :   -20.1057912 Eh     change       -0.5815269E-05 Eh
   gradient norm :     0.0003694 Eh/α   predicted    -0.5307495E-05 (  -8.73%)
   displ. norm   :     0.0121242 α      lambda       -0.6578861E-06
   maximum displ.:     0.0107463 α      in ANC's #2, #1, #4, ...

........................................................................
.............................. CYCLE    8 ..............................
........................................................................
   1    -20.3411767 -0.203412E+02  0.643E-03    2.53       0.0  T
   2    -20.3411767 -0.598740E-08  0.376E-03    2.53       6.9  T
   3    -20.3411767  0.475328E-09  0.470E-04    2.53      55.0  T
   4    -20.3411767 -0.180598E-08  0.173E-04    2.53     149.7  T
     SCC iter.                  ...        0 min,  0.703 sec
     gradient                   ...        0 min,  0.328 sec
 * total energy  :   -20.1057918 Eh     change       -0.5854728E-06 Eh
   gradient norm :     0.0002563 Eh/α   predicted    -0.3290027E-06 ( -43.81%)
   displ. norm   :     0.0051837 α      lambda       -0.1446709E-06
   maximum displ.:     0.0032928 α      in ANC's #2, #1, #4, ...

   *** GEOMETRY OPTIMIZATION CONVERGED AFTER 8 ITERATIONS ***

------------------------------------------------------------------------
 total energy gain   :        -0.0061730 Eh       -3.8736 kcal/mol
 total RMSD          :         0.1098541 a0        0.0581 Å
 total power (kW/mol):        -2.0259109 (step)   -1.7543 (real)
------------------------------------------------------------------------

 ANCopt (total)                0 d,  0 h,  0 min,  9.239 sec
 optimizer setup                ...        0 min,  0.000 sec (  0.003%)
 model hessian                  ...        0 min,  0.004 sec (  0.039%)
 ANC generation                 ...        0 min,  0.000 sec (  0.004%)
 coordinate transformation      ...        0 min,  0.000 sec (  0.004%)
 single point calculation       ...        0 min,  9.037 sec ( 97.813%)
 optimization log               ...        0 min,  0.001 sec (  0.011%)
 hessian update                 ...        0 min,  0.193 sec (  2.091%)
 rational function              ...        0 min,  0.002 sec (  0.020%)

================
 final structure:
================
15
 xtb: 6.5.0 (97a52f5)
C            1.98842707144868       -0.42705470322336        0.75579622093868
N            0.79463311778503        0.04389520499904        0.08644815163862
C           -0.38178795321835       -0.66343337760018        0.53859378116921
C           -1.59494459847958       -0.48238258774366       -0.33272191182206
C            0.64820831850533        1.47853009449993        0.22196174446376
H           -0.16813403225881       -1.73827118374974        0.54809139353509
H           -0.68250445957936       -0.38928144644745        1.57162011448245
O           -1.68806891840697        0.18143553764393       -1.32293464352199
H            0.52561921526154        1.79110304040182        1.27234532991319
H           -0.21586624165944        1.80687367616922       -0.34975403687449
H            2.09804694061238       -1.49888576190229        0.59459302465490
H            1.97638045416750       -0.23258170290362        1.84063568479053
H            2.85295744327432        0.07360285706019        0.32340226913772
H           -2.46230486861441       -1.05920539267136        0.05521925432095
H            1.53445951116217        1.96242376546757       -0.18395639682659

 Bond Distances (Angstroems)
 ---------------------------
C1-N2=1.4474         C1-H11=1.0894        C1-H12=1.1022        C1-H13=1.0886        N2-C1=1.4474         N2-C3=1.4452         
N2-C5=1.4484         C3-N2=1.4452         C3-C4=1.5046         C3-H6=1.0959         C3-H7=1.1103         C4-C3=1.5046         
C4-O8=1.1958         C4-H14=1.1115        C5-N2=1.4484         C5-H9=1.1027         C5-H10=1.0869        C5-H15=1.0883        
H6-C3=1.0959         H7-C3=1.1103         O8-C4=1.1958         H9-C5=1.1027         H10-C5=1.0869        H11-C1=1.0894        
H12-C1=1.1022        H13-C1=1.0886        H14-C4=1.1115        H15-C5=1.0883        
 C  H  Rav=1.0973 sigma=0.0092  Rmin=1.0869  Rmax=1.1115     9
 C  C  Rav=1.5046 sigma=0.0000  Rmin=1.5046  Rmax=1.5046     1
 N  C  Rav=1.4470 sigma=0.0013  Rmin=1.4452  Rmax=1.4484     3
 O  C  Rav=1.1958 sigma=0.0000  Rmin=1.1958  Rmax=1.1958     1

 selected bond angles (degree)
 --------------------
H11-C1-N2=109.55               H12-C1-N2=112.88               H12-C1-H11=108.68              H13-C1-N2=108.77               
H13-C1-H11=108.29              H13-C1-H12=108.57              C3-N2-C1=111.56                C5-N2-C1=111.25                
C5-N2-C3=111.91                C4-C3-N2=114.60                H6-C3-N2=108.91                H6-C3-C4=106.27                
H7-C3-N2=113.00                H7-C3-C4=106.90                H7-C3-H6=106.67                O8-C4-C3=127.53                
H14-C4-C3=111.38               H14-C4-O8=121.09               H9-C5-N2=112.40                H10-C5-N2=109.29               
H10-C5-H9=109.09               H15-C5-N2=108.86               H15-C5-H9=108.65               H15-C5-H10=108.48              

 selected dihedral angles (degree)
 ---------------------------------
C3-N2-C1-H11= 57.08           C3-N2-C1-H12=295.83           C3-N2-C1-H13=175.27           C5-N2-C1-H11=182.82           
C5-N2-C1-H12= 61.57           C5-N2-C1-H13=301.01           C4-C3-N2-C1=194.41            C4-C3-N2-C5= 69.03            
H6-C3-N2-C1=313.26            H6-C3-N2-C5=187.89            H7-C3-N2-C1= 71.61            H7-C3-N2-C5=306.23            
O8-C4-C3-N2=358.97            O8-C4-C3-H6=238.64            O8-C4-C3-H7=125.00            H14-C4-C3-N2=179.20           
H14-C4-C3-H6= 58.87           H14-C4-C3-H7=305.23           H9-C5-N2-C1=297.26            H9-C5-N2-C3= 62.81            
H10-C5-N2-C1=175.99           H10-C5-N2-C3=301.54           H15-C5-N2-C1= 57.68           H15-C5-N2-C3=183.22           
           -------------------------------------------------
          |                Final Singlepoint                |
           -------------------------------------------------

          ...................................................
          :                      SETUP                      :
          :.................................................:
          :  # basis functions                  33          :
          :  # atomic orbitals                  33          :
          :  # shells                           21          :
          :  # electrons                        36          :
          :  max. iterations                   250          :
          :  Hamiltonian                  GFN2-xTB          :
          :  restarted?                      false          :
          :  GBSA solvation                  false          :
          :  PC potential                    false          :
          :  electronic temp.          300.0000000     K    :
          :  accuracy                    1.0000000          :
          :  -> integral cutoff          0.2500000E+02      :
          :  -> integral neglect         0.1000000E-07      :
          :  -> SCF convergence          0.1000000E-05 Eh   :
          :  -> wf. convergence          0.1000000E-03 e    :
          :  Broyden damping             0.4000000          :
          ...................................................

 iter      E             dE          RMSdq      gap      omega  full diag
   1    -20.3411767 -0.203412E+02  0.594E-05    2.53       0.0  T
   2    -20.3411767 -0.222400E-11  0.347E-05    2.53     744.7  T
   3    -20.3411767  0.184741E-12  0.116E-05    2.53    2233.2  T

   *** convergence criteria satisfied after 3 iterations ***

         #    Occupation            Energy/Eh            Energy/eV
      -------------------------------------------------------------
         1        2.0000           -0.7219600             -19.6455
       ...           ...                  ...                  ...
        12        2.0000           -0.4942386             -13.4489
        13        2.0000           -0.4837740             -13.1642
        14        2.0000           -0.4730827             -12.8732
        15        2.0000           -0.4622039             -12.5772
        16        2.0000           -0.4558861             -12.4053
        17        2.0000           -0.4069354             -11.0733
        18        2.0000           -0.3574440              -9.7265 (HOMO)
        19                         -0.2643169              -7.1924 (LUMO)
        20                          0.0219547               0.5974
        21                          0.0764283               2.0797
        22                          0.0963673               2.6223
        23                          0.1164135               3.1678
       ...                                ...                  ...
        33                          0.6300794              17.1453
      -------------------------------------------------------------
                  HL-Gap            0.0931271 Eh            2.5341 eV
             Fermi-level           -0.3108805 Eh           -8.4595 eV

 SCC (total)                   0 d,  0 h,  0 min,  1.070 sec
 SCC setup                      ...        0 min,  0.028 sec (  2.589%)
 Dispersion                     ...        0 min,  0.064 sec (  5.964%)
 classical contributions        ...        0 min,  0.024 sec (  2.207%)
 integral evaluation            ...        0 min,  0.120 sec ( 11.232%)
 iterations                     ...        0 min,  0.475 sec ( 44.409%)
 molecular gradient             ...        0 min,  0.359 sec ( 33.551%)
 printout                       ...        0 min,  0.000 sec (  0.014%)

         :::::::::::::::::::::::::::::::::::::::::::::::::::::
         ::                     SUMMARY                     ::
         :::::::::::::::::::::::::::::::::::::::::::::::::::::
         :: total energy             -20.105791786281 Eh    ::
         :: gradient norm              0.000257134181 Eh/a0 ::
         :: HOMO-LUMO gap              2.534116574911 eV    ::
         ::.................................................::
         :: SCC energy               -20.341176715468 Eh    ::
         :: -> isotropic ES            0.025172336433 Eh    ::
         :: -> anisotropic ES          0.005540811608 Eh    ::
         :: -> anisotropic XC          0.012233386272 Eh    ::
         :: -> dispersion             -0.008581762318 Eh    ::
         :: repulsion energy           0.235367618818 Eh    ::
         :: add. restraining           0.000000129893 Eh    ::
         :: total charge               0.000000000000 e     ::
         :::::::::::::::::::::::::::::::::::::::::::::::::::::

           -------------------------------------------------
          |                Property Printout                |
           -------------------------------------------------

    * Orbital Energies and Occupations

         #    Occupation            Energy/Eh            Energy/eV
      -------------------------------------------------------------
         1        2.0000           -0.7219600             -19.6455
       ...           ...                  ...                  ...
         6        2.0000           -0.5695721             -15.4988
         7        2.0000           -0.5662455             -15.4083
         8        2.0000           -0.5532849             -15.0556
         9        2.0000           -0.5350463             -14.5594
        10        2.0000           -0.5227723             -14.2254
        11        2.0000           -0.5168392             -14.0639
        12        2.0000           -0.4942386             -13.4489
        13        2.0000           -0.4837740             -13.1642
        14        2.0000           -0.4730827             -12.8732
        15        2.0000           -0.4622039             -12.5772
        16        2.0000           -0.4558861             -12.4053
        17        2.0000           -0.4069354             -11.0733
        18        2.0000           -0.3574440              -9.7265 (HOMO)
        19                         -0.2643169              -7.1924 (LUMO)
        20                          0.0219547               0.5974
        21                          0.0764283               2.0797
        22                          0.0963673               2.6223
        23                          0.1164135               3.1678
        24                          0.1348719               3.6701
        25                          0.1566829               4.2636
        26                          0.1718657               4.6767
        27                          0.1952596               5.3133
        28                          0.2048414               5.5740
        29                          0.2080393               5.6610
       ...                                ...                  ...
        33                          0.6300794              17.1453
      -------------------------------------------------------------
                  HL-Gap            0.0931271 Eh            2.5341 eV
             Fermi-level           -0.3108805 Eh           -8.4595 eV

     #   Z          covCN         q      C6AA      α(0)
     1   6 C        3.717    -0.036    21.334     6.598
     2   7 N        2.724    -0.156    24.362     7.331
     3   6 C        3.766    -0.012    20.828     6.505
     4   6 C        2.755     0.212    23.508     7.940
     5   6 C        3.716    -0.037    21.358     6.602
     6   1 H        0.924     0.067     2.120     2.277
     7   1 H        0.922     0.039     2.458     2.452
     8   8 O        0.856    -0.305    19.873     5.977
     9   1 H        0.923     0.008     2.915     2.670
    10   1 H        0.925     0.058     2.218     2.329
    11   1 H        0.925     0.038     2.478     2.462
    12   1 H        0.923     0.013     2.835     2.633
    13   1 H        0.925     0.048     2.348     2.397
    14   1 H        0.921     0.016     2.796     2.615
    15   1 H        0.925     0.045     2.389     2.417

 Mol. C6AA /au·bohr⁶  :       1778.971804
 Mol. C8AA /au·bohr⁸  :      37086.879964
 Mol. α(0) /au        :         63.203233


Wiberg/Mayer (AO) data.
largest (>0.10) Wiberg bond orders for each atom

 ---------------------------------------------------------------------------
     #   Z sym  total        # sym  WBO       # sym  WBO       # sym  WBO
 ---------------------------------------------------------------------------
     1   6 C    3.986 --     2 N    1.015    11 H    0.982    13 H    0.982
                            12 H    0.974
     2   7 N    3.133 --     3 C    1.017     1 C    1.015     5 C    1.013
     3   6 C    3.993 --     2 N    1.017     4 C    1.005     6 H    0.939
                             7 H    0.929
     4   6 C    3.921 --     8 O    1.933     3 C    1.005    14 H    0.928
     5   6 C    3.983 --     2 N    1.013    15 H    0.983    10 H    0.980
                             9 H    0.974
     6   1 H    0.996 --     3 C    0.939
     7   1 H    0.998 --     3 C    0.929
     8   8 O    2.111 --     4 C    1.933
     9   1 H    1.000 --     5 C    0.974
    10   1 H    0.997 --     5 C    0.980
    11   1 H    0.999 --     1 C    0.982
    12   1 H    1.000 --     1 C    0.974
    13   1 H    0.997 --     1 C    0.982
    14   1 H    0.999 --     4 C    0.928
    15   1 H    0.998 --     5 C    0.983
 ---------------------------------------------------------------------------

Topologies differ in total number of bonds
Writing topology from bond orders to xtbtopo.mol

molecular dipole:
                 x           y           z       tot (Debye)
 q only:        0.355      -0.364       0.798
   full:        0.300      -0.466       1.299       3.589
molecular quadrupole (traceless):
                xx          xy          yy          xz          yz          zz
 q only:        0.326       1.709       2.465      -2.937      -0.270      -2.791
  q+dip:        0.310       2.816       2.513      -3.616       0.263      -2.823
   full:        0.248       2.453       3.148      -3.573       0.666      -3.396

           -------------------------------------------------
          |                Geometry Summary                 |
           -------------------------------------------------

      molecular mass/u    :       87.1205185
   center of mass at/Å    :       -0.0281218       0.0356523      -0.0002503
  moments of inertia/u·Å² :        0.7300820E+02   0.2104995E+03   0.2524044E+03
rotational constants/cm⁻¹ :        0.2309005E+00   0.8008394E-01   0.6678818E-01

 * 12 selected distances

     #   Z          #   Z                                           value/Å
     1   6 C        2   7 N                                       1.4473994
     2   7 N        3   6 C                                       1.4452392
     2   7 N        5   6 C                                       1.4484412 (max)
     3   6 C        6   1 H                                       1.0959082
     3   6 C        7   1 H                                       1.1102852
     4   6 C        8   8 O                                       1.1957626
     5   6 C        9   1 H                                       1.1027401
     5   6 C       10   1 H                                       1.0868733 (min)
     1   6 C       11   1 H                                       1.0894150
     1   6 C       12   1 H                                       1.1021986
     1   6 C       13   1 H                                       1.0885934
     5   6 C       15   1 H                                       1.0882849

 * 3 distinct bonds (by element types)

   Z      Z             #   av. dist./Å        max./Å        min./Å
   1 H    6 C           8     1.0955373     1.1102852     1.0868733
   6 C    7 N           3     1.4470266     1.4484412     1.4452392
   6 C    8 O           1     1.1957626     1.1957626     1.1957626


optimized geometry written to: xtbopt.xyz


           -------------------------------------------------
          | TOTAL ENERGY              -20.105791786281 Eh   |
          | GRADIENT NORM               0.000257134181 Eh/α |
          | HOMO-LUMO GAP               2.534116574911 eV   |
           -------------------------------------------------

------------------------------------------------------------------------
 * finished run on 2023/11/18 at 08:10:33.418     
------------------------------------------------------------------------
 total:
 * wall-time:     0 d,  0 h,  0 min, 12.253 sec
 *  cpu-time:     0 d,  0 h,  5 min, 15.024 sec
 * ratio c/w:    25.711 speedup
 SCF:
 * wall-time:     0 d,  0 h,  0 min,  1.595 sec
 *  cpu-time:     0 d,  0 h,  0 min, 49.696 sec
 * ratio c/w:    31.155 speedup
 ANC optimizer:
 * wall-time:     0 d,  0 h,  0 min, 10.364 sec
 *  cpu-time:     0 d,  0 h,  4 min, 19.125 sec
 * ratio c/w:    25.001 speedup

