15
 energy: -20.103023988987 gnorm: 0.000543464779 xtb: 6.5.0 (97a52f5)
C            1.93302760772597       -0.48249781374016        0.58929064612478
N            0.71297602027990        0.14657183236925        0.13160206599277
C           -0.48468212093574       -0.49761552125448        0.63542644608276
C           -1.51748797565039       -0.71479231958687       -0.44298092077132
C            0.71502119675609        1.56708553906160        0.40122973170651
H           -0.24777411330450       -1.49157876853251        1.03258620180399
H           -0.96240077817003        0.06142936249820        1.45731076101076
O           -1.42678916516851       -0.39892186830142       -1.59131367567655
H            0.75433297679106        1.79517219700688        1.47977536732248
H           -0.18531983286930        2.01075756193768       -0.02100655500569
H            1.92123993441948       -1.53755453016838        0.31967762983456
H            2.08370253471631       -0.39284070658485        1.67768823990067
H            2.77687727544660       -0.01459149017221        0.08443887663891
H           -2.42670010533050       -1.22365606155557       -0.05272362574139
H            1.57909654529358        2.01980058702286       -0.08166319922324
