15
 energy: -20.099760294788 gnorm: 0.064099704972 xtb: 6.5.0 (97a52f5)
C            1.51738659000000       -0.09438121000000        1.38767657000000
N            1.02048507000000       -0.12920748000000       -0.01468376000000
C           -0.25948713000000       -0.79855906000000       -0.12329288000000
C           -1.38847354000000       -0.47611686000000        0.87723714000000
C            0.97188277000000        1.22783970000000       -0.63074270000000
H           -0.68586227000000       -0.64699274000000       -1.14067356000000
H           -0.08698718000000       -1.89806536000000       -0.08807800000000
O           -1.39890577000000        0.29293318000000        1.83340664000000
H            0.26104805000000        1.86737305000000       -0.08131244000000
H            0.66900479000000        1.15979604000000       -1.68831464000000
H            1.57540479000000       -1.11754461000000        1.79287719000000
H            0.83170267000000        0.50361246000000        2.00813514000000
H            2.52866177000000        0.34138914000000        1.41756928000000
H           -2.30438982000000       -1.06998683000000        0.66315548000000
H            1.97365021000000        1.68467359000000       -0.59361745000000
15
 energy: -20.105382602685 gnorm: 0.021474806076 xtb: 6.5.0 (97a52f5)
C            1.50732245937812       -0.08047603299781        1.37426858981222
N            1.00488579797684       -0.11517713318601       -0.00333026331588
C           -0.26624301623843       -0.79236752572721       -0.11981862939042
C           -1.38973355521252       -0.48433459444833        0.85382758211195
C            0.97141904397235        1.22127146622927       -0.60492430986215
H           -0.67802369655805       -0.62976529709203       -1.12811548519910
H           -0.09476082918415       -1.88072011134762       -0.03803074304989
O           -1.39036020895547        0.27692088505678        1.78465236998178
H            0.27565939849544        1.89020630013584       -0.08175630558147
H            0.66069521650500        1.13022140072730       -1.64723234991250
H            1.56191955501731       -1.10395312149144        1.75040108968547
H            0.86951023903442        0.51512502598728        2.03563353048539
H            2.51305341715478        0.34159459444068        1.37082317154835
H           -2.29343543614934       -1.09345694943353        0.64710394440136
H            1.97321261476368        1.65167410314684       -0.57416018171514
15
 energy: -20.106294261024 gnorm: 0.022817335357 xtb: 6.5.0 (97a52f5)
C            1.50978125686047       -0.07928168950814        1.36988861125630
N            0.98726238806663       -0.09691194209216        0.01356495822852
C           -0.27237572588318       -0.79421377892256       -0.11652126066751
C           -1.39991287986207       -0.48487040785103        0.83826758645383
C            0.96318861857970        1.22135308757953       -0.59175480422749
H           -0.65863961270654       -0.64602395704459       -1.13022714800030
H           -0.08540555743053       -1.87393061598572       -0.00742621234105
O           -1.40654236685631        0.28822787897497        1.75163374490889
H            0.29207666280745        1.91704968499054       -0.06990693736582
H            0.63267927348069        1.13045041923921       -1.62509899294678
H            1.55431210141560       -1.10240316239238        1.73853756426800
H            0.90970965478902        0.52581713793256        2.05814594697858
H            2.52081616240187        0.32352961837645        1.33906118882535
H           -2.29240597934989       -1.11234045579055        0.62592416229249
H            1.97057700368706        1.63031119249388       -0.57474639766309
15
 energy: -20.106429262066 gnorm: 0.048334855762 xtb: 6.5.0 (97a52f5)
C            1.51278439747388       -0.07973469190575        1.36835671415030
N            0.97473757041364       -0.08458306880228        0.02299344131184
C           -0.27560936716070       -0.79914190362773       -0.11494122202650
C           -1.41119909093835       -0.48567165275912        0.82715042806007
C            0.95809120698256        1.22613557623913       -0.58428440459114
H           -0.64536345876458       -0.66687096712200       -1.13704675314203
H           -0.07561140404746       -1.87266977283165        0.01238055817479
O           -1.41977981688295        0.29753023122967        1.73245806542107
H            0.30745666908631        1.94093574135292       -0.05797590415032
H            0.61179047981224        1.13949974702904       -1.61310223536525
H            1.54670343880237       -1.10368240819479        1.73613648815709
H            0.93578478884752        0.53308019407851        2.07102807038692
H            2.53027494475421        0.30773475113714        1.32394669277206
H           -2.29744082853548       -1.12645681319548        0.61713271795310
H            1.97250147015672        1.62065804737236       -0.58489064711209
15
 energy: -20.106526208349 gnorm: 0.019360713311 xtb: 6.5.0 (97a52f5)
C            1.51467260389284       -0.08073014074707        1.36842939526289
N            0.96472863247581       -0.07587081759483        0.03066715257844
C           -0.27693320818919       -0.80457861034900       -0.11694226111301
C           -1.41698863206495       -0.48951628404657        0.82201683155439
C            0.95409940996836        1.23204975329604       -0.58026890941197
H           -0.63643099889839       -0.68782845407602       -1.14405309650147
H           -0.06516751043578       -1.87520717866414        0.02578453599543
O           -1.42606670703552        0.30620685868210        1.71824404323183
H            0.31885898849799        1.95890729663170       -0.04771720849250
H            0.59559056547045        1.14993535346247       -1.60589871474937
H            1.53977810131243       -1.10592746827888        1.73603595939111
H            0.95182936099577        0.53701887300373        2.07907973238356
H            2.53751323856585        0.29505437378061        1.31725154361696
H           -2.30423346187909       -1.12996107877432        0.61259015992071
H            1.97387061732335        1.61721053367416       -0.59587715366713
15
 energy: -20.106559580283 gnorm: 0.002719012110 xtb: 6.5.0 (97a52f5)
C            1.51506718408764       -0.08135355397293        1.36855892731623
N            0.96781495568271       -0.07843610950089        0.02801256152564
C           -0.27516381829378       -0.80206378534080       -0.11623061923106
C           -1.41661239376568       -0.48952542838731        0.82324188963475
C            0.95537201321283        1.23196654309000       -0.58236202754683
H           -0.63878172322536       -0.68335651410011       -1.14164898624520
H           -0.06665865182270       -1.87334032266778        0.02224745691086
O           -1.42569195414446        0.30259346779186        1.72191164632879
H            0.31686767149783        1.95282306568092       -0.04927590243910
H            0.59986479031098        1.14859449265216       -1.60886971619617
H            1.54097783259655       -1.10590229764409        1.73791511864160
H            0.94691199104929        0.53540839983083        2.07420813721134
H            2.53617883171542        0.29762346953998        1.32138224160316
H           -2.30450781467948       -1.12797470126676        0.61594409310896
H            1.97348208577815        1.61970628429489       -0.59569281062309
15
 energy: -20.106563619251 gnorm: 0.001058138851 xtb: 6.5.0 (97a52f5)
C            1.51428165382415       -0.08121582758689        1.36850405541172
N            0.96641160650062       -0.07790735538372        0.02811565763028
C           -0.27479421410663       -0.80234666256181       -0.11699652678155
C           -1.41676061414579       -0.48964442457508        0.82242033680548
C            0.95524295945638        1.23311280298723       -0.58187317910068
H           -0.63836874994041       -0.68534091265984       -1.14264288408543
H           -0.06568853939795       -1.87329012356876        0.02332437939248
O           -1.42524756336676        0.30303361473208        1.72068100064802
H            0.31865290647616        1.95444347264904       -0.04800763927603
H            0.59914693404899        1.14958820244323       -1.60807883613513
H            1.53946255051173       -1.10591146450909        1.73757316540193
H            0.94709353415877        0.53595575946164        2.07469956798121
H            2.53567601369361        0.29665207055725        1.32049853827731
H           -2.30408657226540       -1.12910205471369        0.61766340621562
H            1.97409909455249        1.61873591272838       -0.59653903238534
15
 energy: -20.106564529934 gnorm: 0.000888844876 xtb: 6.5.0 (97a52f5)
C            1.51410243540401       -0.08127826421862        1.36848865861829
N            0.96437034742141       -0.07650208974848        0.02896757630579
C           -0.27404109042666       -0.80298300821630       -0.11731599051747
C           -1.41748172399959       -0.49030765566160        0.82127517188875
C            0.95451484352921        1.23464899342444       -0.58132145991211
H           -0.63699609789312       -0.68851643370907       -1.14343929334014
H           -0.06400534936342       -1.87336368145429        0.02570344481980
O           -1.42601323169032        0.30406372952539        1.71817458029868
H            0.32131272151744        1.95729097153960       -0.04617769015211
H            0.59672141807174        1.15141492559976       -1.60689056965830
H            1.53780138176156       -1.10615071426874        1.73708766202536
H            0.94887123870310        0.53650377789907        2.07578182302480
H            2.53600901143244        0.29479556546026        1.31909179397814
H           -2.30443501052734       -1.12994368854937        0.61799794971140
H            1.97439010605946        1.61709058237793       -0.59808164709101
