
    -----------------------------------------------------------------------
          Psi4: An Open-Source Ab Initio Electronic Structure Package
                               Psi4 1.5 release

                         Git: Rev {HEAD} e9f4d6d 


    D. G. A. Smith, L. A. Burns, A. C. Simmonett, R. M. Parrish,
    M. C. Schieber, R. Galvelis, P. Kraus, H. Kruse, R. Di Remigio,
    A. Alenaizan, A. M. James, S. Lehtola, J. P. Misiewicz, M. Scheurer,
    R. A. Shaw, J. B. Schriber, Y. Xie, Z. L. Glick, D. A. Sirianni,
    J. S. O'Brien, J. M. Waldrop, A. Kumar, E. G. Hohenstein,
    B. P. Pritchard, B. R. Brooks, H. F. Schaefer III, A. Yu. Sokolov,
    K. Patkowski, A. E. DePrince III, U. Bozkaya, R. A. King,
    F. A. Evangelista, J. M. Turney, T. D. Crawford, C. D. Sherrill,
    J. Chem. Phys. 152(18) 184108 (2020). https://doi.org/10.1063/5.0006002

                            Additional Code Authors
    E. T. Seidl, C. L. Janssen, E. F. Valeev, M. L. Leininger,
    J. F. Gonthier, R. M. Richard, H. R. McAlexander, M. Saitow, X. Wang,
    P. Verma, M. H. Lechner, and A. Jiang

             Previous Authors, Complete List of Code Contributors,
                       and Citations for Specific Modules
    https://github.com/psi4/psi4/blob/master/codemeta.json
    https://github.com/psi4/psi4/graphs/contributors
    http://psicode.org/psi4manual/master/introduction.html#citing-psifour

    -----------------------------------------------------------------------


    Psi4 started on: Wednesday, 08 June 2022 10:24AM

    Process ID: 1082414
    Host:       node74.bme.utexas.edu
    PSIDATADIR: /home/bdw2292/miniconda3/envs/newamoebamdpoltype/share/psi4
    Memory:     500.0 MiB
    Threads:    1
    
  ==> Input File <==

--------------------------------------------------------------------------
molecule { 
0 1
N -0.272552034317 0.283397765068 -0.738619717919
C 0.850912553875 -0.268578901551 -0.144615435914
C 2.159972761180 -0.041954225017 -0.899560394140
N 3.298861800062 -0.624463820021 -0.223365115286
O 0.794414288688 -0.907283259366 0.903383392461
H 2.070321873304 -0.516794514462 -1.885002956064
H 2.297288855864 1.042982778353 -1.088539125863
C -1.520788806943 0.218381291896 -0.053552147431
C -4.007744760531 0.101823463628 1.217638657249
C -3.251715041031 -1.057798381716 1.039437113114
C -3.513329670153 1.321885954639 0.759485099193
C -2.016281395530 -1.008792372318 0.398979011992
C -2.270164577243 1.384446622022 0.131581407624
C -0.197358434774 1.136851988240 -1.920471313454
C 4.445297529129 -0.641186870606 -1.119726533229
C 3.623311348309 0.111135951145 0.992418192736
H -3.630918499626 -2.013538460456 1.391994031591
H -4.089997227307 2.232794613656 0.898785571352
H -1.430163733463 -1.909024444572 0.255569698761
H -1.876446785434 2.342364775810 -0.197981686976
H -1.191082341154 1.179589009515 -2.367024087592
H 0.129962848522 2.157648973182 -1.690032568143
H 0.483756953280 0.710498029335 -2.657599098871
H 4.213120799301 -1.238972257394 -2.005434236723
H 4.752989809223 0.368401287167 -1.449706731494
H 3.879168605261 1.167327266357 0.785483416621
H 2.778259288826 0.068639364571 1.677051599236
H -4.973960853675 0.054577699894 1.712576414935
H 5.291579015103 -1.104356957780 -0.606444163083
H 4.483364384884 -0.361533290325 1.473163120969
no_reorient
}
memory 8.166666666666666GB
set_num_threads(2)
psi4_io.set_default_path("/scratch/bdw2292/Psi4-25_27_Index_0-farH_in17")
set freeze_core True
set PROPERTIES_ORIGIN ["COM"]
set cubeprop_tasks ['esp']
set basis 6-311G** 
E, wfn = properties('mp2',properties=['dipole'],return_wfn=True)
cubeprop(wfn)
fchk(wfn, "25_27_Index_0-dma.fchk")
clean()
--------------------------------------------------------------------------

  Memory set to   7.606 GiB by Python driver.
  Threads set to 2 by Python driver.
    SCF Algorithm Type (re)set to DF.

*** tstart() called on node74.bme.utexas.edu
*** at Wed Jun  8 10:24:44 2022

   => Loading Basis Set <=

    Name: 6-311G**
    Role: ORBITAL
    Keyword: BASIS
    atoms 1, 4       entry N          line   132 file /home/bdw2292/miniconda3/envs/newamoebamdpoltype/share/psi4/basis/6-311gss.gbs 
    atoms 2-3, 8-16  entry C          line   113 file /home/bdw2292/miniconda3/envs/newamoebamdpoltype/share/psi4/basis/6-311gss.gbs 
    atoms 5          entry O          line   151 file /home/bdw2292/miniconda3/envs/newamoebamdpoltype/share/psi4/basis/6-311gss.gbs 
    atoms 6-7, 17-30 entry H          line    32 file /home/bdw2292/miniconda3/envs/newamoebamdpoltype/share/psi4/basis/6-311gss.gbs 


         ---------------------------------------------------------
                                   SCF
               by Justin Turney, Rob Parrish, Andy Simmonett
                          and Daniel G. A. Smith
                              RHF Reference
                        2 Threads,   7788 MiB Core
         ---------------------------------------------------------

  ==> Geometry <==

    Molecular point group: c1
    Full point group: C1

    Geometry (in Angstrom), charge = 0, multiplicity = 1:

       Center              X                  Y                   Z               Mass       
    ------------   -----------------  -----------------  -----------------  -----------------
         N           -0.272552034317     0.283397765068    -0.738619717919    14.003074004430
         C            0.850912553875    -0.268578901551    -0.144615435914    12.000000000000
         C            2.159972761180    -0.041954225017    -0.899560394140    12.000000000000
         N            3.298861800062    -0.624463820021    -0.223365115286    14.003074004430
         O            0.794414288688    -0.907283259366     0.903383392461    15.994914619570
         H            2.070321873304    -0.516794514462    -1.885002956064     1.007825032230
         H            2.297288855864     1.042982778353    -1.088539125863     1.007825032230
         C           -1.520788806943     0.218381291896    -0.053552147431    12.000000000000
         C           -4.007744760531     0.101823463628     1.217638657249    12.000000000000
         C           -3.251715041031    -1.057798381716     1.039437113114    12.000000000000
         C           -3.513329670153     1.321885954639     0.759485099193    12.000000000000
         C           -2.016281395530    -1.008792372318     0.398979011992    12.000000000000
         C           -2.270164577243     1.384446622022     0.131581407624    12.000000000000
         C           -0.197358434774     1.136851988240    -1.920471313454    12.000000000000
         C            4.445297529129    -0.641186870606    -1.119726533229    12.000000000000
         C            3.623311348309     0.111135951145     0.992418192736    12.000000000000
         H           -3.630918499626    -2.013538460456     1.391994031591     1.007825032230
         H           -4.089997227307     2.232794613656     0.898785571352     1.007825032230
         H           -1.430163733463    -1.909024444572     0.255569698761     1.007825032230
         H           -1.876446785434     2.342364775810    -0.197981686976     1.007825032230
         H           -1.191082341154     1.179589009515    -2.367024087592     1.007825032230
         H            0.129962848522     2.157648973182    -1.690032568143     1.007825032230
         H            0.483756953280     0.710498029335    -2.657599098871     1.007825032230
         H            4.213120799301    -1.238972257394    -2.005434236723     1.007825032230
         H            4.752989809223     0.368401287167    -1.449706731494     1.007825032230
         H            3.879168605261     1.167327266357     0.785483416621     1.007825032230
         H            2.778259288826     0.068639364571     1.677051599236     1.007825032230
         H           -4.973960853675     0.054577699894     1.712576414935     1.007825032230
         H            5.291579015103    -1.104356957780    -0.606444163083     1.007825032230
         H            4.483364384884    -0.361533290325     1.473163120969     1.007825032230

  Running in c1 symmetry.

  Rotational constants: A =      0.06017  B =      0.01096  C =      0.01019 [cm^-1]
  Rotational constants: A =   1803.70994  B =    328.57656  C =    305.40243 [MHz]
  Nuclear repulsion =  885.586507966266595

  Charge       = 0
  Multiplicity = 1
  Electrons    = 104
  Nalpha       = 52
  Nbeta        = 52

  ==> Algorithm <==

  SCF Algorithm Type is DF.
  DIIS enabled.
  MOM disabled.
  Fractional occupation disabled.
  Guess Type is SAD.
  Energy threshold   = 1.00e-10
  Density threshold  = 1.00e-10
  Integral threshold = 1.00e-12

  ==> Primary Basis <==

  Basis Set: 6-311G**
    Blend: 6-311G**
    Number of shells: 176
    Number of basis functions: 348
    Number of Cartesian functions: 362
    Spherical Harmonics?: true
    Max angular momentum: 2

   => Loading Basis Set <=

    Name: (6-311G** AUX)
    Role: JKFIT
    Keyword: DF_BASIS_SCF
    atoms 1, 4       entry N          line   177 file /home/bdw2292/miniconda3/envs/newamoebamdpoltype/share/psi4/basis/cc-pvtz-jkfit.gbs 
    atoms 2-3, 8-16  entry C          line   125 file /home/bdw2292/miniconda3/envs/newamoebamdpoltype/share/psi4/basis/cc-pvtz-jkfit.gbs 
    atoms 5          entry O          line   229 file /home/bdw2292/miniconda3/envs/newamoebamdpoltype/share/psi4/basis/cc-pvtz-jkfit.gbs 
    atoms 6-7, 17-30 entry H          line    51 file /home/bdw2292/miniconda3/envs/newamoebamdpoltype/share/psi4/basis/cc-pvtz-jkfit.gbs 

  ==> Integral Setup <==

  DFHelper Memory: AOs need 1.124 GiB; user supplied 5.704 GiB. Using in-core AOs.

  ==> MemDFJK: Density-Fitted J/K Matrices <==

    J tasked:                   Yes
    K tasked:                   Yes
    wK tasked:                   No
    OpenMP threads:               2
    Memory [MiB]:              5841
    Algorithm:                 Core
    Schwarz Cutoff:           1E-12
    Mask sparsity (%):      24.5624
    Fitting Condition:        1E-10

   => Auxiliary Basis Set <=

  Basis Set: (6-311G** AUX)
    Blend: CC-PVTZ-JKFIT
    Number of shells: 510
    Number of basis functions: 1586
    Number of Cartesian functions: 1904
    Spherical Harmonics?: true
    Max angular momentum: 4

  Minimum eigenvalue in the overlap matrix is 1.8675310238E-04.
  Reciprocal condition number of the overlap matrix is 2.5332786648E-05.
    Using symmetric orthogonalization.

  ==> Pre-Iterations <==

  SCF Guess: Superposition of Atomic Densities via on-the-fly atomic UHF (no occupation information).

   -------------------------
    Irrep   Nso     Nmo    
   -------------------------
     A        348     348 
   -------------------------
    Total     348     348
   -------------------------

  ==> Iterations <==

                           Total Energy        Delta E     RMS |[F,P]|

   @DF-RHF iter SAD:  -608.99748887982082   -6.08997e+02   0.00000e+00 
   @DF-RHF iter   1:  -609.39696220396581   -3.99473e-01   2.20017e-03 DIIS
   @DF-RHF iter   2:  -609.65887597064159   -2.61914e-01   1.29819e-03 DIIS
   @DF-RHF iter   3:  -609.73737016981090   -7.84942e-02   3.40643e-04 DIIS
   @DF-RHF iter   4:  -609.74488549770672   -7.51533e-03   1.15609e-04 DIIS
   @DF-RHF iter   5:  -609.74584933810775   -9.63840e-04   2.01822e-05 DIIS
   @DF-RHF iter   6:  -609.74590634884476   -5.70107e-05   1.04089e-05 DIIS
   @DF-RHF iter   7:  -609.74591920723469   -1.28584e-05   4.09573e-06 DIIS
   @DF-RHF iter   8:  -609.74592216801148   -2.96078e-06   1.69951e-06 DIIS
   @DF-RHF iter   9:  -609.74592266952857   -5.01517e-07   6.24725e-07 DIIS
   @DF-RHF iter  10:  -609.74592272668315   -5.71546e-08   1.90667e-07 DIIS
   @DF-RHF iter  11:  -609.74592273332689   -6.64375e-09   7.82173e-08 DIIS
   @DF-RHF iter  12:  -609.74592273442329   -1.09640e-09   2.97089e-08 DIIS
   @DF-RHF iter  13:  -609.74592273464873   -2.25441e-10   1.33280e-08 DIIS
   @DF-RHF iter  14:  -609.74592273471399   -6.52562e-11   6.25528e-09 DIIS
   @DF-RHF iter  15:  -609.74592273472251   -8.52651e-12   2.53078e-09 DIIS
   @DF-RHF iter  16:  -609.74592273472558   -3.06954e-12   9.84642e-10 DIIS
   @DF-RHF iter  17:  -609.74592273472933   -3.75167e-12   3.47060e-10 DIIS
   @DF-RHF iter  18:  -609.74592273472661    2.72848e-12   1.25232e-10 DIIS
   @DF-RHF iter  19:  -609.74592273472797   -1.36424e-12   5.68851e-11 DIIS
  Energy and wave function converged.


  ==> Post-Iterations <==

    Orbital Energies [Eh]
    ---------------------

    Doubly Occupied:                                                      

       1A    -20.512446     2A    -15.593781     3A    -15.547988  
       4A    -11.353721     5A    -11.277053     6A    -11.276603  
       7A    -11.271104     8A    -11.246340     9A    -11.236160  
      10A    -11.234704    11A    -11.232903    12A    -11.232632  
      13A    -11.230280    14A    -11.228597    15A     -1.378070  
      16A     -1.259099    17A     -1.233851    18A     -1.142195  
      19A     -1.024354    20A     -1.015651    21A     -0.986955  
      22A     -0.953014    23A     -0.948849    24A     -0.856598  
      25A     -0.828967    26A     -0.807631    27A     -0.748541  
      28A     -0.695536    29A     -0.693361    30A     -0.668564  
      31A     -0.662442    32A     -0.638059    33A     -0.633275  
      34A     -0.621476    35A     -0.609084    36A     -0.594051  
      37A     -0.584136    38A     -0.572899    39A     -0.566950  
      40A     -0.547450    41A     -0.535633    42A     -0.525073  
      43A     -0.510679    44A     -0.509457    45A     -0.504281  
      46A     -0.495145    47A     -0.489463    48A     -0.416840  
      49A     -0.401888    50A     -0.362317    51A     -0.334315  
      52A     -0.313920  

    Virtual:                                                              

      53A      0.128495    54A      0.134986    55A      0.138816  
      56A      0.158114    57A      0.170018    58A      0.178803  
      59A      0.185857    60A      0.194426    61A      0.202077  
      62A      0.209379    63A      0.213013    64A      0.220871  
      65A      0.229551    66A      0.237475    67A      0.243748  
      68A      0.260146    69A      0.270119    70A      0.280705  
      71A      0.295773    72A      0.307532    73A      0.340711  
      74A      0.352744    75A      0.377557    76A      0.388216  
      77A      0.399041    78A      0.407702    79A      0.433323  
      80A      0.435452    81A      0.443221    82A      0.456090  
      83A      0.459243    84A      0.481116    85A      0.494752  
      86A      0.506694    87A      0.520651    88A      0.536254  
      89A      0.549626    90A      0.560811    91A      0.572745  
      92A      0.578755    93A      0.587930    94A      0.594571  
      95A      0.604942    96A      0.614148    97A      0.622520  
      98A      0.628463    99A      0.642096   100A      0.643555  
     101A      0.659911   102A      0.672595   103A      0.687789  
     104A      0.692041   105A      0.711300   106A      0.718380  
     107A      0.728655   108A      0.740001   109A      0.754611  
     110A      0.759623   111A      0.767574   112A      0.772676  
     113A      0.783606   114A      0.785140   115A      0.791404  
     116A      0.797134   117A      0.803878   118A      0.806239  
     119A      0.812089   120A      0.821213   121A      0.827367  
     122A      0.828536   123A      0.836638   124A      0.841297  
     125A      0.845372   126A      0.857335   127A      0.863040  
     128A      0.866831   129A      0.884689   130A      0.898304  
     131A      0.915854   132A      0.934773   133A      0.945987  
     134A      0.953780   135A      0.962975   136A      0.996180  
     137A      1.019619   138A      1.029272   139A      1.041297  
     140A      1.062839   141A      1.073722   142A      1.077792  
     143A      1.079761   144A      1.097602   145A      1.138041  
     146A      1.140730   147A      1.176802   148A      1.198624  
     149A      1.216656   150A      1.224625   151A      1.240854  
     152A      1.254916   153A      1.258120   154A      1.291796  
     155A      1.316378   156A      1.321955   157A      1.333807  
     158A      1.355088   159A      1.370017   160A      1.390687  
     161A      1.418881   162A      1.435590   163A      1.448646  
     164A      1.482171   165A      1.496805   166A      1.513208  
     167A      1.565182   168A      1.586016   169A      1.596366  
     170A      1.625629   171A      1.645683   172A      1.659164  
     173A      1.680344   174A      1.693056   175A      1.703427  
     176A      1.711317   177A      1.711869   178A      1.724417  
     179A      1.736757   180A      1.751047   181A      1.758533  
     182A      1.765081   183A      1.772140   184A      1.773733  
     185A      1.779735   186A      1.796373   187A      1.801059  
     188A      1.824603   189A      1.828442   190A      1.838606  
     191A      1.856419   192A      1.869039   193A      1.882116  
     194A      1.883663   195A      1.886525   196A      1.896697  
     197A      1.912460   198A      1.947510   199A      1.954752  
     200A      1.958667   201A      1.966440   202A      1.986598  
     203A      1.998906   204A      2.005340   205A      2.016466  
     206A      2.044784   207A      2.051333   208A      2.063393  
     209A      2.065968   210A      2.085652   211A      2.101840  
     212A      2.110076   213A      2.139399   214A      2.202007  
     215A      2.210947   216A      2.216822   217A      2.224217  
     218A      2.225612   219A      2.237379   220A      2.250046  
     221A      2.257549   222A      2.267309   223A      2.279749  
     224A      2.302723   225A      2.311564   226A      2.312530  
     227A      2.345317   228A      2.348887   229A      2.373206  
     230A      2.380297   231A      2.389456   232A      2.415208  
     233A      2.424194   234A      2.464302   235A      2.495432  
     236A      2.503685   237A      2.522068   238A      2.561250  
     239A      2.586109   240A      2.614605   241A      2.643509  
     242A      2.651585   243A      2.664917   244A      2.667728  
     245A      2.677697   246A      2.688371   247A      2.725075  
     248A      2.726731   249A      2.737915   250A      2.761054  
     251A      2.769288   252A      2.819104   253A      2.826974  
     254A      2.828274   255A      2.837842   256A      2.848156  
     257A      2.857644   258A      2.871554   259A      2.882784  
     260A      2.892554   261A      2.914692   262A      2.918582  
     263A      2.935077   264A      2.940586   265A      2.946703  
     266A      2.952752   267A      2.963079   268A      2.965583  
     269A      2.976381   270A      2.988335   271A      3.001017  
     272A      3.027562   273A      3.036205   274A      3.061735  
     275A      3.078690   276A      3.095068   277A      3.124720  
     278A      3.140763   279A      3.153374   280A      3.180996  
     281A      3.183955   282A      3.206923   283A      3.212079  
     284A      3.259522   285A      3.263196   286A      3.277045  
     287A      3.295531   288A      3.302453   289A      3.322402  
     290A      3.348462   291A      3.351284   292A      3.394154  
     293A      3.395755   294A      3.404892   295A      3.471878  
     296A      3.584279   297A      3.604504   298A      3.749439  
     299A      3.764890   300A      3.781877   301A      3.787199  
     302A      3.840792   303A      3.892827   304A      3.894628  
     305A      3.907061   306A      3.938856   307A      3.983681  
     308A      4.027594   309A      4.079394   310A      4.098401  
     311A      4.141341   312A      4.154744   313A      4.163316  
     314A      4.187813   315A      4.199023   316A      4.219315  
     317A      4.227697   318A      4.257301   319A      4.327848  
     320A      4.375075   321A      4.438785   322A      4.457477  
     323A      4.489223   324A      4.535692   325A      4.548657  
     326A      4.693805   327A      5.276346   328A      5.327386  
     329A      5.372012   330A      5.440983   331A      5.526231  
     332A      5.538858   333A      5.721598   334A      6.234090  
     335A     24.671443   336A     24.917860   337A     24.991508  
     338A     25.054462   339A     25.058455   340A     25.084975  
     341A     25.092004   342A     25.103870   343A     25.232813  
     344A     25.263611   345A     25.354784   346A     36.966093  
     347A     37.001364   348A     51.726066  

    Final Occupation by Irrep:
              A 
    DOCC [    52 ]

  @DF-RHF Final Energy:  -609.74592273472797

   => Energetics <=

    Nuclear Repulsion Energy =            885.5865079662665948
    One-Electron Energy =               -2586.3761047709631384
    Two-Electron Energy =                1091.0436740699683469
    Total Energy =                       -609.7459227347280830

Computation Completed

*** tstop() called on node74.bme.utexas.edu at Wed Jun  8 10:25:24 2022
Module time:
	user time   =      73.16 seconds =       1.22 minutes
	system time =       4.45 seconds =       0.07 minutes
	total time  =         40 seconds =       0.67 minutes
Total time:
	user time   =      73.16 seconds =       1.22 minutes
	system time =       4.45 seconds =       0.07 minutes
	total time  =         40 seconds =       0.67 minutes
   => Loading Basis Set <=

    Name: (6-311G** AUX)
    Role: RIFIT
    Keyword: DF_BASIS_MP2
    atoms 1, 4       entry N          line   257 file /home/bdw2292/miniconda3/envs/newamoebamdpoltype/share/psi4/basis/cc-pvtz-ri.gbs 
    atoms 2-3, 8-16  entry C          line   209 file /home/bdw2292/miniconda3/envs/newamoebamdpoltype/share/psi4/basis/cc-pvtz-ri.gbs 
    atoms 5          entry O          line   305 file /home/bdw2292/miniconda3/envs/newamoebamdpoltype/share/psi4/basis/cc-pvtz-ri.gbs 
    atoms 6-7, 17-30 entry H          line    19 file /home/bdw2292/miniconda3/envs/newamoebamdpoltype/share/psi4/basis/cc-pvtz-ri.gbs 


*** tstart() called on node74.bme.utexas.edu
*** at Wed Jun  8 10:25:24 2022


  //>>>>>>>>>>>>>>>>>>>>>>>>>>>>>>>>>>>//
  //               DFMP2               //
  //<<<<<<<<<<<<<<<<<<<<<<<<<<<<<<<<<<<//

	 --------------------------------------------------------
	                          DF-MP2                         
	      2nd-Order Density-Fitted Moller-Plesset Theory     
	              RMP2 Wavefunction,   2 Threads             
	                                                         
	        Rob Parrish, Justin Turney, Andy Simmonett,      
	           Ed Hohenstein, and C. David Sherrill          
	 --------------------------------------------------------

   => Auxiliary Basis Set <=

  Basis Set: (6-311G** AUX)
    Blend: CC-PVTZ-RI
    Number of shells: 482
    Number of basis functions: 1614
    Number of Cartesian functions: 1974
    Spherical Harmonics?: true
    Max angular momentum: 4

	 --------------------------------------------------------
	                 NBF =   348, NAUX =  1614
	 --------------------------------------------------------
	   CLASS    FOCC     OCC    AOCC    AVIR     VIR    FVIR
	   PAIRS      14      52      38     296     296       0
	 --------------------------------------------------------

  DFHelper Memory: AOs need 1.124 GiB; user supplied 5.704 GiB. Using in-core AOs.


         ------------------------------------------------------------
                                     CPHF                           
                                  Rob Parrish                       
         ------------------------------------------------------------

  ==> Geometry <==

    Molecular point group: c1
    Full point group: C1

    Geometry (in Angstrom), charge = 0, multiplicity = 1:

       Center              X                  Y                   Z               Mass       
    ------------   -----------------  -----------------  -----------------  -----------------
         N           -0.272552034317     0.283397765068    -0.738619717919    14.003074004430
         C            0.850912553875    -0.268578901551    -0.144615435914    12.000000000000
         C            2.159972761180    -0.041954225017    -0.899560394140    12.000000000000
         N            3.298861800062    -0.624463820021    -0.223365115286    14.003074004430
         O            0.794414288688    -0.907283259366     0.903383392461    15.994914619570
         H            2.070321873304    -0.516794514462    -1.885002956064     1.007825032230
         H            2.297288855864     1.042982778353    -1.088539125863     1.007825032230
         C           -1.520788806943     0.218381291896    -0.053552147431    12.000000000000
         C           -4.007744760531     0.101823463628     1.217638657249    12.000000000000
         C           -3.251715041031    -1.057798381716     1.039437113114    12.000000000000
         C           -3.513329670153     1.321885954639     0.759485099193    12.000000000000
         C           -2.016281395530    -1.008792372318     0.398979011992    12.000000000000
         C           -2.270164577243     1.384446622022     0.131581407624    12.000000000000
         C           -0.197358434774     1.136851988240    -1.920471313454    12.000000000000
         C            4.445297529129    -0.641186870606    -1.119726533229    12.000000000000
         C            3.623311348309     0.111135951145     0.992418192736    12.000000000000
         H           -3.630918499626    -2.013538460456     1.391994031591     1.007825032230
         H           -4.089997227307     2.232794613656     0.898785571352     1.007825032230
         H           -1.430163733463    -1.909024444572     0.255569698761     1.007825032230
         H           -1.876446785434     2.342364775810    -0.197981686976     1.007825032230
         H           -1.191082341154     1.179589009515    -2.367024087592     1.007825032230
         H            0.129962848522     2.157648973182    -1.690032568143     1.007825032230
         H            0.483756953280     0.710498029335    -2.657599098871     1.007825032230
         H            4.213120799301    -1.238972257394    -2.005434236723     1.007825032230
         H            4.752989809223     0.368401287167    -1.449706731494     1.007825032230
         H            3.879168605261     1.167327266357     0.785483416621     1.007825032230
         H            2.778259288826     0.068639364571     1.677051599236     1.007825032230
         H           -4.973960853675     0.054577699894     1.712576414935     1.007825032230
         H            5.291579015103    -1.104356957780    -0.606444163083     1.007825032230
         H            4.483364384884    -0.361533290325     1.473163120969     1.007825032230

  Nuclear repulsion =  885.586507966266595
  Reference energy  = -609.745922734727969

  ==> Basis Set <==

  Basis Set: 6-311G**
    Blend: 6-311G**
    Number of shells: 176
    Number of basis functions: 348
    Number of Cartesian functions: 362
    Spherical Harmonics?: true
    Max angular momentum: 2

  ==> CGRSolver (by Rob Parrish) <==

   Number of roots    =         1
   Preconditioning    =    JACOBI
   Convergence cutoff =     1E-06
   Maximum iterations =       100

  ==> CPHFRHamiltonian (by Rob Parrish) <== 

  ==> MemDFJK: Density-Fitted J/K Matrices <==

    J tasked:                   Yes
    K tasked:                   Yes
    wK tasked:                   No
    OpenMP threads:               2
    Memory [MiB]:              5841
    Algorithm:                 Core
    Schwarz Cutoff:           1E-12
    Mask sparsity (%):      24.5624
    Fitting Condition:        1E-10

   => Auxiliary Basis Set <=

  Basis Set: (6-311G** AUX)
    Blend: CC-PVTZ-JKFIT
    Number of shells: 510
    Number of basis functions: 1586
    Number of Cartesian functions: 1904
    Spherical Harmonics?: true
    Max angular momentum: 4

  ==> CPHF Iterations <==

  => Iterations <=

             Iter  Converged  Remaining    Residual
  CGR           1          0          1   1.117E-01
  CGR           2          0          1   3.129E-02
  CGR           3          0          1   1.249E-02
  CGR           4          0          1   3.823E-03
  CGR           5          0          1   1.434E-03
  CGR           6          0          1   6.415E-04
  CGR           7          0          1   3.196E-04
  CGR           8          0          1   1.453E-04
  CGR           9          0          1   4.444E-05
  CGR          10          0          1   1.522E-05
  CGR          11          0          1   5.284E-06
  CGR          12          0          1   2.082E-06
  CGR          13          0          1   1.010E-06
  CGR          14          1          0   3.311E-07

    CGRSolver converged.

	-----------------------------------------------------------
	 ==================> DF-MP2 Energies <==================== 
	-----------------------------------------------------------
	 Reference Energy          =    -609.7459227347279693 [Eh]
	 Singles Energy            =      -0.0000000000000000 [Eh]
	 Same-Spin Energy          =      -0.5445462104018799 [Eh]
	 Opposite-Spin Energy      =      -1.5715412312980033 [Eh]
	 Correlation Energy        =      -2.1160874416998832 [Eh]
	 Total Energy              =    -611.8620101764278161 [Eh]
	-----------------------------------------------------------
	 ================> DF-SCS-MP2 Energies <================== 
	-----------------------------------------------------------
	 SCS Same-Spin Scale       =       0.3333333333333333 [-]
	 SCS Opposite-Spin Scale   =       1.2000000000000000 [-]
	 SCS Same-Spin Energy      =      -0.1815154034672933 [Eh]
	 SCS Opposite-Spin Energy  =      -1.8858494775576038 [Eh]
	 SCS Correlation Energy    =      -2.0673648810248970 [Eh]
	 SCS Total Energy          =    -611.8132876157528699 [Eh]
	-----------------------------------------------------------



Properties will be evaluated at  -0.000000,  -0.000000,   0.000000 [a0]

Properties computed using the MP2 density matrix

  Nuclear Dipole Moment: [e a0]
     X:    12.3577      Y:     3.9158      Z:    -5.3863

  Electronic Dipole Moment: [e a0]
     X:   -12.4550      Y:    -3.0488      Z:     4.2829

  Dipole Moment: [e a0]
     X:    -0.0973      Y:     0.8671      Z:    -1.1034     Total:     1.4066

  Dipole Moment: [D]
     X:    -0.2473      Y:     2.2038      Z:    -2.8045     Total:     3.5753


*** tstop() called on node74.bme.utexas.edu at Wed Jun  8 10:27:33 2022
Module time:
	user time   =     234.53 seconds =       3.91 minutes
	system time =      13.32 seconds =       0.22 minutes
	total time  =        129 seconds =       2.15 minutes
Total time:
	user time   =     308.03 seconds =       5.13 minutes
	system time =      17.78 seconds =       0.30 minutes
	total time  =        169 seconds =       2.82 minutes
  ==> One Electron Grid Properties (v2.0) <==

  ==> CubicScalarGrid <==

    Filepath     = .
    Total Points =           950682
    XYZ Blocking =               10
    X Points     =              138
    Y Points     =               83
    Z Points     =               83
    X Spacing    =        2.000E-01
    Y Spacing    =        2.000E-01
    Z Spacing    =        2.000E-01
    X Minimum    =       -1.340E+01
    Y Minimum    =       -7.889E+00
    Z Minimum    =       -9.093E+00
    X Maximum    =        1.400E+01
    Y Maximum    =        8.511E+00
    Z Maximum    =        7.307E+00

  Basis Set: 6-311G**
    Blend: 6-311G**
    Number of shells: 176
    Number of basis functions: 348
    Number of Cartesian functions: 362
    Spherical Harmonics?: true
    Max angular momentum: 2

   => Loading Basis Set <=

    Name: 6-311G**
    Role: ORBITAL
    Keyword: BASIS
    atoms 1, 4       entry N          line   132 file /home/bdw2292/miniconda3/envs/newamoebamdpoltype/share/psi4/basis/6-311gss.gbs 
    atoms 2-3, 8-16  entry C          line   113 file /home/bdw2292/miniconda3/envs/newamoebamdpoltype/share/psi4/basis/6-311gss.gbs 
    atoms 5          entry O          line   151 file /home/bdw2292/miniconda3/envs/newamoebamdpoltype/share/psi4/basis/6-311gss.gbs 
    atoms 6-7, 17-30 entry H          line    32 file /home/bdw2292/miniconda3/envs/newamoebamdpoltype/share/psi4/basis/6-311gss.gbs 

FCHKWriter: !WARNING! method 'MP2'' renamed to label 'MP2'.
FCHKWriter: Writing 25_27_Index_0-dma.fchk with label ' MP2 Density'.

    Psi4 stopped on: Wednesday, 08 June 2022 10:29AM
    Psi4 wall time for execution: 0:04:59.43

*** Psi4 exiting successfully. Buy a developer a beer!
