
    -----------------------------------------------------------------------
          Psi4: An Open-Source Ab Initio Electronic Structure Package
                               Psi4 1.6 release

                         Git: Rev {HEAD} 77475b5 


    D. G. A. Smith, L. A. Burns, A. C. Simmonett, R. M. Parrish,
    M. C. Schieber, R. Galvelis, P. Kraus, H. Kruse, R. Di Remigio,
    A. Alenaizan, A. M. James, S. Lehtola, J. P. Misiewicz, M. Scheurer,
    R. A. Shaw, J. B. Schriber, Y. Xie, Z. L. Glick, D. A. Sirianni,
    J. S. O'Brien, J. M. Waldrop, A. Kumar, E. G. Hohenstein,
    B. P. Pritchard, B. R. Brooks, H. F. Schaefer III, A. Yu. Sokolov,
    K. Patkowski, A. E. DePrince III, U. Bozkaya, R. A. King,
    F. A. Evangelista, J. M. Turney, T. D. Crawford, C. D. Sherrill,
    J. Chem. Phys. 152(18) 184108 (2020). https://doi.org/10.1063/5.0006002

                            Additional Code Authors
    E. T. Seidl, C. L. Janssen, E. F. Valeev, M. L. Leininger,
    J. F. Gonthier, R. M. Richard, H. R. McAlexander, M. Saitow, X. Wang,
    P. Verma, M. H. Lechner, and A. Jiang

             Previous Authors, Complete List of Code Contributors,
                       and Citations for Specific Modules
    https://github.com/psi4/psi4/blob/master/codemeta.json
    https://github.com/psi4/psi4/graphs/contributors
    http://psicode.org/psi4manual/master/introduction.html#citing-psifour

    -----------------------------------------------------------------------


    Psi4 started on: Saturday, 18 November 2023 08:03AM

    Process ID: 1108509
    Host:       node165.bme.utexas.edu
    PSIDATADIR: /home/liuchw/anaconda3/envs/poltype2022/share/psi4
    Memory:     500.0 MiB
    Threads:    1
    
  ==> Input File <==

--------------------------------------------------------------------------
molecule { 
0 1
 N    2.967700   -1.225900    0.938300
 C    4.207900   -0.750700    0.463500
 C    5.417000   -0.912000    1.425500
 N    6.609300   -0.198000    0.919400
 O    4.378600   -0.195400   -0.626700
 H    5.638500   -1.984900    1.468800
 H    5.161100   -0.544900    2.425100
 H    2.126700   -1.148600    0.348700
 H    2.903100   -1.650200    1.874600
 H    7.171200    0.138500    1.714400
 H    7.175600   -0.839100    0.345700
}
set {
  geom_maxiter 400
  g_convergence GAU_LOOSE
  dynamic_level 1
}
geometric_keywords = {
 'coordsys' : 'tric',
 'convergence_cmax' : 1e0,
 'convergence_set' : 'GAU_LOOSE',
 'convergence_energy' : 1e-4,
}
memory 20GB
set_num_threads(5)
psi4_io.set_default_path("/scratch/liuchw/Psi4-25_27_Index_0-farH_in17")
basis {
assign 6-31G*
}
opt_finished = False
if not opt_finished:
    try:
        ener, opt_hist = optimize('mp2',engine='geometric',optimizer_keywords=geometric_keywords, return_history=True)
        opt_finished = len(opt_hist['energy']) < 400
    except Exception as e:
        core.print_out('Exception: %s'%(e))
if not opt_finished:
    try:
        optimize('mp2')
    except:
        set opt_coordinates both
        optimize('mp2')
    opt_finished = True
clean()
assert opt_finished

--------------------------------------------------------------------------

  Memory set to  18.626 GiB by Python driver.
  Threads set to 5 by Python driver.


  ==> GeomeTRIC Optimizer <==                                                                   ~

Scratch directory: /scratch/liuchw/Psi4-25_27_Index_0-farH_in17/
gradient() will perform analytic gradient computation.
    SCF Algorithm Type (re)set to DF.

*** tstart() called on node165.bme.utexas.edu
*** at Sat Nov 18 08:03:46 2023

   => Loading Basis Set <=

    Name: ANONYMOUS2804E6E0
    Role: ORBITAL
    Keyword: BASIS
    atoms 1, 4 entry N          line   128 file /home/liuchw/anaconda3/envs/poltype2022/share/psi4/basis/6-31gs.gbs 
    atoms 2-3  entry C          line   111 file /home/liuchw/anaconda3/envs/poltype2022/share/psi4/basis/6-31gs.gbs 
    atoms 5    entry O          line   145 file /home/liuchw/anaconda3/envs/poltype2022/share/psi4/basis/6-31gs.gbs 
    atoms 6-11 entry H          line    44 file /home/liuchw/anaconda3/envs/poltype2022/share/psi4/basis/6-31gs.gbs 


         ---------------------------------------------------------
                                   SCF
               by Justin Turney, Rob Parrish, Andy Simmonett
                          and Daniel G. A. Smith
                              RHF Reference
                        5 Threads,  19073 MiB Core
         ---------------------------------------------------------

  ==> Geometry <==

    Molecular point group: c1
    Full point group: C1

    Geometry (in Angstrom), charge = 0, multiplicity = 1:

       Center              X                  Y                   Z               Mass       
    ------------   -----------------  -----------------  -----------------  -----------------
         N           -1.759690908837    -0.562909053922     0.304943567669    14.003074004430
         C           -0.519490908837    -0.087709053922    -0.169856432331    12.000000000000
         C            0.689609091163    -0.249009053922     0.792143567669    12.000000000000
         N            1.881909091163     0.464990946078     0.286043567669    14.003074004430
         O           -0.348790908837     0.467590946078    -1.260056432331    15.994914619570
         H            0.911109091163    -1.321909053922     0.835443567669     1.007825032230
         H            0.433709091163     0.118090946078     1.791743567669     1.007825032230
         H           -2.600690908837    -0.485609053922    -0.284656432331     1.007825032230
         H           -1.824290908837    -0.987209053922     1.241243567669     1.007825032230
         H            2.443809091163     0.801490946078     1.081043567669     1.007825032230
         H            2.448209091163    -0.176109053922    -0.287656432331     1.007825032230

  Running in c1 symmetry.

  Rotational constants: A =      0.33395  B =      0.12259  C =      0.09249 [cm^-1]
  Rotational constants: A =  10011.43765  B =   3675.15033  C =   2772.81168 [MHz]
  Nuclear repulsion =  176.212227313698691

  Charge       = 0
  Multiplicity = 1
  Electrons    = 40
  Nalpha       = 20
  Nbeta        = 20

  ==> Algorithm <==

  SCF Algorithm Type is DF.
  DIIS enabled.
  MOM disabled.
  Fractional occupation disabled.
  Guess Type is SAD.
  Energy threshold   = 1.00e-10
  Density threshold  = 1.00e-10
  Integral threshold = 1.00e-12

  ==> Primary Basis <==

  Basis Set: ANONYMOUS2804E6E0
    Blend: 6-31G*
    Number of shells: 42
    Number of basis functions: 87
    Number of Cartesian functions: 87
    Spherical Harmonics?: false
    Max angular momentum: 2

   => Loading Basis Set <=

    Name: (ANONYMOUS2804E6E0 AUX)
    Role: JKFIT
    Keyword: DF_BASIS_SCF
    atoms 1, 4 entry N          line   171 file /home/liuchw/anaconda3/envs/poltype2022/share/psi4/basis/cc-pvdz-jkfit.gbs 
    atoms 2-3  entry C          line   121 file /home/liuchw/anaconda3/envs/poltype2022/share/psi4/basis/cc-pvdz-jkfit.gbs 
    atoms 5    entry O          line   221 file /home/liuchw/anaconda3/envs/poltype2022/share/psi4/basis/cc-pvdz-jkfit.gbs 
    atoms 6-11 entry H          line    51 file /home/liuchw/anaconda3/envs/poltype2022/share/psi4/basis/cc-pvdz-jkfit.gbs 

  ==> Integral Setup <==

  DFHelper Memory: AOs need 0.035 GiB; user supplied 13.970 GiB. Using in-core AOs.

  ==> MemDFJK: Density-Fitted J/K Matrices <==

    J tasked:                   Yes
    K tasked:                   Yes
    wK tasked:                   No
    OpenMP threads:               5
    Memory [MiB]:             14305
    Algorithm:                 Core
    Schwarz Cutoff:           1E-12
    Mask sparsity (%):       0.8720
    Fitting Condition:        1E-10

   => Auxiliary Basis Set <=

  Basis Set: (ANONYMOUS2804E6E0 AUX)
    Blend: CC-PVDZ-JKFIT
    Number of shells: 174
    Number of basis functions: 555
    Number of Cartesian functions: 555
    Spherical Harmonics?: false
    Max angular momentum: 3

  Minimum eigenvalue in the overlap matrix is 3.9650685203E-03.
  Reciprocal condition number of the overlap matrix is 5.8581145895E-04.
    Using symmetric orthogonalization.

  ==> Pre-Iterations <==

  SCF Guess: Superposition of Atomic Densities via on-the-fly atomic UHF (no occupation information).

   -------------------------
    Irrep   Nso     Nmo    
   -------------------------
     A         87      87 
   -------------------------
    Total      87      87
   -------------------------

  ==> Iterations <==

                           Total Energy        Delta E     RMS |[F,P]|

   @DF-RHF iter SAD:  -261.81384815258309   -2.61814e+02   0.00000e+00 
   @DF-RHF iter   1:  -262.78403151652179   -9.70183e-01   7.07251e-03 DIIS/ADIIS
   @DF-RHF iter   2:  -262.90681537848434   -1.22784e-01   4.76566e-03 DIIS/ADIIS
   @DF-RHF iter   3:  -262.96851893656111   -6.17036e-02   8.39609e-04 DIIS/ADIIS
   @DF-RHF iter   4:  -262.97136800550192   -2.84907e-03   3.13367e-04 DIIS/ADIIS
   @DF-RHF iter   5:  -262.97183682776142   -4.68822e-04   6.60554e-05 DIIS
   @DF-RHF iter   6:  -262.97188083221579   -4.40045e-05   3.14170e-05 DIIS
   @DF-RHF iter   7:  -262.97189088138748   -1.00492e-05   1.24999e-05 DIIS
   @DF-RHF iter   8:  -262.97189260765145   -1.72626e-06   4.05109e-06 DIIS
   @DF-RHF iter   9:  -262.97189279125143   -1.83600e-07   9.84020e-07 DIIS
   @DF-RHF iter  10:  -262.97189279920627   -7.95484e-09   3.63737e-07 DIIS
   @DF-RHF iter  11:  -262.97189280023258   -1.02631e-09   9.21273e-08 DIIS
   @DF-RHF iter  12:  -262.97189280029647   -6.38920e-11   2.34657e-08 DIIS
   @DF-RHF iter  13:  -262.97189280030113   -4.66116e-12   8.78124e-09 DIIS
   @DF-RHF iter  14:  -262.97189280030165   -5.11591e-13   3.11278e-09 DIIS
   @DF-RHF iter  15:  -262.97189280030153    1.13687e-13   9.06583e-10 DIIS
   @DF-RHF iter  16:  -262.97189280030170   -1.70530e-13   2.52936e-10 DIIS
   @DF-RHF iter  17:  -262.97189280030153    1.70530e-13   7.53726e-11 DIIS
  Energy and wave function converged.


  ==> Post-Iterations <==

    Orbital Energies [Eh]
    ---------------------

    Doubly Occupied:                                                      

       1A    -20.521116     2A    -15.591803     3A    -15.549840  
       4A    -11.355544     5A    -11.275195     6A     -1.355282  
       7A     -1.187536     8A     -1.167963     9A     -0.942787  
      10A     -0.772296    11A     -0.704818    12A     -0.681170  
      13A     -0.652923    14A     -0.591144    15A     -0.569799  
      16A     -0.564286    17A     -0.510800    18A     -0.414508  
      19A     -0.402178    20A     -0.386838  

    Virtual:                                                              

      21A      0.197643    22A      0.208396    23A      0.213140  
      24A      0.274033    25A      0.282249    26A      0.301710  
      27A      0.362126    28A      0.389187    29A      0.430857  
      30A      0.512250    31A      0.547746    32A      0.761995  
      33A      0.768057    34A      0.802237    35A      0.843253  
      36A      0.889192    37A      0.906092    38A      0.942694  
      39A      0.973456    40A      0.991385    41A      0.997437  
      42A      1.075782    43A      1.104277    44A      1.134547  
      45A      1.146298    46A      1.156306    47A      1.172063  
      48A      1.193203    49A      1.211298    50A      1.221680  
      51A      1.353268    52A      1.387844    53A      1.430052  
      54A      1.538607    55A      1.565927    56A      1.644301  
      57A      1.685164    58A      1.759953    59A      1.860107  
      60A      1.935159    61A      2.021963    62A      2.058694  
      63A      2.092888    64A      2.141083    65A      2.210843  
      66A      2.254621    67A      2.331894    68A      2.337952  
      69A      2.410916    70A      2.475711    71A      2.509822  
      72A      2.552625    73A      2.601100    74A      2.691286  
      75A      2.737703    76A      2.840775    77A      2.898074  
      78A      2.967488    79A      3.025253    80A      3.177995  
      81A      3.346362    82A      3.408304    83A      4.163039  
      84A      4.218070    85A      4.443183    86A      4.675692  
      87A      4.880602  

    Final Occupation by Irrep:
              A 
    DOCC [    20 ]

  @DF-RHF Final Energy:  -262.97189280030153

   => Energetics <=

    Nuclear Repulsion Energy =            176.2122273136986905
    One-Electron Energy =                -707.9725897270437827
    Two-Electron Energy =                 268.7884696130435600
    Total Energy =                       -262.9718928003015321

Computation Completed


Properties will be evaluated at   0.000000,   0.000000,   0.000000 [a0]

Properties computed using the SCF density matrix


 Multipole Moments:

 ------------------------------------------------------------------------------------
     Multipole            Electronic (a.u.)      Nuclear  (a.u.)        Total (a.u.)
 ------------------------------------------------------------------------------------

 L = 1.  Multiply by 2.5417464519 to convert [e a0] to [Debye]
 Dipole X            :         -1.8740049            1.6965274           -0.1774774
 Dipole Y            :          0.7590560           -1.9204571           -1.1614012
 Dipole Z            :         -2.4375709            4.0956841            1.6581132
 Magnitude           :                                                    2.0321640

 ------------------------------------------------------------------------------------

*** tstop() called on node165.bme.utexas.edu at Sat Nov 18 08:03:47 2023
Module time:
	user time   =       4.18 seconds =       0.07 minutes
	system time =       0.18 seconds =       0.00 minutes
	total time  =          1 seconds =       0.02 minutes
Total time:
	user time   =       4.18 seconds =       0.07 minutes
	system time =       0.18 seconds =       0.00 minutes
	total time  =          1 seconds =       0.02 minutes

*** tstart() called on node165.bme.utexas.edu
*** at Sat Nov 18 08:03:47 2023


  //>>>>>>>>>>>>>>>>>>>>>>>>>>>>>>>>>>>//
  //               DFMP2               //
  //<<<<<<<<<<<<<<<<<<<<<<<<<<<<<<<<<<<//

   => Loading Basis Set <=

    Name: (ANONYMOUS2804E6E0 AUX)
    Role: RIFIT
    Keyword: DF_BASIS_MP2
    atoms 1, 4 entry N          line   197 file /home/liuchw/anaconda3/envs/poltype2022/share/psi4/basis/cc-pvdz-ri.gbs 
    atoms 2-3  entry C          line   159 file /home/liuchw/anaconda3/envs/poltype2022/share/psi4/basis/cc-pvdz-ri.gbs 
    atoms 5    entry O          line   235 file /home/liuchw/anaconda3/envs/poltype2022/share/psi4/basis/cc-pvdz-ri.gbs 
    atoms 6-11 entry H          line    19 file /home/liuchw/anaconda3/envs/poltype2022/share/psi4/basis/cc-pvdz-ri.gbs 

	 --------------------------------------------------------
	                          DF-MP2                         
	      2nd-Order Density-Fitted Moller-Plesset Theory     
	              RMP2 Wavefunction,   5 Threads             
	                                                         
	        Rob Parrish, Justin Turney, Andy Simmonett,      
	           Ed Hohenstein, and C. David Sherrill          
	 --------------------------------------------------------

   => Auxiliary Basis Set <=

  Basis Set: (ANONYMOUS2804E6E0 AUX)
    Blend: CC-PVDZ-RI
    Number of shells: 126
    Number of basis functions: 364
    Number of Cartesian functions: 420
    Spherical Harmonics?: true
    Max angular momentum: 3

	 --------------------------------------------------------
	                 NBF =    87, NAUX =   364
	 --------------------------------------------------------
	   CLASS    FOCC     OCC    AOCC    AVIR     VIR    FVIR
	   PAIRS       0      20      20      67      67       0
	 --------------------------------------------------------

  DFHelper Memory: AOs need 0.035 GiB; user supplied 13.970 GiB. Using in-core AOs.


         ------------------------------------------------------------
                                     CPHF                           
                                  Rob Parrish                       
         ------------------------------------------------------------

  ==> Geometry <==

    Molecular point group: c1
    Full point group: C1

    Geometry (in Angstrom), charge = 0, multiplicity = 1:

       Center              X                  Y                   Z               Mass       
    ------------   -----------------  -----------------  -----------------  -----------------
         N           -1.759690908837    -0.562909053922     0.304943567669    14.003074004430
         C           -0.519490908837    -0.087709053922    -0.169856432331    12.000000000000
         C            0.689609091163    -0.249009053922     0.792143567669    12.000000000000
         N            1.881909091163     0.464990946078     0.286043567669    14.003074004430
         O           -0.348790908837     0.467590946078    -1.260056432331    15.994914619570
         H            0.911109091163    -1.321909053922     0.835443567669     1.007825032230
         H            0.433709091163     0.118090946078     1.791743567669     1.007825032230
         H           -2.600690908837    -0.485609053922    -0.284656432331     1.007825032230
         H           -1.824290908837    -0.987209053922     1.241243567669     1.007825032230
         H            2.443809091163     0.801490946078     1.081043567669     1.007825032230
         H            2.448209091163    -0.176109053922    -0.287656432331     1.007825032230

  Nuclear repulsion =  176.212227313698691
  Reference energy  = -262.971892800301532

  ==> Basis Set <==

  Basis Set: ANONYMOUS2804E6E0
    Blend: 6-31G*
    Number of shells: 42
    Number of basis functions: 87
    Number of Cartesian functions: 87
    Spherical Harmonics?: false
    Max angular momentum: 2

  ==> CGRSolver (by Rob Parrish) <==

   Number of roots    =         1
   Preconditioning    =    JACOBI
   Convergence cutoff =     1E-06
   Maximum iterations =       100

  ==> CPHFRHamiltonian (by Rob Parrish) <== 

  ==> MemDFJK: Density-Fitted J/K Matrices <==

    J tasked:                   Yes
    K tasked:                   Yes
    wK tasked:                   No
    OpenMP threads:               5
    Memory [MiB]:             14305
    Algorithm:                 Core
    Schwarz Cutoff:           1E-12
    Mask sparsity (%):       0.8720
    Fitting Condition:        1E-10

   => Auxiliary Basis Set <=

  Basis Set: (ANONYMOUS2804E6E0 AUX)
    Blend: CC-PVDZ-JKFIT
    Number of shells: 174
    Number of basis functions: 555
    Number of Cartesian functions: 555
    Spherical Harmonics?: false
    Max angular momentum: 3

  ==> CPHF Iterations <==

  => Iterations <=

             Iter  Converged  Remaining    Residual
  CGR           1          0          1   1.440E-01
  CGR           2          0          1   4.179E-02
  CGR           3          0          1   1.523E-02
  CGR           4          0          1   3.413E-03
  CGR           5          0          1   1.306E-03
  CGR           6          0          1   3.980E-04
  CGR           7          0          1   1.485E-04
  CGR           8          0          1   5.719E-05
  CGR           9          0          1   2.094E-05
  CGR          10          0          1   7.368E-06
  CGR          11          0          1   2.838E-06
  CGR          12          0          1   1.288E-06
  CGR          13          1          0   2.744E-07

    CGRSolver converged.

  ==> DFCorrGrad: Density-Fitted Correlated Gradients <==

    OpenMP threads:              5
    Integrals threads:           5
    Memory [GiB]:           13.970
    Schwarz Cutoff:          0E+00
    Fitting Condition:       1E-10

   => Auxiliary Basis Set <=

  Basis Set: (ANONYMOUS2804E6E0 AUX)
    Blend: CC-PVDZ-JKFIT
    Number of shells: 174
    Number of basis functions: 555
    Number of Cartesian functions: 555
    Spherical Harmonics?: false
    Max angular momentum: 3

	-----------------------------------------------------------
	 ==================> DF-MP2 Energies <==================== 
	-----------------------------------------------------------
	 Reference Energy          =    -262.9718928003015321 [Eh]
	 Singles Energy            =      -0.0000000000000000 [Eh]
	 Same-Spin Energy          =      -0.2028985225853729 [Eh]
	 Opposite-Spin Energy      =      -0.5787056244240495 [Eh]
	 Correlation Energy        =      -0.7816041470094224 [Eh]
	 Total Energy              =    -263.7534969473109641 [Eh]
	-----------------------------------------------------------
	 ================> DF-SCS-MP2 Energies <================== 
	-----------------------------------------------------------
	 SCS Same-Spin Scale       =       0.3333333333333333 [-]
	 SCS Opposite-Spin Scale   =       1.2000000000000000 [-]
	 SCS Same-Spin Energy      =      -0.0676328408617909 [Eh]
	 SCS Opposite-Spin Energy  =      -0.6944467493088594 [Eh]
	 SCS Correlation Energy    =      -0.7620795901706504 [Eh]
	 SCS Total Energy          =    -263.7339723904721609 [Eh]
	-----------------------------------------------------------


  -Total Gradient:
     Atom            X                  Y                   Z
    ------   -----------------  -----------------  -----------------
       1       -0.022235917821    -0.003327205757     0.001657593128
       2        0.004511360951    -0.014967170847     0.003447921650
       3       -0.005374050706     0.003265896590     0.012930670383
       4        0.005321260565     0.001575594544    -0.006776022827
       5        0.015203632418     0.015514924400    -0.013538401037
       6        0.006264605215     0.003801998887    -0.008753741903
       7        0.000833886183     0.002249313114     0.000895887055
       8       -0.015614739322     0.001096104250    -0.009603082370
       9        0.002084432530    -0.007036826403     0.017536399772
      10        0.003793393944     0.008143893697     0.010477865817
      11        0.005212136041    -0.010316522474    -0.008275089667


*** tstop() called on node165.bme.utexas.edu at Sat Nov 18 08:03:49 2023
Module time:
	user time   =       7.23 seconds =       0.12 minutes
	system time =       0.23 seconds =       0.00 minutes
	total time  =          2 seconds =       0.03 minutes
Total time:
	user time   =      11.41 seconds =       0.19 minutes
	system time =       0.41 seconds =       0.01 minutes
	total time  =          3 seconds =       0.05 minutes

  Measures of convergence in internal coordinates in au.                                        ~
  Criteria marked as inactive (o), active & met (*), and active & unmet ( ).                    ~
  --------------------------------------------------------------------------------------------- ~
   Step     Total Energy     Delta E     MAX Force     RMS Force      MAX Disp      RMS Disp    ~
  --------------------------------------------------------------------------------------------- ~
    Convergence Criteria    1.00e-04      2.50e-03      1.70e-03      1.00e-02      6.70e-03    ~
  --------------------------------------------------------------------------------------------- ~
      0  -2.63753497e+02    --------      2.56e-02      1.63e-02      --------      --------    ~
Scratch directory: /scratch/liuchw/Psi4-25_27_Index_0-farH_in17/
gradient() will perform analytic gradient computation.
    SCF Algorithm Type (re)set to DF.

*** tstart() called on node165.bme.utexas.edu
*** at Sat Nov 18 08:03:49 2023

   => Loading Basis Set <=

    Name: ANONYMOUS2804E6E0
    Role: ORBITAL
    Keyword: BASIS
    atoms 1, 4 entry N          line   128 file /home/liuchw/anaconda3/envs/poltype2022/share/psi4/basis/6-31gs.gbs 
    atoms 2-3  entry C          line   111 file /home/liuchw/anaconda3/envs/poltype2022/share/psi4/basis/6-31gs.gbs 
    atoms 5    entry O          line   145 file /home/liuchw/anaconda3/envs/poltype2022/share/psi4/basis/6-31gs.gbs 
    atoms 6-11 entry H          line    44 file /home/liuchw/anaconda3/envs/poltype2022/share/psi4/basis/6-31gs.gbs 


         ---------------------------------------------------------
                                   SCF
               by Justin Turney, Rob Parrish, Andy Simmonett
                          and Daniel G. A. Smith
                              RHF Reference
                        5 Threads,  19073 MiB Core
         ---------------------------------------------------------

  ==> Geometry <==

    Molecular point group: c1
    Full point group: C1

    Geometry (in Angstrom), charge = 0, multiplicity = 1:

       Center              X                  Y                   Z               Mass       
    ------------   -----------------  -----------------  -----------------  -----------------
         N           -1.652220306059    -0.543073007205     0.334919146284    14.003074004430
         C           -0.502494943065    -0.054420190924    -0.227171553431    12.000000000000
         C            0.652565796443    -0.260167320649     0.761526547602    12.000000000000
         N            1.844970215411     0.454961980163     0.309348722333    14.003074004430
         O           -0.415383447339     0.459881515464    -1.333938146273    15.994914619570
         H            0.816708101337    -1.345905835016     0.828802720793     1.007825032230
         H            0.365129489929     0.102811544901     1.752005749695     1.007825032230
         H           -2.494558564787    -0.487743614236    -0.219356617607     1.007825032230
         H           -1.671763125677    -0.946199449769     1.260153561945     1.007825032230
         H            2.382967191127     0.756741628021     1.116608750196     1.007825032230
         H            2.429479595489    -0.155186843936    -0.252519637165     1.007825032230

  Running in c1 symmetry.

  Rotational constants: A =      0.31891  B =      0.13081  C =      0.09574 [cm^-1]
  Rotational constants: A =   9560.58056  B =   3921.60971  C =   2870.27489 [MHz]
  Nuclear repulsion =  178.834522584468971

  Charge       = 0
  Multiplicity = 1
  Electrons    = 40
  Nalpha       = 20
  Nbeta        = 20

  ==> Algorithm <==

  SCF Algorithm Type is DF.
  DIIS enabled.
  MOM disabled.
  Fractional occupation disabled.
  Guess Type is SAD.
  Energy threshold   = 1.00e-10
  Density threshold  = 1.00e-10
  Integral threshold = 1.00e-12

  ==> Primary Basis <==

  Basis Set: ANONYMOUS2804E6E0
    Blend: 6-31G*
    Number of shells: 42
    Number of basis functions: 87
    Number of Cartesian functions: 87
    Spherical Harmonics?: false
    Max angular momentum: 2

   => Loading Basis Set <=

    Name: (ANONYMOUS2804E6E0 AUX)
    Role: JKFIT
    Keyword: DF_BASIS_SCF
    atoms 1, 4 entry N          line   171 file /home/liuchw/anaconda3/envs/poltype2022/share/psi4/basis/cc-pvdz-jkfit.gbs 
    atoms 2-3  entry C          line   121 file /home/liuchw/anaconda3/envs/poltype2022/share/psi4/basis/cc-pvdz-jkfit.gbs 
    atoms 5    entry O          line   221 file /home/liuchw/anaconda3/envs/poltype2022/share/psi4/basis/cc-pvdz-jkfit.gbs 
    atoms 6-11 entry H          line    51 file /home/liuchw/anaconda3/envs/poltype2022/share/psi4/basis/cc-pvdz-jkfit.gbs 

  ==> Integral Setup <==

  DFHelper Memory: AOs need 0.035 GiB; user supplied 13.970 GiB. Using in-core AOs.

  ==> MemDFJK: Density-Fitted J/K Matrices <==

    J tasked:                   Yes
    K tasked:                   Yes
    wK tasked:                   No
    OpenMP threads:               5
    Memory [MiB]:             14305
    Algorithm:                 Core
    Schwarz Cutoff:           1E-12
    Mask sparsity (%):       0.8456
    Fitting Condition:        1E-10

   => Auxiliary Basis Set <=

  Basis Set: (ANONYMOUS2804E6E0 AUX)
    Blend: CC-PVDZ-JKFIT
    Number of shells: 174
    Number of basis functions: 555
    Number of Cartesian functions: 555
    Spherical Harmonics?: false
    Max angular momentum: 3

  Minimum eigenvalue in the overlap matrix is 3.4262656429E-03.
  Reciprocal condition number of the overlap matrix is 4.9480511929E-04.
    Using symmetric orthogonalization.

  ==> Pre-Iterations <==

  SCF Guess: Superposition of Atomic Densities via on-the-fly atomic UHF (no occupation information).

   -------------------------
    Irrep   Nso     Nmo    
   -------------------------
     A         87      87 
   -------------------------
    Total      87      87
   -------------------------

  ==> Iterations <==

                           Total Energy        Delta E     RMS |[F,P]|

   @DF-RHF iter SAD:  -262.04918164820140   -2.62049e+02   0.00000e+00 
   @DF-RHF iter   1:  -262.79789948975440   -7.48718e-01   7.00004e-03 DIIS/ADIIS
   @DF-RHF iter   2:  -262.92417851054080   -1.26279e-01   4.46427e-03 DIIS/ADIIS
   @DF-RHF iter   3:  -262.97800649170347   -5.38280e-02   8.17270e-04 DIIS/ADIIS
   @DF-RHF iter   4:  -262.98061778809239   -2.61130e-03   3.05556e-04 DIIS/ADIIS
   @DF-RHF iter   5:  -262.98104322463945   -4.25437e-04   6.01331e-05 DIIS
   @DF-RHF iter   6:  -262.98107888256402   -3.56579e-05   2.79253e-05 DIIS
   @DF-RHF iter   7:  -262.98108666371758   -7.78115e-06   1.11146e-05 DIIS
   @DF-RHF iter   8:  -262.98108802462480   -1.36091e-06   3.50160e-06 DIIS
   @DF-RHF iter   9:  -262.98108816047534   -1.35851e-07   7.29602e-07 DIIS
   @DF-RHF iter  10:  -262.98108816561904   -5.14370e-09   2.35204e-07 DIIS
   @DF-RHF iter  11:  -262.98108816602542   -4.06374e-10   6.42804e-08 DIIS
   @DF-RHF iter  12:  -262.98108816605691   -3.14913e-11   1.58137e-08 DIIS
   @DF-RHF iter  13:  -262.98108816605918   -2.27374e-12   6.36308e-09 DIIS
   @DF-RHF iter  14:  -262.98108816605975   -5.68434e-13   2.05425e-09 DIIS
   @DF-RHF iter  15:  -262.98108816605924    5.11591e-13   5.94187e-10 DIIS
   @DF-RHF iter  16:  -262.98108816605941   -1.70530e-13   1.74356e-10 DIIS
   @DF-RHF iter  17:  -262.98108816605946   -5.68434e-14   4.33104e-11 DIIS
  Energy and wave function converged.


  ==> Post-Iterations <==

    Orbital Energies [Eh]
    ---------------------

    Doubly Occupied:                                                      

       1A    -20.521069     2A    -15.584971     3A    -15.547060  
       4A    -11.348130     5A    -11.270655     6A     -1.364781  
       7A     -1.208055     8A     -1.177744     9A     -0.949911  
      10A     -0.783373    11A     -0.717981    12A     -0.686804  
      13A     -0.658141    14A     -0.600165    15A     -0.572756  
      16A     -0.569273    17A     -0.513512    18A     -0.420593  
      19A     -0.405267    20A     -0.387813  

    Virtual:                                                              

      21A      0.201282    22A      0.209831    23A      0.218933  
      24A      0.278668    25A      0.287059    26A      0.308366  
      27A      0.363704    28A      0.392293    29A      0.461554  
      30A      0.518538    31A      0.542839    32A      0.764959  
      33A      0.780444    34A      0.808047    35A      0.838617  
      36A      0.887918    37A      0.911018    38A      0.946307  
      39A      0.983504    40A      0.994144    41A      1.005691  
      42A      1.079209    43A      1.099440    44A      1.131638  
      45A      1.151498    46A      1.169612    47A      1.188386  
      48A      1.211165    49A      1.219926    50A      1.236016  
      51A      1.355705    52A      1.400177    53A      1.409453  
      54A      1.574052    55A      1.607266    56A      1.651046  
      57A      1.673299    58A      1.736797    59A      1.863263  
      60A      1.935412    61A      2.026233    62A      2.069990  
      63A      2.106021    64A      2.146091    65A      2.219908  
      66A      2.264115    67A      2.334736    68A      2.343661  
      69A      2.428829    70A      2.513285    71A      2.533582  
      72A      2.584326    73A      2.639891    74A      2.710890  
      75A      2.742561    76A      2.868452    77A      2.944151  
      78A      2.998823    79A      3.039667    80A      3.229841  
      81A      3.375030    82A      3.453868    83A      4.179966  
      84A      4.252788    85A      4.459124    86A      4.714720  
      87A      4.921292  

    Final Occupation by Irrep:
              A 
    DOCC [    20 ]

  @DF-RHF Final Energy:  -262.98108816605946

   => Energetics <=

    Nuclear Repulsion Energy =            178.8345225844689708
    One-Electron Energy =                -713.0551109326868300
    Two-Electron Energy =                 271.2395001821584515
    Total Energy =                       -262.9810881660594646

Computation Completed


Properties will be evaluated at   0.000000,   0.000000,   0.000000 [a0]

Properties computed using the SCF density matrix


 Multipole Moments:

 ------------------------------------------------------------------------------------
     Multipole            Electronic (a.u.)      Nuclear  (a.u.)        Total (a.u.)
 ------------------------------------------------------------------------------------

 L = 1.  Multiply by 2.5417464519 to convert [e a0] to [Debye]
 Dipole X            :         -1.5407099            1.4259299           -0.1147801
 Dipole Y            :          0.5440977           -1.7021381           -1.1580405
 Dipole Z            :         -1.1695192            2.8916483            1.7221291
 Magnitude           :                                                    2.0784516

 ------------------------------------------------------------------------------------

*** tstop() called on node165.bme.utexas.edu at Sat Nov 18 08:03:50 2023
Module time:
	user time   =       4.11 seconds =       0.07 minutes
	system time =       0.13 seconds =       0.00 minutes
	total time  =          1 seconds =       0.02 minutes
Total time:
	user time   =      16.60 seconds =       0.28 minutes
	system time =       0.57 seconds =       0.01 minutes
	total time  =          4 seconds =       0.07 minutes

*** tstart() called on node165.bme.utexas.edu
*** at Sat Nov 18 08:03:50 2023


  //>>>>>>>>>>>>>>>>>>>>>>>>>>>>>>>>>>>//
  //               DFMP2               //
  //<<<<<<<<<<<<<<<<<<<<<<<<<<<<<<<<<<<//

   => Loading Basis Set <=

    Name: (ANONYMOUS2804E6E0 AUX)
    Role: RIFIT
    Keyword: DF_BASIS_MP2
    atoms 1, 4 entry N          line   197 file /home/liuchw/anaconda3/envs/poltype2022/share/psi4/basis/cc-pvdz-ri.gbs 
    atoms 2-3  entry C          line   159 file /home/liuchw/anaconda3/envs/poltype2022/share/psi4/basis/cc-pvdz-ri.gbs 
    atoms 5    entry O          line   235 file /home/liuchw/anaconda3/envs/poltype2022/share/psi4/basis/cc-pvdz-ri.gbs 
    atoms 6-11 entry H          line    19 file /home/liuchw/anaconda3/envs/poltype2022/share/psi4/basis/cc-pvdz-ri.gbs 

	 --------------------------------------------------------
	                          DF-MP2                         
	      2nd-Order Density-Fitted Moller-Plesset Theory     
	              RMP2 Wavefunction,   5 Threads             
	                                                         
	        Rob Parrish, Justin Turney, Andy Simmonett,      
	           Ed Hohenstein, and C. David Sherrill          
	 --------------------------------------------------------

   => Auxiliary Basis Set <=

  Basis Set: (ANONYMOUS2804E6E0 AUX)
    Blend: CC-PVDZ-RI
    Number of shells: 126
    Number of basis functions: 364
    Number of Cartesian functions: 420
    Spherical Harmonics?: true
    Max angular momentum: 3

	 --------------------------------------------------------
	                 NBF =    87, NAUX =   364
	 --------------------------------------------------------
	   CLASS    FOCC     OCC    AOCC    AVIR     VIR    FVIR
	   PAIRS       0      20      20      67      67       0
	 --------------------------------------------------------

  DFHelper Memory: AOs need 0.035 GiB; user supplied 13.970 GiB. Using in-core AOs.


         ------------------------------------------------------------
                                     CPHF                           
                                  Rob Parrish                       
         ------------------------------------------------------------

  ==> Geometry <==

    Molecular point group: c1
    Full point group: C1

    Geometry (in Angstrom), charge = 0, multiplicity = 1:

       Center              X                  Y                   Z               Mass       
    ------------   -----------------  -----------------  -----------------  -----------------
         N           -1.652220306059    -0.543073007205     0.334919146284    14.003074004430
         C           -0.502494943065    -0.054420190924    -0.227171553431    12.000000000000
         C            0.652565796443    -0.260167320649     0.761526547602    12.000000000000
         N            1.844970215411     0.454961980163     0.309348722333    14.003074004430
         O           -0.415383447339     0.459881515464    -1.333938146273    15.994914619570
         H            0.816708101337    -1.345905835016     0.828802720793     1.007825032230
         H            0.365129489929     0.102811544901     1.752005749695     1.007825032230
         H           -2.494558564787    -0.487743614236    -0.219356617607     1.007825032230
         H           -1.671763125677    -0.946199449769     1.260153561945     1.007825032230
         H            2.382967191127     0.756741628021     1.116608750196     1.007825032230
         H            2.429479595489    -0.155186843936    -0.252519637165     1.007825032230

  Nuclear repulsion =  178.834522584468971
  Reference energy  = -262.981088166059465

  ==> Basis Set <==

  Basis Set: ANONYMOUS2804E6E0
    Blend: 6-31G*
    Number of shells: 42
    Number of basis functions: 87
    Number of Cartesian functions: 87
    Spherical Harmonics?: false
    Max angular momentum: 2

  ==> CGRSolver (by Rob Parrish) <==

   Number of roots    =         1
   Preconditioning    =    JACOBI
   Convergence cutoff =     1E-06
   Maximum iterations =       100

  ==> CPHFRHamiltonian (by Rob Parrish) <== 

  ==> MemDFJK: Density-Fitted J/K Matrices <==

    J tasked:                   Yes
    K tasked:                   Yes
    wK tasked:                   No
    OpenMP threads:               5
    Memory [MiB]:             14305
    Algorithm:                 Core
    Schwarz Cutoff:           1E-12
    Mask sparsity (%):       0.8456
    Fitting Condition:        1E-10

   => Auxiliary Basis Set <=

  Basis Set: (ANONYMOUS2804E6E0 AUX)
    Blend: CC-PVDZ-JKFIT
    Number of shells: 174
    Number of basis functions: 555
    Number of Cartesian functions: 555
    Spherical Harmonics?: false
    Max angular momentum: 3

  ==> CPHF Iterations <==

  => Iterations <=

             Iter  Converged  Remaining    Residual
  CGR           1          0          1   1.400E-01
  CGR           2          0          1   3.905E-02
  CGR           3          0          1   1.442E-02
  CGR           4          0          1   3.055E-03
  CGR           5          0          1   1.151E-03
  CGR           6          0          1   3.327E-04
  CGR           7          0          1   1.145E-04
  CGR           8          0          1   3.924E-05
  CGR           9          0          1   1.314E-05
  CGR          10          0          1   4.583E-06
  CGR          11          0          1   1.598E-06
  CGR          12          1          0   5.098E-07

    CGRSolver converged.

  ==> DFCorrGrad: Density-Fitted Correlated Gradients <==

    OpenMP threads:              5
    Integrals threads:           5
    Memory [GiB]:           13.970
    Schwarz Cutoff:          0E+00
    Fitting Condition:       1E-10

   => Auxiliary Basis Set <=

  Basis Set: (ANONYMOUS2804E6E0 AUX)
    Blend: CC-PVDZ-JKFIT
    Number of shells: 174
    Number of basis functions: 555
    Number of Cartesian functions: 555
    Spherical Harmonics?: false
    Max angular momentum: 3

	-----------------------------------------------------------
	 ==================> DF-MP2 Energies <==================== 
	-----------------------------------------------------------
	 Reference Energy          =    -262.9810881660594646 [Eh]
	 Singles Energy            =      -0.0000000000000000 [Eh]
	 Same-Spin Energy          =      -0.2024261457844477 [Eh]
	 Opposite-Spin Energy      =      -0.5750260070896308 [Eh]
	 Correlation Energy        =      -0.7774521528740785 [Eh]
	 Total Energy              =    -263.7585403189335693 [Eh]
	-----------------------------------------------------------
	 ================> DF-SCS-MP2 Energies <================== 
	-----------------------------------------------------------
	 SCS Same-Spin Scale       =       0.3333333333333333 [-]
	 SCS Opposite-Spin Scale   =       1.2000000000000000 [-]
	 SCS Same-Spin Energy      =      -0.0674753819281492 [Eh]
	 SCS Opposite-Spin Energy  =      -0.6900312085075569 [Eh]
	 SCS Correlation Energy    =      -0.7575065904357062 [Eh]
	 SCS Total Energy          =    -263.7385947564951607 [Eh]
	-----------------------------------------------------------


  -Total Gradient:
     Atom            X                  Y                   Z
    ------   -----------------  -----------------  -----------------
       1        0.005087654847    -0.003735779440     0.013675417987
       2       -0.002850495581     0.000882398183    -0.018632372354
       3       -0.014248248090    -0.003618266391     0.016691563483
       4        0.003548803374    -0.001758072020    -0.006523571844
       5        0.002873462767     0.004971812745    -0.003173964414
       6        0.002067209711     0.000991417350    -0.004357506454
       7        0.001842397655     0.000008025590     0.000735792641
       8        0.003345461426     0.002285899423    -0.002969977589
       9        0.002152713888    -0.000628113600     0.002339576786
      10       -0.003060863353     0.002229364774     0.001548185837
      11       -0.000758096645    -0.001628686615     0.000666855918


*** tstop() called on node165.bme.utexas.edu at Sat Nov 18 08:03:51 2023
Module time:
	user time   =       6.60 seconds =       0.11 minutes
	system time =       0.21 seconds =       0.00 minutes
	total time  =          1 seconds =       0.02 minutes
Total time:
	user time   =      23.21 seconds =       0.39 minutes
	system time =       0.78 seconds =       0.01 minutes
	total time  =          5 seconds =       0.08 minutes

      1  -2.63758540e+02   -5.04e-03      2.22e-02      1.07e-02      1.59e-01      9.43e-02    ~
Scratch directory: /scratch/liuchw/Psi4-25_27_Index_0-farH_in17/
gradient() will perform analytic gradient computation.
    SCF Algorithm Type (re)set to DF.

*** tstart() called on node165.bme.utexas.edu
*** at Sat Nov 18 08:03:51 2023

   => Loading Basis Set <=

    Name: ANONYMOUS2804E6E0
    Role: ORBITAL
    Keyword: BASIS
    atoms 1, 4 entry N          line   128 file /home/liuchw/anaconda3/envs/poltype2022/share/psi4/basis/6-31gs.gbs 
    atoms 2-3  entry C          line   111 file /home/liuchw/anaconda3/envs/poltype2022/share/psi4/basis/6-31gs.gbs 
    atoms 5    entry O          line   145 file /home/liuchw/anaconda3/envs/poltype2022/share/psi4/basis/6-31gs.gbs 
    atoms 6-11 entry H          line    44 file /home/liuchw/anaconda3/envs/poltype2022/share/psi4/basis/6-31gs.gbs 


         ---------------------------------------------------------
                                   SCF
               by Justin Turney, Rob Parrish, Andy Simmonett
                          and Daniel G. A. Smith
                              RHF Reference
                        5 Threads,  19073 MiB Core
         ---------------------------------------------------------

  ==> Geometry <==

    Molecular point group: c1
    Full point group: C1

    Geometry (in Angstrom), charge = 0, multiplicity = 1:

       Center              X                  Y                   Z               Mass       
    ------------   -----------------  -----------------  -----------------  -----------------
         N           -1.697184883672    -0.532830123020     0.304004359213    14.003074004430
         C           -0.503762248991    -0.073320450419    -0.138993419867    12.000000000000
         C            0.700253735373    -0.268936239113     0.780692723304    12.000000000000
         N            1.850530658865     0.480565163853     0.303940682502    14.003074004430
         O           -0.427334794625     0.388053504505    -1.261193936461    15.994914619570
         H            0.847487721712    -1.357872105549     0.877092677706     1.007825032230
         H            0.436730087872     0.093168908377     1.776908398270     1.007825032230
         H           -2.500447827268    -0.477649113753    -0.291334864514     1.007825032230
         H           -1.807026869839    -0.936291731171     1.209593121564     1.007825032230
         H            2.436550456251     0.744002415943     1.081997587158     1.007825032230
         H            2.419603967242    -0.077189822892    -0.312328084418     1.007825032230

  Running in c1 symmetry.

  Rotational constants: A =      0.34785  B =      0.12644  C =      0.09567 [cm^-1]
  Rotational constants: A =  10428.20256  B =   3790.53262  C =   2868.17839 [MHz]
  Nuclear repulsion =  179.648829713503318

  Charge       = 0
  Multiplicity = 1
  Electrons    = 40
  Nalpha       = 20
  Nbeta        = 20

  ==> Algorithm <==

  SCF Algorithm Type is DF.
  DIIS enabled.
  MOM disabled.
  Fractional occupation disabled.
  Guess Type is SAD.
  Energy threshold   = 1.00e-10
  Density threshold  = 1.00e-10
  Integral threshold = 1.00e-12

  ==> Primary Basis <==

  Basis Set: ANONYMOUS2804E6E0
    Blend: 6-31G*
    Number of shells: 42
    Number of basis functions: 87
    Number of Cartesian functions: 87
    Spherical Harmonics?: false
    Max angular momentum: 2

   => Loading Basis Set <=

    Name: (ANONYMOUS2804E6E0 AUX)
    Role: JKFIT
    Keyword: DF_BASIS_SCF
    atoms 1, 4 entry N          line   171 file /home/liuchw/anaconda3/envs/poltype2022/share/psi4/basis/cc-pvdz-jkfit.gbs 
    atoms 2-3  entry C          line   121 file /home/liuchw/anaconda3/envs/poltype2022/share/psi4/basis/cc-pvdz-jkfit.gbs 
    atoms 5    entry O          line   221 file /home/liuchw/anaconda3/envs/poltype2022/share/psi4/basis/cc-pvdz-jkfit.gbs 
    atoms 6-11 entry H          line    51 file /home/liuchw/anaconda3/envs/poltype2022/share/psi4/basis/cc-pvdz-jkfit.gbs 

  ==> Integral Setup <==

  DFHelper Memory: AOs need 0.035 GiB; user supplied 13.970 GiB. Using in-core AOs.

  ==> MemDFJK: Density-Fitted J/K Matrices <==

    J tasked:                   Yes
    K tasked:                   Yes
    wK tasked:                   No
    OpenMP threads:               5
    Memory [MiB]:             14305
    Algorithm:                 Core
    Schwarz Cutoff:           1E-12
    Mask sparsity (%):       0.8456
    Fitting Condition:        1E-10

   => Auxiliary Basis Set <=

  Basis Set: (ANONYMOUS2804E6E0 AUX)
    Blend: CC-PVDZ-JKFIT
    Number of shells: 174
    Number of basis functions: 555
    Number of Cartesian functions: 555
    Spherical Harmonics?: false
    Max angular momentum: 3

  Minimum eigenvalue in the overlap matrix is 3.5145656656E-03.
  Reciprocal condition number of the overlap matrix is 5.0750140941E-04.
    Using symmetric orthogonalization.

  ==> Pre-Iterations <==

  SCF Guess: Superposition of Atomic Densities via on-the-fly atomic UHF (no occupation information).

   -------------------------
    Irrep   Nso     Nmo    
   -------------------------
     A         87      87 
   -------------------------
    Total      87      87
   -------------------------

  ==> Iterations <==

                           Total Energy        Delta E     RMS |[F,P]|

   @DF-RHF iter SAD:  -262.13159487594658   -2.62132e+02   0.00000e+00 
   @DF-RHF iter   1:  -262.79929418331193   -6.67699e-01   7.06971e-03 DIIS/ADIIS
   @DF-RHF iter   2:  -262.92785319235389   -1.28559e-01   4.48788e-03 DIIS/ADIIS
   @DF-RHF iter   3:  -262.98206498219145   -5.42118e-02   7.98801e-04 DIIS/ADIIS
   @DF-RHF iter   4:  -262.98462362250882   -2.55864e-03   3.00882e-04 DIIS/ADIIS
   @DF-RHF iter   5:  -262.98503376054634   -4.10138e-04   5.93842e-05 DIIS
   @DF-RHF iter   6:  -262.98506904652277   -3.52860e-05   2.79401e-05 DIIS
   @DF-RHF iter   7:  -262.98507652891811   -7.48240e-06   1.10648e-05 DIIS
   @DF-RHF iter   8:  -262.98507782599393   -1.29708e-06   3.42048e-06 DIIS
   @DF-RHF iter   9:  -262.98507795209190   -1.26098e-07   6.60232e-07 DIIS
   @DF-RHF iter  10:  -262.98507795634640   -4.25450e-09   1.96775e-07 DIIS
   @DF-RHF iter  11:  -262.98507795662698   -2.80579e-10   5.58335e-08 DIIS
   @DF-RHF iter  12:  -262.98507795665120   -2.42153e-11   1.42033e-08 DIIS
   @DF-RHF iter  13:  -262.98507795665273   -1.53477e-12   5.23069e-09 DIIS
   @DF-RHF iter  14:  -262.98507795665284   -1.13687e-13   1.80462e-09 DIIS
   @DF-RHF iter  15:  -262.98507795665296   -1.13687e-13   5.17313e-10 DIIS
   @DF-RHF iter  16:  -262.98507795665330   -3.41061e-13   1.76047e-10 DIIS
   @DF-RHF iter  17:  -262.98507795665296    3.41061e-13   6.36110e-11 DIIS
  Energy and wave function converged.


  ==> Post-Iterations <==

    Orbital Energies [Eh]
    ---------------------

    Doubly Occupied:                                                      

       1A    -20.509254     2A    -15.579377     3A    -15.548599  
       4A    -11.341203     5A    -11.273474     6A     -1.369097  
       7A     -1.203256     8A     -1.184741     9A     -0.955110  
      10A     -0.786445    11A     -0.719733    12A     -0.688120  
      13A     -0.659843    14A     -0.601484    15A     -0.579154  
      16A     -0.567784    17A     -0.514007    18A     -0.416789  
      19A     -0.399225    20A     -0.390784  

    Virtual:                                                              

      21A      0.207454    22A      0.213714    23A      0.221994  
      24A      0.281115    25A      0.289738    26A      0.304627  
      27A      0.357964    28A      0.400269    29A      0.455017  
      30A      0.530146    31A      0.552125    32A      0.754594  
      33A      0.768787    34A      0.814637    35A      0.844774  
      36A      0.880319    37A      0.925746    38A      0.953109  
      39A      0.981061    40A      0.999308    41A      1.011469  
      42A      1.081335    43A      1.112218    44A      1.128320  
      45A      1.155613    46A      1.175064    47A      1.199118  
      48A      1.206921    49A      1.219855    50A      1.239051  
      51A      1.360058    52A      1.397885    53A      1.421656  
      54A      1.566214    55A      1.606006    56A      1.648083  
      57A      1.688329    58A      1.756375    59A      1.858528  
      60A      1.935180    61A      2.026507    62A      2.069161  
      63A      2.114843    64A      2.161029    65A      2.212927  
      66A      2.253286    67A      2.329990    68A      2.363178  
      69A      2.435934    70A      2.506912    71A      2.533390  
      72A      2.612583    73A      2.659236    74A      2.730732  
      75A      2.777081    76A      2.879197    77A      2.938560  
      78A      2.987168    79A      3.059252    80A      3.242905  
      81A      3.387317    82A      3.485943    83A      4.186097  
      84A      4.254327    85A      4.463643    86A      4.666196  
      87A      4.906213  

    Final Occupation by Irrep:
              A 
    DOCC [    20 ]

  @DF-RHF Final Energy:  -262.98507795665296

   => Energetics <=

    Nuclear Repulsion Energy =            179.6488297135033179
    One-Electron Energy =                -714.6928579155775196
    Two-Electron Energy =                 272.0589502454212152
    Total Energy =                       -262.9850779566529582

Computation Completed


Properties will be evaluated at   0.000000,   0.000000,   0.000000 [a0]

Properties computed using the SCF density matrix


 Multipole Moments:

 ------------------------------------------------------------------------------------
     Multipole            Electronic (a.u.)      Nuclear  (a.u.)        Total (a.u.)
 ------------------------------------------------------------------------------------

 L = 1.  Multiply by 2.5417464519 to convert [e a0] to [Debye]
 Dipole X            :         -1.3245988            1.2596697           -0.0649290
 Dipole Y            :          1.3893750           -2.5072853           -1.1179104
 Dipole Z            :         -2.7823364            4.4563303            1.6739939
 Magnitude           :                                                    2.0139998

 ------------------------------------------------------------------------------------

*** tstop() called on node165.bme.utexas.edu at Sat Nov 18 08:03:53 2023
Module time:
	user time   =       4.48 seconds =       0.07 minutes
	system time =       0.20 seconds =       0.00 minutes
	total time  =          2 seconds =       0.03 minutes
Total time:
	user time   =      28.24 seconds =       0.47 minutes
	system time =       0.99 seconds =       0.02 minutes
	total time  =          7 seconds =       0.12 minutes

*** tstart() called on node165.bme.utexas.edu
*** at Sat Nov 18 08:03:53 2023


  //>>>>>>>>>>>>>>>>>>>>>>>>>>>>>>>>>>>//
  //               DFMP2               //
  //<<<<<<<<<<<<<<<<<<<<<<<<<<<<<<<<<<<//

   => Loading Basis Set <=

    Name: (ANONYMOUS2804E6E0 AUX)
    Role: RIFIT
    Keyword: DF_BASIS_MP2
    atoms 1, 4 entry N          line   197 file /home/liuchw/anaconda3/envs/poltype2022/share/psi4/basis/cc-pvdz-ri.gbs 
    atoms 2-3  entry C          line   159 file /home/liuchw/anaconda3/envs/poltype2022/share/psi4/basis/cc-pvdz-ri.gbs 
    atoms 5    entry O          line   235 file /home/liuchw/anaconda3/envs/poltype2022/share/psi4/basis/cc-pvdz-ri.gbs 
    atoms 6-11 entry H          line    19 file /home/liuchw/anaconda3/envs/poltype2022/share/psi4/basis/cc-pvdz-ri.gbs 

	 --------------------------------------------------------
	                          DF-MP2                         
	      2nd-Order Density-Fitted Moller-Plesset Theory     
	              RMP2 Wavefunction,   5 Threads             
	                                                         
	        Rob Parrish, Justin Turney, Andy Simmonett,      
	           Ed Hohenstein, and C. David Sherrill          
	 --------------------------------------------------------

   => Auxiliary Basis Set <=

  Basis Set: (ANONYMOUS2804E6E0 AUX)
    Blend: CC-PVDZ-RI
    Number of shells: 126
    Number of basis functions: 364
    Number of Cartesian functions: 420
    Spherical Harmonics?: true
    Max angular momentum: 3

	 --------------------------------------------------------
	                 NBF =    87, NAUX =   364
	 --------------------------------------------------------
	   CLASS    FOCC     OCC    AOCC    AVIR     VIR    FVIR
	   PAIRS       0      20      20      67      67       0
	 --------------------------------------------------------

  DFHelper Memory: AOs need 0.035 GiB; user supplied 13.970 GiB. Using in-core AOs.


         ------------------------------------------------------------
                                     CPHF                           
                                  Rob Parrish                       
         ------------------------------------------------------------

  ==> Geometry <==

    Molecular point group: c1
    Full point group: C1

    Geometry (in Angstrom), charge = 0, multiplicity = 1:

       Center              X                  Y                   Z               Mass       
    ------------   -----------------  -----------------  -----------------  -----------------
         N           -1.697184883672    -0.532830123020     0.304004359213    14.003074004430
         C           -0.503762248991    -0.073320450419    -0.138993419867    12.000000000000
         C            0.700253735373    -0.268936239113     0.780692723304    12.000000000000
         N            1.850530658865     0.480565163853     0.303940682502    14.003074004430
         O           -0.427334794625     0.388053504505    -1.261193936461    15.994914619570
         H            0.847487721712    -1.357872105549     0.877092677706     1.007825032230
         H            0.436730087872     0.093168908377     1.776908398270     1.007825032230
         H           -2.500447827268    -0.477649113753    -0.291334864514     1.007825032230
         H           -1.807026869839    -0.936291731171     1.209593121564     1.007825032230
         H            2.436550456251     0.744002415943     1.081997587158     1.007825032230
         H            2.419603967242    -0.077189822892    -0.312328084418     1.007825032230

  Nuclear repulsion =  179.648829713503318
  Reference energy  = -262.985077956652958

  ==> Basis Set <==

  Basis Set: ANONYMOUS2804E6E0
    Blend: 6-31G*
    Number of shells: 42
    Number of basis functions: 87
    Number of Cartesian functions: 87
    Spherical Harmonics?: false
    Max angular momentum: 2

  ==> CGRSolver (by Rob Parrish) <==

   Number of roots    =         1
   Preconditioning    =    JACOBI
   Convergence cutoff =     1E-06
   Maximum iterations =       100

  ==> CPHFRHamiltonian (by Rob Parrish) <== 

  ==> MemDFJK: Density-Fitted J/K Matrices <==

    J tasked:                   Yes
    K tasked:                   Yes
    wK tasked:                   No
    OpenMP threads:               5
    Memory [MiB]:             14305
    Algorithm:                 Core
    Schwarz Cutoff:           1E-12
    Mask sparsity (%):       0.8456
    Fitting Condition:        1E-10

   => Auxiliary Basis Set <=

  Basis Set: (ANONYMOUS2804E6E0 AUX)
    Blend: CC-PVDZ-JKFIT
    Number of shells: 174
    Number of basis functions: 555
    Number of Cartesian functions: 555
    Spherical Harmonics?: false
    Max angular momentum: 3

  ==> CPHF Iterations <==

  => Iterations <=

             Iter  Converged  Remaining    Residual
  CGR           1          0          1   1.373E-01
  CGR           2          0          1   3.725E-02
  CGR           3          0          1   1.381E-02
  CGR           4          0          1   2.919E-03
  CGR           5          0          1   1.141E-03
  CGR           6          0          1   3.397E-04
  CGR           7          0          1   1.096E-04
  CGR           8          0          1   3.375E-05
  CGR           9          0          1   1.081E-05
  CGR          10          0          1   3.811E-06
  CGR          11          0          1   1.426E-06
  CGR          12          1          0   4.850E-07

    CGRSolver converged.

  ==> DFCorrGrad: Density-Fitted Correlated Gradients <==

    OpenMP threads:              5
    Integrals threads:           5
    Memory [GiB]:           13.970
    Schwarz Cutoff:          0E+00
    Fitting Condition:       1E-10

   => Auxiliary Basis Set <=

  Basis Set: (ANONYMOUS2804E6E0 AUX)
    Blend: CC-PVDZ-JKFIT
    Number of shells: 174
    Number of basis functions: 555
    Number of Cartesian functions: 555
    Spherical Harmonics?: false
    Max angular momentum: 3

	-----------------------------------------------------------
	 ==================> DF-MP2 Energies <==================== 
	-----------------------------------------------------------
	 Reference Energy          =    -262.9850779566529582 [Eh]
	 Singles Energy            =      -0.0000000000000000 [Eh]
	 Same-Spin Energy          =      -0.2016519609106481 [Eh]
	 Opposite-Spin Energy      =      -0.5723358216080423 [Eh]
	 Correlation Energy        =      -0.7739877825186904 [Eh]
	 Total Energy              =    -263.7590657391716604 [Eh]
	-----------------------------------------------------------
	 ================> DF-SCS-MP2 Energies <================== 
	-----------------------------------------------------------
	 SCS Same-Spin Scale       =       0.3333333333333333 [-]
	 SCS Opposite-Spin Scale   =       1.2000000000000000 [-]
	 SCS Same-Spin Energy      =      -0.0672173203035493 [Eh]
	 SCS Opposite-Spin Energy  =      -0.6868029859296507 [Eh]
	 SCS Correlation Energy    =      -0.7540203062332000 [Eh]
	 SCS Total Energy          =    -263.7390982628861593 [Eh]
	-----------------------------------------------------------


  -Total Gradient:
     Atom            X                  Y                   Z
    ------   -----------------  -----------------  -----------------
       1        0.000502546866     0.006198670570    -0.017948165811
       2       -0.001525260992     0.003232912656     0.007710876819
       3        0.004852129569    -0.000822880758    -0.001077311452
       4        0.006002356420    -0.001458439199    -0.002510098139
       5       -0.010854889732    -0.011473438766     0.018563943974
       6       -0.001926533651    -0.000627612205    -0.000457940943
       7        0.001097086364    -0.000421254083    -0.002363670751
       8        0.003745710597    -0.001814459874     0.006600245307
       9        0.003210749977     0.004278899621    -0.010580113040
      10       -0.003566811540    -0.000238674527    -0.005232742344
      11       -0.001537083878     0.003146276564     0.007294976380


*** tstop() called on node165.bme.utexas.edu at Sat Nov 18 08:03:54 2023
Module time:
	user time   =       5.20 seconds =       0.09 minutes
	system time =       0.16 seconds =       0.00 minutes
	total time  =          1 seconds =       0.02 minutes
Total time:
	user time   =      33.45 seconds =       0.56 minutes
	system time =       1.15 seconds =       0.02 minutes
	total time  =          8 seconds =       0.13 minutes

      2  -2.63759066e+02   -5.25e-04      2.44e-02      1.13e-02      1.46e-01      8.24e-02    ~
Scratch directory: /scratch/liuchw/Psi4-25_27_Index_0-farH_in17/
gradient() will perform analytic gradient computation.
    SCF Algorithm Type (re)set to DF.

*** tstart() called on node165.bme.utexas.edu
*** at Sat Nov 18 08:03:54 2023

   => Loading Basis Set <=

    Name: ANONYMOUS2804E6E0
    Role: ORBITAL
    Keyword: BASIS
    atoms 1, 4 entry N          line   128 file /home/liuchw/anaconda3/envs/poltype2022/share/psi4/basis/6-31gs.gbs 
    atoms 2-3  entry C          line   111 file /home/liuchw/anaconda3/envs/poltype2022/share/psi4/basis/6-31gs.gbs 
    atoms 5    entry O          line   145 file /home/liuchw/anaconda3/envs/poltype2022/share/psi4/basis/6-31gs.gbs 
    atoms 6-11 entry H          line    44 file /home/liuchw/anaconda3/envs/poltype2022/share/psi4/basis/6-31gs.gbs 


         ---------------------------------------------------------
                                   SCF
               by Justin Turney, Rob Parrish, Andy Simmonett
                          and Daniel G. A. Smith
                              RHF Reference
                        5 Threads,  19073 MiB Core
         ---------------------------------------------------------

  ==> Geometry <==

    Molecular point group: c1
    Full point group: C1

    Geometry (in Angstrom), charge = 0, multiplicity = 1:

       Center              X                  Y                   Z               Mass       
    ------------   -----------------  -----------------  -----------------  -----------------
         N           -1.694322194866    -0.540299685229     0.323304195686    14.003074004430
         C           -0.502163860606    -0.071351320091    -0.168735477025    12.000000000000
         C            0.688864230039    -0.262654206980     0.772767007786    12.000000000000
         N            1.851181133493     0.485261087269     0.318252669444    14.003074004430
         O           -0.396635085120     0.393677672828    -1.296843425623    15.994914619570
         H            0.845271215111    -1.350040395557     0.863372180134     1.007825032230
         H            0.408985818559     0.091622711179     1.770036403372     1.007825032230
         H           -2.502357974738    -0.491272673304    -0.280640488180     1.007825032230
         H           -1.798971908748    -0.927301732312     1.248970857831     1.007825032230
         H            2.446006836724     0.716271867293     1.108575361547     1.007825032230
         H            2.409541793062    -0.062212918338    -0.328680040487     1.007825032230

  Running in c1 symmetry.

  Rotational constants: A =      0.33481  B =      0.12711  C =      0.09502 [cm^-1]
  Rotational constants: A =  10037.36752  B =   3810.52451  C =   2848.70964 [MHz]
  Nuclear repulsion =  178.670092557517023

  Charge       = 0
  Multiplicity = 1
  Electrons    = 40
  Nalpha       = 20
  Nbeta        = 20

  ==> Algorithm <==

  SCF Algorithm Type is DF.
  DIIS enabled.
  MOM disabled.
  Fractional occupation disabled.
  Guess Type is SAD.
  Energy threshold   = 1.00e-10
  Density threshold  = 1.00e-10
  Integral threshold = 1.00e-12

  ==> Primary Basis <==

  Basis Set: ANONYMOUS2804E6E0
    Blend: 6-31G*
    Number of shells: 42
    Number of basis functions: 87
    Number of Cartesian functions: 87
    Spherical Harmonics?: false
    Max angular momentum: 2

   => Loading Basis Set <=

    Name: (ANONYMOUS2804E6E0 AUX)
    Role: JKFIT
    Keyword: DF_BASIS_SCF
    atoms 1, 4 entry N          line   171 file /home/liuchw/anaconda3/envs/poltype2022/share/psi4/basis/cc-pvdz-jkfit.gbs 
    atoms 2-3  entry C          line   121 file /home/liuchw/anaconda3/envs/poltype2022/share/psi4/basis/cc-pvdz-jkfit.gbs 
    atoms 5    entry O          line   221 file /home/liuchw/anaconda3/envs/poltype2022/share/psi4/basis/cc-pvdz-jkfit.gbs 
    atoms 6-11 entry H          line    51 file /home/liuchw/anaconda3/envs/poltype2022/share/psi4/basis/cc-pvdz-jkfit.gbs 

  ==> Integral Setup <==

  DFHelper Memory: AOs need 0.035 GiB; user supplied 13.970 GiB. Using in-core AOs.

  ==> MemDFJK: Density-Fitted J/K Matrices <==

    J tasked:                   Yes
    K tasked:                   Yes
    wK tasked:                   No
    OpenMP threads:               5
    Memory [MiB]:             14305
    Algorithm:                 Core
    Schwarz Cutoff:           1E-12
    Mask sparsity (%):       0.8456
    Fitting Condition:        1E-10

   => Auxiliary Basis Set <=

  Basis Set: (ANONYMOUS2804E6E0 AUX)
    Blend: CC-PVDZ-JKFIT
    Number of shells: 174
    Number of basis functions: 555
    Number of Cartesian functions: 555
    Spherical Harmonics?: false
    Max angular momentum: 3

  Minimum eigenvalue in the overlap matrix is 3.6245572402E-03.
  Reciprocal condition number of the overlap matrix is 5.2588788913E-04.
    Using symmetric orthogonalization.

  ==> Pre-Iterations <==

  SCF Guess: Superposition of Atomic Densities via on-the-fly atomic UHF (no occupation information).

   -------------------------
    Irrep   Nso     Nmo    
   -------------------------
     A         87      87 
   -------------------------
    Total      87      87
   -------------------------

  ==> Iterations <==

                           Total Energy        Delta E     RMS |[F,P]|

   @DF-RHF iter SAD:  -262.04010370139406   -2.62040e+02   0.00000e+00 
   @DF-RHF iter   1:  -262.80003022066370   -7.59927e-01   7.03157e-03 DIIS/ADIIS
   @DF-RHF iter   2:  -262.92646931659669   -1.26439e-01   4.52060e-03 DIIS/ADIIS
   @DF-RHF iter   3:  -262.98163293500789   -5.51636e-02   8.13750e-04 DIIS/ADIIS
   @DF-RHF iter   4:  -262.98426597130805   -2.63304e-03   3.05090e-04 DIIS/ADIIS
   @DF-RHF iter   5:  -262.98469272896335   -4.26758e-04   6.04953e-05 DIIS
   @DF-RHF iter   6:  -262.98472914915703   -3.64202e-05   2.82655e-05 DIIS
   @DF-RHF iter   7:  -262.98473700189004   -7.85273e-06   1.12677e-05 DIIS
   @DF-RHF iter   8:  -262.98473837857352   -1.37668e-06   3.55687e-06 DIIS
   @DF-RHF iter   9:  -262.98473851808996   -1.39516e-07   7.39347e-07 DIIS
   @DF-RHF iter  10:  -262.98473852322712   -5.13717e-09   2.45014e-07 DIIS
   @DF-RHF iter  11:  -262.98473852365601   -4.28884e-10   7.00883e-08 DIIS
   @DF-RHF iter  12:  -262.98473852369193   -3.59250e-11   1.72865e-08 DIIS
   @DF-RHF iter  13:  -262.98473852369449   -2.55795e-12   6.73036e-09 DIIS
   @DF-RHF iter  14:  -262.98473852369517   -6.82121e-13   2.20838e-09 DIIS
   @DF-RHF iter  15:  -262.98473852369477    3.97904e-13   6.38000e-10 DIIS
   @DF-RHF iter  16:  -262.98473852369472    5.68434e-14   1.87377e-10 DIIS
   @DF-RHF iter  17:  -262.98473852369483   -1.13687e-13   5.12361e-11 DIIS
  Energy and wave function converged.


  ==> Post-Iterations <==

    Orbital Energies [Eh]
    ---------------------

    Doubly Occupied:                                                      

       1A    -20.516664     2A    -15.584628     3A    -15.548913  
       4A    -11.347851     5A    -11.272439     6A     -1.364177  
       7A     -1.201464     8A     -1.180546     9A     -0.952321  
      10A     -0.783083    11A     -0.716362    12A     -0.685724  
      13A     -0.656974    14A     -0.601602    15A     -0.576298  
      16A     -0.566695    17A     -0.512296    18A     -0.418747  
      19A     -0.402619    20A     -0.389978  

    Virtual:                                                              

      21A      0.203136    22A      0.211304    23A      0.220543  
      24A      0.279423    25A      0.289304    26A      0.303424  
      27A      0.356524    28A      0.397871    29A      0.455037  
      30A      0.522536    31A      0.547188    32A      0.759892  
      33A      0.771702    34A      0.811327    35A      0.840026  
      36A      0.882173    37A      0.914627    38A      0.946882  
      39A      0.978308    40A      0.996215    41A      1.006644  
      42A      1.079098    43A      1.106683    44A      1.129111  
      45A      1.152038    46A      1.174136    47A      1.189812  
      48A      1.203977    49A      1.216479    50A      1.232746  
      51A      1.356890    52A      1.394487    53A      1.421148  
      54A      1.564227    55A      1.600303    56A      1.649615  
      57A      1.682561    58A      1.750119    59A      1.857839  
      60A      1.936698    61A      2.033813    62A      2.060893  
      63A      2.107483    64A      2.153443    65A      2.210713  
      66A      2.247538    67A      2.321558    68A      2.345109  
      69A      2.430268    70A      2.506490    71A      2.525425  
      72A      2.601031    73A      2.632298    74A      2.719104  
      75A      2.764239    76A      2.861864    77A      2.928183  
      78A      2.981957    79A      3.053636    80A      3.227753  
      81A      3.373191    82A      3.455673    83A      4.179473  
      84A      4.243290    85A      4.455430    86A      4.677539  
      87A      4.905743  

    Final Occupation by Irrep:
              A 
    DOCC [    20 ]

  @DF-RHF Final Energy:  -262.98473852369483

   => Energetics <=

    Nuclear Repulsion Energy =            178.6700925575170231
    One-Electron Energy =                -712.7508979717536022
    Two-Electron Energy =                 271.0960668905417492
    Total Energy =                       -262.9847385236948298

Computation Completed


Properties will be evaluated at   0.000000,   0.000000,   0.000000 [a0]

Properties computed using the SCF density matrix


 Multipole Moments:

 ------------------------------------------------------------------------------------
     Multipole            Electronic (a.u.)      Nuclear  (a.u.)        Total (a.u.)
 ------------------------------------------------------------------------------------

 L = 1.  Multiply by 2.5417464519 to convert [e a0] to [Debye]
 Dipole X            :         -1.7218280            1.6130889           -0.1087391
 Dipole Y            :          1.2612468           -2.3863747           -1.1251279
 Dipole Z            :         -2.3483563            4.0099499            1.6615936
 Magnitude           :                                                    2.0096344

 ------------------------------------------------------------------------------------

*** tstop() called on node165.bme.utexas.edu at Sat Nov 18 08:03:55 2023
Module time:
	user time   =       3.71 seconds =       0.06 minutes
	system time =       0.12 seconds =       0.00 minutes
	total time  =          1 seconds =       0.02 minutes
Total time:
	user time   =      37.67 seconds =       0.63 minutes
	system time =       1.28 seconds =       0.02 minutes
	total time  =          9 seconds =       0.15 minutes

*** tstart() called on node165.bme.utexas.edu
*** at Sat Nov 18 08:03:55 2023


  //>>>>>>>>>>>>>>>>>>>>>>>>>>>>>>>>>>>//
  //               DFMP2               //
  //<<<<<<<<<<<<<<<<<<<<<<<<<<<<<<<<<<<//

   => Loading Basis Set <=

    Name: (ANONYMOUS2804E6E0 AUX)
    Role: RIFIT
    Keyword: DF_BASIS_MP2
    atoms 1, 4 entry N          line   197 file /home/liuchw/anaconda3/envs/poltype2022/share/psi4/basis/cc-pvdz-ri.gbs 
    atoms 2-3  entry C          line   159 file /home/liuchw/anaconda3/envs/poltype2022/share/psi4/basis/cc-pvdz-ri.gbs 
    atoms 5    entry O          line   235 file /home/liuchw/anaconda3/envs/poltype2022/share/psi4/basis/cc-pvdz-ri.gbs 
    atoms 6-11 entry H          line    19 file /home/liuchw/anaconda3/envs/poltype2022/share/psi4/basis/cc-pvdz-ri.gbs 

	 --------------------------------------------------------
	                          DF-MP2                         
	      2nd-Order Density-Fitted Moller-Plesset Theory     
	              RMP2 Wavefunction,   5 Threads             
	                                                         
	        Rob Parrish, Justin Turney, Andy Simmonett,      
	           Ed Hohenstein, and C. David Sherrill          
	 --------------------------------------------------------

   => Auxiliary Basis Set <=

  Basis Set: (ANONYMOUS2804E6E0 AUX)
    Blend: CC-PVDZ-RI
    Number of shells: 126
    Number of basis functions: 364
    Number of Cartesian functions: 420
    Spherical Harmonics?: true
    Max angular momentum: 3

	 --------------------------------------------------------
	                 NBF =    87, NAUX =   364
	 --------------------------------------------------------
	   CLASS    FOCC     OCC    AOCC    AVIR     VIR    FVIR
	   PAIRS       0      20      20      67      67       0
	 --------------------------------------------------------

  DFHelper Memory: AOs need 0.035 GiB; user supplied 13.970 GiB. Using in-core AOs.


         ------------------------------------------------------------
                                     CPHF                           
                                  Rob Parrish                       
         ------------------------------------------------------------

  ==> Geometry <==

    Molecular point group: c1
    Full point group: C1

    Geometry (in Angstrom), charge = 0, multiplicity = 1:

       Center              X                  Y                   Z               Mass       
    ------------   -----------------  -----------------  -----------------  -----------------
         N           -1.694322194866    -0.540299685229     0.323304195686    14.003074004430
         C           -0.502163860606    -0.071351320091    -0.168735477025    12.000000000000
         C            0.688864230039    -0.262654206980     0.772767007786    12.000000000000
         N            1.851181133493     0.485261087269     0.318252669444    14.003074004430
         O           -0.396635085120     0.393677672828    -1.296843425623    15.994914619570
         H            0.845271215111    -1.350040395557     0.863372180134     1.007825032230
         H            0.408985818559     0.091622711179     1.770036403372     1.007825032230
         H           -2.502357974738    -0.491272673304    -0.280640488180     1.007825032230
         H           -1.798971908748    -0.927301732312     1.248970857831     1.007825032230
         H            2.446006836724     0.716271867293     1.108575361547     1.007825032230
         H            2.409541793062    -0.062212918338    -0.328680040487     1.007825032230

  Nuclear repulsion =  178.670092557517023
  Reference energy  = -262.984738523694830

  ==> Basis Set <==

  Basis Set: ANONYMOUS2804E6E0
    Blend: 6-31G*
    Number of shells: 42
    Number of basis functions: 87
    Number of Cartesian functions: 87
    Spherical Harmonics?: false
    Max angular momentum: 2

  ==> CGRSolver (by Rob Parrish) <==

   Number of roots    =         1
   Preconditioning    =    JACOBI
   Convergence cutoff =     1E-06
   Maximum iterations =       100

  ==> CPHFRHamiltonian (by Rob Parrish) <== 

  ==> MemDFJK: Density-Fitted J/K Matrices <==

    J tasked:                   Yes
    K tasked:                   Yes
    wK tasked:                   No
    OpenMP threads:               5
    Memory [MiB]:             14305
    Algorithm:                 Core
    Schwarz Cutoff:           1E-12
    Mask sparsity (%):       0.8456
    Fitting Condition:        1E-10

   => Auxiliary Basis Set <=

  Basis Set: (ANONYMOUS2804E6E0 AUX)
    Blend: CC-PVDZ-JKFIT
    Number of shells: 174
    Number of basis functions: 555
    Number of Cartesian functions: 555
    Spherical Harmonics?: false
    Max angular momentum: 3

  ==> CPHF Iterations <==

  => Iterations <=

             Iter  Converged  Remaining    Residual
  CGR           1          0          1   1.398E-01
  CGR           2          0          1   3.904E-02
  CGR           3          0          1   1.445E-02
  CGR           4          0          1   3.125E-03
  CGR           5          0          1   1.217E-03
  CGR           6          0          1   3.623E-04
  CGR           7          0          1   1.186E-04
  CGR           8          0          1   3.840E-05
  CGR           9          0          1   1.235E-05
  CGR          10          0          1   4.219E-06
  CGR          11          0          1   1.574E-06
  CGR          12          1          0   5.753E-07

    CGRSolver converged.

  ==> DFCorrGrad: Density-Fitted Correlated Gradients <==

    OpenMP threads:              5
    Integrals threads:           5
    Memory [GiB]:           13.970
    Schwarz Cutoff:          0E+00
    Fitting Condition:       1E-10

   => Auxiliary Basis Set <=

  Basis Set: (ANONYMOUS2804E6E0 AUX)
    Blend: CC-PVDZ-JKFIT
    Number of shells: 174
    Number of basis functions: 555
    Number of Cartesian functions: 555
    Spherical Harmonics?: false
    Max angular momentum: 3

	-----------------------------------------------------------
	 ==================> DF-MP2 Energies <==================== 
	-----------------------------------------------------------
	 Reference Energy          =    -262.9847385236948298 [Eh]
	 Singles Energy            =      -0.0000000000000000 [Eh]
	 Same-Spin Energy          =      -0.2021996200697426 [Eh]
	 Opposite-Spin Energy      =      -0.5744744187854017 [Eh]
	 Correlation Energy        =      -0.7766740388551443 [Eh]
	 Total Energy              =    -263.7614125625499923 [Eh]
	-----------------------------------------------------------
	 ================> DF-SCS-MP2 Energies <================== 
	-----------------------------------------------------------
	 SCS Same-Spin Scale       =       0.3333333333333333 [-]
	 SCS Opposite-Spin Scale   =       1.2000000000000000 [-]
	 SCS Same-Spin Energy      =      -0.0673998733565809 [Eh]
	 SCS Opposite-Spin Energy  =      -0.6893693025424821 [Eh]
	 SCS Correlation Energy    =      -0.7567691758990629 [Eh]
	 SCS Total Energy          =    -263.7415076995939103 [Eh]
	-----------------------------------------------------------


  -Total Gradient:
     Atom            X                  Y                   Z
    ------   -----------------  -----------------  -----------------
       1       -0.003470316332    -0.001334324539    -0.000008562231
       2       -0.001023145903     0.002961062956     0.001662814041
       3        0.001443408975    -0.000773307601     0.000614336511
       4        0.001368817082    -0.001106504858    -0.002810986822
       5        0.000559754022    -0.000293058079     0.000051600403
[...]
    atoms 2-3  entry C          line   111 file /home/liuchw/anaconda3/envs/poltype2022/share/psi4/basis/6-31gs.gbs 
    atoms 5    entry O          line   145 file /home/liuchw/anaconda3/envs/poltype2022/share/psi4/basis/6-31gs.gbs 
    atoms 6-11 entry H          line    44 file /home/liuchw/anaconda3/envs/poltype2022/share/psi4/basis/6-31gs.gbs 


         ---------------------------------------------------------
                                   SCF
               by Justin Turney, Rob Parrish, Andy Simmonett
                          and Daniel G. A. Smith
                              RHF Reference
                        5 Threads,  19073 MiB Core
         ---------------------------------------------------------

  ==> Geometry <==

    Molecular point group: c1
    Full point group: C1

    Geometry (in Angstrom), charge = 0, multiplicity = 1:

       Center              X                  Y                   Z               Mass       
    ------------   -----------------  -----------------  -----------------  -----------------
         N           -1.657026541227    -0.551230501367     0.296174490440    14.003074004430
         C           -0.405237468369    -0.247231345633    -0.158134952149    12.000000000000
         C            0.707085784206    -0.345529209480     0.873872124336    12.000000000000
         N            1.739581154808     0.622908783921     0.532338576373    14.003074004430
         O           -0.166682687891    -0.000686258217    -1.338640085812    15.994914619570
         H            1.036993681017    -1.398435722869     0.867784134451     1.007825032230
         H            0.320442469609    -0.140449327496     1.878622231034     1.007825032230
         H           -2.418819358415    -0.420310525638    -0.357127712374     1.007825032230
         H           -1.875622792159    -0.486183373559     1.279593614348     1.007825032230
         H            2.629612574337     0.343036170997     0.937241135067     1.007825032230
         H            1.845073186672     0.605811716333    -0.481344307040     1.007825032230

  Running in c1 symmetry.

  Rotational constants: A =      0.31917  B =      0.13161  C =      0.09904 [cm^-1]
  Rotational constants: A =   9568.62186  B =   3945.68602  C =   2969.19398 [MHz]
  Nuclear repulsion =  180.186129465769824

  Charge       = 0
  Multiplicity = 1
  Electrons    = 40
  Nalpha       = 20
  Nbeta        = 20

  ==> Algorithm <==

  SCF Algorithm Type is DF.
  DIIS enabled.
  MOM disabled.
  Fractional occupation disabled.
  Guess Type is SAD.
  Energy threshold   = 1.00e-10
  Density threshold  = 1.00e-10
  Integral threshold = 1.00e-12

  ==> Primary Basis <==

  Basis Set: ANONYMOUS2804E6E0
    Blend: 6-31G*
    Number of shells: 42
    Number of basis functions: 87
    Number of Cartesian functions: 87
    Spherical Harmonics?: false
    Max angular momentum: 2

   => Loading Basis Set <=

    Name: (ANONYMOUS2804E6E0 AUX)
    Role: JKFIT
    Keyword: DF_BASIS_SCF
    atoms 1, 4 entry N          line   171 file /home/liuchw/anaconda3/envs/poltype2022/share/psi4/basis/cc-pvdz-jkfit.gbs 
    atoms 2-3  entry C          line   121 file /home/liuchw/anaconda3/envs/poltype2022/share/psi4/basis/cc-pvdz-jkfit.gbs 
    atoms 5    entry O          line   221 file /home/liuchw/anaconda3/envs/poltype2022/share/psi4/basis/cc-pvdz-jkfit.gbs 
    atoms 6-11 entry H          line    51 file /home/liuchw/anaconda3/envs/poltype2022/share/psi4/basis/cc-pvdz-jkfit.gbs 

  ==> Integral Setup <==

  DFHelper Memory: AOs need 0.035 GiB; user supplied 13.970 GiB. Using in-core AOs.

  ==> MemDFJK: Density-Fitted J/K Matrices <==

    J tasked:                   Yes
    K tasked:                   Yes
    wK tasked:                   No
    OpenMP threads:               5
    Memory [MiB]:             14305
    Algorithm:                 Core
    Schwarz Cutoff:           1E-12
    Mask sparsity (%):       0.8456
    Fitting Condition:        1E-10

   => Auxiliary Basis Set <=

  Basis Set: (ANONYMOUS2804E6E0 AUX)
    Blend: CC-PVDZ-JKFIT
    Number of shells: 174
    Number of basis functions: 555
    Number of Cartesian functions: 555
    Spherical Harmonics?: false
    Max angular momentum: 3

  Minimum eigenvalue in the overlap matrix is 3.5214380367E-03.
  Reciprocal condition number of the overlap matrix is 5.0545304980E-04.
    Using symmetric orthogonalization.

  ==> Pre-Iterations <==

  SCF Guess: Superposition of Atomic Densities via on-the-fly atomic UHF (no occupation information).

   -------------------------
    Irrep   Nso     Nmo    
   -------------------------
     A         87      87 
   -------------------------
    Total      87      87
   -------------------------

  ==> Iterations <==

                           Total Energy        Delta E     RMS |[F,P]|

   @DF-RHF iter SAD:  -262.08650614122558   -2.62087e+02   0.00000e+00 
   @DF-RHF iter   1:  -262.81545738502649   -7.28951e-01   6.87046e-03 DIIS/ADIIS
   @DF-RHF iter   2:  -262.93814834796785   -1.22691e-01   4.28768e-03 DIIS/ADIIS
   @DF-RHF iter   3:  -262.98765789283829   -4.95095e-02   7.84032e-04 DIIS/ADIIS
   @DF-RHF iter   4:  -262.99015952167412   -2.50163e-03   3.01147e-04 DIIS/ADIIS
   @DF-RHF iter   5:  -262.99057373636367   -4.14215e-04   6.06162e-05 DIIS
   @DF-RHF iter   6:  -262.99061071536227   -3.69790e-05   2.75470e-05 DIIS
   @DF-RHF iter   7:  -262.99061813892990   -7.42357e-06   1.08171e-05 DIIS
   @DF-RHF iter   8:  -262.99061940849901   -1.26957e-06   3.48545e-06 DIIS
   @DF-RHF iter   9:  -262.99061954456590   -1.36067e-07   7.50462e-07 DIIS
   @DF-RHF iter  10:  -262.99061955000917   -5.44327e-09   2.59689e-07 DIIS
   @DF-RHF iter  11:  -262.99061955048182   -4.72653e-10   7.39580e-08 DIIS
   @DF-RHF iter  12:  -262.99061955052235   -4.05294e-11   1.76467e-08 DIIS
   @DF-RHF iter  13:  -262.99061955052503   -2.67164e-12   6.87865e-09 DIIS
   @DF-RHF iter  14:  -262.99061955052525   -2.27374e-13   2.36106e-09 DIIS
   @DF-RHF iter  15:  -262.99061955052542   -1.70530e-13   7.73156e-10 DIIS
   @DF-RHF iter  16:  -262.99061955052582   -3.97904e-13   2.56894e-10 DIIS
   @DF-RHF iter  17:  -262.99061955052554    2.84217e-13   9.52842e-11 DIIS
  Energy and wave function converged.


  ==> Post-Iterations <==

    Orbital Energies [Eh]
    ---------------------

    Doubly Occupied:                                                      

       1A    -20.530750     2A    -15.594665     3A    -15.544474  
       4A    -11.359353     5A    -11.270207     6A     -1.378193  
       7A     -1.213835     8A     -1.179879     9A     -0.951969  
      10A     -0.789050    11A     -0.726685    12A     -0.692728  
      13A     -0.643546    14A     -0.622276    15A     -0.566103  
      16A     -0.554664    17A     -0.537338    18A     -0.428727  
      19A     -0.416098    20A     -0.393391  

    Virtual:                                                              

      21A      0.184479    22A      0.210551    23A      0.248594  
      24A      0.269831    25A      0.301817    26A      0.327325  
      27A      0.334423    28A      0.411782    29A      0.441331  
      30A      0.500202    31A      0.566795    32A      0.759972  
      33A      0.767329    34A      0.800755    35A      0.830713  
      36A      0.896359    37A      0.907136    38A      0.946846  
      39A      0.975732    40A      0.993857    41A      1.005994  
      42A      1.057416    43A      1.092735    44A      1.113504  
      45A      1.159741    46A      1.181411    47A      1.193733  
      48A      1.205409    49A      1.232317    50A      1.294136  
      51A      1.337858    52A      1.360634    53A      1.433753  
      54A      1.472184    55A      1.537012    56A      1.610097  
      57A      1.685811    58A      1.781117    59A      1.837455  
      60A      1.982049    61A      2.053986    62A      2.071055  
      63A      2.118888    64A      2.144063    65A      2.151327  
      66A      2.270718    67A      2.308271    68A      2.362150  
      69A      2.416367    70A      2.476317    71A      2.546352  
      72A      2.575046    73A      2.666087    74A      2.720639  
      75A      2.755407    76A      2.888211    77A      2.933333  
      78A      2.964505    79A      3.031936    80A      3.208859  
      81A      3.354011    82A      3.429835    83A      4.196226  
      84A      4.226895    85A      4.461432    86A      4.629436  
      87A      4.904307  

    Final Occupation by Irrep:
              A 
    DOCC [    20 ]

  @DF-RHF Final Energy:  -262.99061955052554

   => Energetics <=

    Nuclear Repulsion Energy =            180.1861294657698238
    One-Electron Energy =                -715.5656372647404169
    Two-Electron Energy =                 272.3888882484450846
    Total Energy =                       -262.9906195505255369

Computation Completed


Properties will be evaluated at   0.000000,   0.000000,   0.000000 [a0]

Properties computed using the SCF density matrix


 Multipole Moments:

 ------------------------------------------------------------------------------------
     Multipole            Electronic (a.u.)      Nuclear  (a.u.)        Total (a.u.)
 ------------------------------------------------------------------------------------

 L = 1.  Multiply by 2.5417464519 to convert [e a0] to [Debye]
 Dipole X            :         -5.3246761            4.9004197           -0.4242563
 Dipole Y            :          7.9600390           -8.6111729           -0.6511340
 Dipole Z            :         -5.4124198            6.6323017            1.2198819
 Magnitude           :                                                    1.4464027

 ------------------------------------------------------------------------------------

*** tstop() called on node165.bme.utexas.edu at Sat Nov 18 08:04:21 2023
Module time:
	user time   =       3.66 seconds =       0.06 minutes
	system time =       0.11 seconds =       0.00 minutes
	total time  =          1 seconds =       0.02 minutes
Total time:
	user time   =     156.95 seconds =       2.62 minutes
	system time =       4.82 seconds =       0.08 minutes
	total time  =         35 seconds =       0.58 minutes

*** tstart() called on node165.bme.utexas.edu
*** at Sat Nov 18 08:04:21 2023


  //>>>>>>>>>>>>>>>>>>>>>>>>>>>>>>>>>>>//
  //               DFMP2               //
  //<<<<<<<<<<<<<<<<<<<<<<<<<<<<<<<<<<<//

   => Loading Basis Set <=

    Name: (ANONYMOUS2804E6E0 AUX)
    Role: RIFIT
    Keyword: DF_BASIS_MP2
    atoms 1, 4 entry N          line   197 file /home/liuchw/anaconda3/envs/poltype2022/share/psi4/basis/cc-pvdz-ri.gbs 
    atoms 2-3  entry C          line   159 file /home/liuchw/anaconda3/envs/poltype2022/share/psi4/basis/cc-pvdz-ri.gbs 
    atoms 5    entry O          line   235 file /home/liuchw/anaconda3/envs/poltype2022/share/psi4/basis/cc-pvdz-ri.gbs 
    atoms 6-11 entry H          line    19 file /home/liuchw/anaconda3/envs/poltype2022/share/psi4/basis/cc-pvdz-ri.gbs 

	 --------------------------------------------------------
	                          DF-MP2                         
	      2nd-Order Density-Fitted Moller-Plesset Theory     
	              RMP2 Wavefunction,   5 Threads             
	                                                         
	        Rob Parrish, Justin Turney, Andy Simmonett,      
	           Ed Hohenstein, and C. David Sherrill          
	 --------------------------------------------------------

   => Auxiliary Basis Set <=

  Basis Set: (ANONYMOUS2804E6E0 AUX)
    Blend: CC-PVDZ-RI
    Number of shells: 126
    Number of basis functions: 364
    Number of Cartesian functions: 420
    Spherical Harmonics?: true
    Max angular momentum: 3

	 --------------------------------------------------------
	                 NBF =    87, NAUX =   364
	 --------------------------------------------------------
	   CLASS    FOCC     OCC    AOCC    AVIR     VIR    FVIR
	   PAIRS       0      20      20      67      67       0
	 --------------------------------------------------------

  DFHelper Memory: AOs need 0.035 GiB; user supplied 13.970 GiB. Using in-core AOs.


         ------------------------------------------------------------
                                     CPHF                           
                                  Rob Parrish                       
         ------------------------------------------------------------

  ==> Geometry <==

    Molecular point group: c1
    Full point group: C1

    Geometry (in Angstrom), charge = 0, multiplicity = 1:

       Center              X                  Y                   Z               Mass       
    ------------   -----------------  -----------------  -----------------  -----------------
         N           -1.657026541227    -0.551230501367     0.296174490440    14.003074004430
         C           -0.405237468369    -0.247231345633    -0.158134952149    12.000000000000
         C            0.707085784206    -0.345529209480     0.873872124336    12.000000000000
         N            1.739581154808     0.622908783921     0.532338576373    14.003074004430
         O           -0.166682687891    -0.000686258217    -1.338640085812    15.994914619570
         H            1.036993681017    -1.398435722869     0.867784134451     1.007825032230
         H            0.320442469609    -0.140449327496     1.878622231034     1.007825032230
         H           -2.418819358415    -0.420310525638    -0.357127712374     1.007825032230
         H           -1.875622792159    -0.486183373559     1.279593614348     1.007825032230
         H            2.629612574337     0.343036170997     0.937241135067     1.007825032230
         H            1.845073186672     0.605811716333    -0.481344307040     1.007825032230

  Nuclear repulsion =  180.186129465769824
  Reference energy  = -262.990619550525537

  ==> Basis Set <==

  Basis Set: ANONYMOUS2804E6E0
    Blend: 6-31G*
    Number of shells: 42
    Number of basis functions: 87
    Number of Cartesian functions: 87
    Spherical Harmonics?: false
    Max angular momentum: 2

  ==> CGRSolver (by Rob Parrish) <==

   Number of roots    =         1
   Preconditioning    =    JACOBI
   Convergence cutoff =     1E-06
   Maximum iterations =       100

  ==> CPHFRHamiltonian (by Rob Parrish) <== 

  ==> MemDFJK: Density-Fitted J/K Matrices <==

    J tasked:                   Yes
    K tasked:                   Yes
    wK tasked:                   No
    OpenMP threads:               5
    Memory [MiB]:             14305
    Algorithm:                 Core
    Schwarz Cutoff:           1E-12
    Mask sparsity (%):       0.8456
    Fitting Condition:        1E-10

   => Auxiliary Basis Set <=

  Basis Set: (ANONYMOUS2804E6E0 AUX)
    Blend: CC-PVDZ-JKFIT
    Number of shells: 174
    Number of basis functions: 555
    Number of Cartesian functions: 555
    Spherical Harmonics?: false
    Max angular momentum: 3

  ==> CPHF Iterations <==

  => Iterations <=

             Iter  Converged  Remaining    Residual
  CGR           1          0          1   1.422E-01
  CGR           2          0          1   3.972E-02
  CGR           3          0          1   1.514E-02
  CGR           4          0          1   3.381E-03
  CGR           5          0          1   1.462E-03
  CGR           6          0          1   4.739E-04
  CGR           7          0          1   1.498E-04
  CGR           8          0          1   4.490E-05
  CGR           9          0          1   1.651E-05
  CGR          10          0          1   6.271E-06
  CGR          11          0          1   2.275E-06
  CGR          12          1          0   5.216E-07

    CGRSolver converged.

  ==> DFCorrGrad: Density-Fitted Correlated Gradients <==

    OpenMP threads:              5
    Integrals threads:           5
    Memory [GiB]:           13.970
    Schwarz Cutoff:          0E+00
    Fitting Condition:       1E-10

   => Auxiliary Basis Set <=

  Basis Set: (ANONYMOUS2804E6E0 AUX)
    Blend: CC-PVDZ-JKFIT
    Number of shells: 174
    Number of basis functions: 555
    Number of Cartesian functions: 555
    Spherical Harmonics?: false
    Max angular momentum: 3

	-----------------------------------------------------------
	 ==================> DF-MP2 Energies <==================== 
	-----------------------------------------------------------
	 Reference Energy          =    -262.9906195505255369 [Eh]
	 Singles Energy            =      -0.0000000000000000 [Eh]
	 Same-Spin Energy          =      -0.2027302350108277 [Eh]
	 Opposite-Spin Energy      =      -0.5748173949595512 [Eh]
	 Correlation Energy        =      -0.7775476299703790 [Eh]
	 Total Energy              =    -263.7681671804959365 [Eh]
	-----------------------------------------------------------
	 ================> DF-SCS-MP2 Energies <================== 
	-----------------------------------------------------------
	 SCS Same-Spin Scale       =       0.3333333333333333 [-]
	 SCS Opposite-Spin Scale   =       1.2000000000000000 [-]
	 SCS Same-Spin Energy      =      -0.0675767450036092 [Eh]
	 SCS Opposite-Spin Energy  =      -0.6897808739514614 [Eh]
	 SCS Correlation Energy    =      -0.7573576189550706 [Eh]
	 SCS Total Energy          =    -263.7479771694806345 [Eh]
	-----------------------------------------------------------


  -Total Gradient:
     Atom            X                  Y                   Z
    ------   -----------------  -----------------  -----------------
       1        0.000037449439    -0.000048561252    -0.000020605339
       2        0.000032327290     0.000101519628     0.000014318178
       3       -0.000076592877    -0.000040025533    -0.000018489267
       4        0.000020781884     0.000006191259    -0.000002309072
       5       -0.000018805384    -0.000023865906    -0.000007095815
       6        0.000028920756     0.000010224762     0.000020936140
       7        0.000005953230     0.000010498785     0.000000766623
       8       -0.000030099038    -0.000000958831     0.000017122221
       9       -0.000004170562     0.000002417664    -0.000005766527
      10       -0.000011057834    -0.000019989047    -0.000008427809
      11        0.000015293097     0.000002548470     0.000009550666


*** tstop() called on node165.bme.utexas.edu at Sat Nov 18 08:04:22 2023
Module time:
	user time   =       6.14 seconds =       0.10 minutes
	system time =       0.24 seconds =       0.00 minutes
	total time  =          1 seconds =       0.02 minutes
Total time:
	user time   =     163.09 seconds =       2.72 minutes
	system time =       5.06 seconds =       0.08 minutes
	total time  =         36 seconds =       0.60 minutes

     15  -2.63768167e+02   -7.10e-07 *    1.08e-04 *    5.11e-05 *    1.54e-03 *    9.41e-04 *  ~

  Optimization converged!                                                                       ~

  Final Energy : -263.76816718049594 

  Final Geometry : 
    Molecular point group: c1
    Full point group: C1

    Geometry (in Angstrom), charge = 0, multiplicity = 1:

    N           -1.657026541227    -0.551230501367     0.296174490440
    C           -0.405237468369    -0.247231345633    -0.158134952149
    C            0.707085784206    -0.345529209480     0.873872124336
    N            1.739581154808     0.622908783921     0.532338576373
    O           -0.166682687891    -0.000686258217    -1.338640085812
    H            1.036993681017    -1.398435722869     0.867784134451
    H            0.320442469609    -0.140449327496     1.878622231034
    H           -2.418819358415    -0.420310525638    -0.357127712374
    H           -1.875622792159    -0.486183373559     1.279593614348
    H            2.629612574337     0.343036170997     0.937241135067
    H            1.845073186672     0.605811716333    -0.481344307040


    Psi4 stopped on: Saturday, 18 November 2023 08:04AM
    Psi4 wall time for execution: 0:00:36.29

*** Psi4 exiting successfully. Buy a developer a beer!
