
    -----------------------------------------------------------------------
          Psi4: An Open-Source Ab Initio Electronic Structure Package
                               Psi4 1.5 release

                         Git: Rev {HEAD} e9f4d6d 


    D. G. A. Smith, L. A. Burns, A. C. Simmonett, R. M. Parrish,
    M. C. Schieber, R. Galvelis, P. Kraus, H. Kruse, R. Di Remigio,
    A. Alenaizan, A. M. James, S. Lehtola, J. P. Misiewicz, M. Scheurer,
    R. A. Shaw, J. B. Schriber, Y. Xie, Z. L. Glick, D. A. Sirianni,
    J. S. O'Brien, J. M. Waldrop, A. Kumar, E. G. Hohenstein,
    B. P. Pritchard, B. R. Brooks, H. F. Schaefer III, A. Yu. Sokolov,
    K. Patkowski, A. E. DePrince III, U. Bozkaya, R. A. King,
    F. A. Evangelista, J. M. Turney, T. D. Crawford, C. D. Sherrill,
    J. Chem. Phys. 152(18) 184108 (2020). https://doi.org/10.1063/5.0006002

                            Additional Code Authors
    E. T. Seidl, C. L. Janssen, E. F. Valeev, M. L. Leininger,
    J. F. Gonthier, R. M. Richard, H. R. McAlexander, M. Saitow, X. Wang,
    P. Verma, M. H. Lechner, and A. Jiang

             Previous Authors, Complete List of Code Contributors,
                       and Citations for Specific Modules
    https://github.com/psi4/psi4/blob/master/codemeta.json
    https://github.com/psi4/psi4/graphs/contributors
    http://psicode.org/psi4manual/master/introduction.html#citing-psifour

    -----------------------------------------------------------------------


    Psi4 started on: Wednesday, 08 June 2022 10:04AM

    Process ID: 1078621
    Host:       node74.bme.utexas.edu
    PSIDATADIR: /home/bdw2292/miniconda3/envs/newamoebamdpoltype/share/psi4
    Memory:     500.0 MiB
    Threads:    1
    
  ==> Input File <==

--------------------------------------------------------------------------
molecule { 
0 1
 N    3.143600   -0.079700   -1.318400
 C    4.273600   -0.723800   -0.772300
 C    5.632700   -0.415400   -1.457400
 N    6.779800   -0.976400   -0.699300
 O    4.248400   -1.467100    0.213100
 H    5.593600   -0.894100   -2.443000
 H    5.761300    0.665700   -1.577200
 C    1.830800   -0.220300   -0.728700
 C   -0.798700   -0.461700    0.408600
 C    0.175900   -1.455600    0.573900
 C   -0.435200    0.645900   -0.349200
 C    1.461500   -1.339200    0.021200
 C    0.850600    0.767300   -0.906100
 C    3.256100    0.841600   -2.453100
 C    8.005700   -1.030300   -1.507100
 C    7.010800   -0.264600    0.572200
 H   -0.061300   -2.359000    1.133800
 H   -1.120700    1.468400   -0.508800
 H    2.134700   -2.177400    0.171200
 H    1.053800    1.682700   -1.453900
 H    2.362000    0.793400   -3.083100
 H    3.406300    1.856200   -2.071600
 H    4.095600    0.583600   -3.101400
 H    7.824600   -1.602200   -2.424800
 H    8.315000   -0.020100   -1.804800
 H    7.292000    0.778600    0.377000
 H    6.108300   -0.240100    1.190500
 H   -1.737800   -0.547700    0.827800
 H    8.767500   -1.492300   -0.914500
 H    7.790200   -0.791300    1.082200
}
set {
  geom_maxiter 400
  g_convergence GAU
  dynamic_level 1
}
memory 8.166666666666666GB
set_num_threads(2)
psi4_io.set_default_path("/scratch/bdw2292/Psi4-25_27_Index_0-farH_in17")
for _ in range(1):
  try:
    set opt_coordinates both
    optimize('mp2/6-31G*')
    break
  except:
    break
  else:
    try:
      set opt_coordinates cartesian
      optimize('mp2/6-31G*')
      break
    except:
      pass
clean()
--------------------------------------------------------------------------

  Memory set to   7.606 GiB by Python driver.
  Threads set to 2 by Python driver.

Scratch directory: /scratch/bdw2292/Psi4-25_27_Index_0-farH_in17/

Scratch directory: /scratch/bdw2292/Psi4-25_27_Index_0-farH_in17/
gradient() will perform analytic gradient computation.
    SCF Algorithm Type (re)set to DF.

*** tstart() called on node74.bme.utexas.edu
*** at Wed Jun  8 10:04:54 2022

   => Loading Basis Set <=

    Name: 6-31G*
    Role: ORBITAL
    Keyword: BASIS
    atoms 1, 4       entry N          line   128 file /home/bdw2292/miniconda3/envs/newamoebamdpoltype/share/psi4/basis/6-31gs.gbs 
    atoms 2-3, 8-16  entry C          line   111 file /home/bdw2292/miniconda3/envs/newamoebamdpoltype/share/psi4/basis/6-31gs.gbs 
    atoms 5          entry O          line   145 file /home/bdw2292/miniconda3/envs/newamoebamdpoltype/share/psi4/basis/6-31gs.gbs 
    atoms 6-7, 17-30 entry H          line    44 file /home/bdw2292/miniconda3/envs/newamoebamdpoltype/share/psi4/basis/6-31gs.gbs 


         ---------------------------------------------------------
                                   SCF
               by Justin Turney, Rob Parrish, Andy Simmonett
                          and Daniel G. A. Smith
                              RHF Reference
                        2 Threads,   7788 MiB Core
         ---------------------------------------------------------

  ==> Geometry <==

    Molecular point group: c1
    Full point group: C1

    Geometry (in Angstrom), charge = 0, multiplicity = 1:

       Center              X                  Y                   Z               Mass       
    ------------   -----------------  -----------------  -----------------  -----------------
         N           -0.240583113703     0.359810702267    -0.700387999268    14.003074004430
         C            0.889416886297    -0.284289297733    -0.154287999268    12.000000000000
         C            2.248516886297     0.024110702267    -0.839387999268    12.000000000000
         N            3.395616886297    -0.536889297733    -0.081287999268    14.003074004430
         O            0.864216886297    -1.027589297733     0.831112000732    15.994914619570
         H            2.209416886297    -0.454589297733    -1.824987999268     1.007825032230
         H            2.377116886297     1.105210702267    -0.959187999268     1.007825032230
         C           -1.553383113703     0.219210702267    -0.110687999268    12.000000000000
         C           -4.182883113703    -0.022189297733     1.026612000732    12.000000000000
         C           -3.208283113703    -1.016089297733     1.191912000732    12.000000000000
         C           -3.819383113703     1.085410702267     0.268812000732    12.000000000000
         C           -1.922683113703    -0.899689297733     0.639212000732    12.000000000000
         C           -2.533583113703     1.206810702267    -0.288087999268    12.000000000000
         C           -0.128083113703     1.281110702267    -1.835087999268    12.000000000000
         C            4.621516886297    -0.590789297733    -0.889087999268    12.000000000000
         C            3.626616886297     0.174910702267     1.190212000732    12.000000000000
         H           -3.445483113703    -1.919489297733     1.751812000732     1.007825032230
         H           -4.504883113703     1.907910702267     0.109212000732     1.007825032230
         H           -1.249483113703    -1.737889297733     0.789212000732     1.007825032230
         H           -2.330383113703     2.122210702267    -0.835887999268     1.007825032230
         H           -1.022183113703     1.232910702267    -2.465087999268     1.007825032230
         H            0.022116886297     2.295710702267    -1.453587999268     1.007825032230
         H            0.711416886297     1.023110702267    -2.483387999268     1.007825032230
         H            4.440416886297    -1.162689297733    -1.806787999268     1.007825032230
         H            4.930816886297     0.419410702267    -1.186787999268     1.007825032230
         H            3.907816886297     1.218110702267     0.995012000732     1.007825032230
         H            2.724116886297     0.199410702267     1.808512000732     1.007825032230
         H           -5.121983113703    -0.108189297733     1.445812000732     1.007825032230
         H            5.383316886297    -1.052789297733    -0.296487999268     1.007825032230
         H            4.406016886297    -0.351789297733     1.700212000732     1.007825032230

  Running in c1 symmetry.

  Rotational constants: A =      0.06092  B =      0.01061  C =      0.00961 [cm^-1]
  Rotational constants: A =   1826.24641  B =    318.10088  C =    288.00049 [MHz]
  Nuclear repulsion =  875.786019300659518

  Charge       = 0
  Multiplicity = 1
  Electrons    = 104
  Nalpha       = 52
  Nbeta        = 52

  ==> Algorithm <==

  SCF Algorithm Type is DF.
  DIIS enabled.
  MOM disabled.
  Fractional occupation disabled.
  Guess Type is SAD.
  Energy threshold   = 1.00e-10
  Density threshold  = 1.00e-10
  Integral threshold = 1.00e-12

  ==> Primary Basis <==

  Basis Set: 6-31G*
    Blend: 6-31G*
    Number of shells: 116
    Number of basis functions: 242
    Number of Cartesian functions: 242
    Spherical Harmonics?: false
    Max angular momentum: 2

   => Loading Basis Set <=

    Name: (6-31G* AUX)
    Role: JKFIT
    Keyword: DF_BASIS_SCF
    atoms 1, 4       entry N          line   171 file /home/bdw2292/miniconda3/envs/newamoebamdpoltype/share/psi4/basis/cc-pvdz-jkfit.gbs 
    atoms 2-3, 8-16  entry C          line   121 file /home/bdw2292/miniconda3/envs/newamoebamdpoltype/share/psi4/basis/cc-pvdz-jkfit.gbs 
    atoms 5          entry O          line   221 file /home/bdw2292/miniconda3/envs/newamoebamdpoltype/share/psi4/basis/cc-pvdz-jkfit.gbs 
    atoms 6-7, 17-30 entry H          line    51 file /home/bdw2292/miniconda3/envs/newamoebamdpoltype/share/psi4/basis/cc-pvdz-jkfit.gbs 

  ==> Integral Setup <==

  DFHelper Memory: AOs need 0.572 GiB; user supplied 5.704 GiB. Using in-core AOs.

  ==> MemDFJK: Density-Fitted J/K Matrices <==

    J tasked:                   Yes
    K tasked:                   Yes
    wK tasked:                   No
    OpenMP threads:               2
    Memory [MiB]:              5841
    Algorithm:                 Core
    Schwarz Cutoff:           1E-12
    Mask sparsity (%):      19.2337
    Fitting Condition:        1E-10

   => Auxiliary Basis Set <=

  Basis Set: (6-31G* AUX)
    Blend: CC-PVDZ-JKFIT
    Number of shells: 480
    Number of basis functions: 1534
    Number of Cartesian functions: 1534
    Spherical Harmonics?: false
    Max angular momentum: 3

  Minimum eigenvalue in the overlap matrix is 4.5342564610E-04.
  Reciprocal condition number of the overlap matrix is 5.8870934702E-05.
    Using symmetric orthogonalization.

  ==> Pre-Iterations <==

  SCF Guess: Superposition of Atomic Densities via on-the-fly atomic UHF (no occupation information).

   -------------------------
    Irrep   Nso     Nmo    
   -------------------------
     A        242     242 
   -------------------------
    Total     242     242
   -------------------------

  ==> Iterations <==

                           Total Energy        Delta E     RMS |[F,P]|

   @DF-RHF iter SAD:  -607.96862679840388   -6.07969e+02   0.00000e+00 
   @DF-RHF iter   1:  -609.29244068906962   -1.32381e+00   2.91540e-03 DIIS
   @DF-RHF iter   2:  -609.50289419239573   -2.10454e-01   1.88205e-03 DIIS
   @DF-RHF iter   3:  -609.58247312804417   -7.95789e-02   4.38407e-04 DIIS
   @DF-RHF iter   4:  -609.58881104155864   -6.33791e-03   1.37153e-04 DIIS
   @DF-RHF iter   5:  -609.58949073810879   -6.79697e-04   2.64979e-05 DIIS
   @DF-RHF iter   6:  -609.58954055101196   -4.98129e-05   1.44811e-05 DIIS
   @DF-RHF iter   7:  -609.58955345855622   -1.29075e-05   5.49321e-06 DIIS
   @DF-RHF iter   8:  -609.58955604881601   -2.59026e-06   2.13798e-06 DIIS
   @DF-RHF iter   9:  -609.58955641961541   -3.70799e-07   7.90357e-07 DIIS
   @DF-RHF iter  10:  -609.58955645835340   -3.87380e-08   2.41907e-07 DIIS
   @DF-RHF iter  11:  -609.58955646293805   -4.58465e-09   9.08406e-08 DIIS
   @DF-RHF iter  12:  -609.58955646349159   -5.53541e-10   2.44887e-08 DIIS
   @DF-RHF iter  13:  -609.58955646353616   -4.45652e-11   7.94321e-09 DIIS
   @DF-RHF iter  14:  -609.58955646354195   -5.79803e-12   3.30985e-09 DIIS
   @DF-RHF iter  15:  -609.58955646354275   -7.95808e-13   1.45485e-09 DIIS
   @DF-RHF iter  16:  -609.58955646354264    1.13687e-13   6.60429e-10 DIIS
   @DF-RHF iter  17:  -609.58955646354354   -9.09495e-13   3.09389e-10 DIIS
   @DF-RHF iter  18:  -609.58955646354593   -2.38742e-12   1.03323e-10 DIIS
   @DF-RHF iter  19:  -609.58955646354423    1.70530e-12   4.04048e-11 DIIS
  Energy and wave function converged.


  ==> Post-Iterations <==

    Orbital Energies [Eh]
    ---------------------

    Doubly Occupied:                                                      

       1A    -20.530585     2A    -15.611304     3A    -15.552228  
       4A    -11.364828     5A    -11.283904     6A    -11.279824  
       7A    -11.274285     8A    -11.244942     9A    -11.234821  
      10A    -11.233663    11A    -11.233493    12A    -11.231445  
      13A    -11.222765    14A    -11.222571    15A     -1.372207  
      16A     -1.252157    17A     -1.213297    18A     -1.134749  
      19A     -1.021428    20A     -1.004549    21A     -0.983537  
      22A     -0.951419    23A     -0.947242    24A     -0.853487  
      25A     -0.818933    26A     -0.806776    27A     -0.747200  
      28A     -0.694941    29A     -0.685093    30A     -0.663123  
      31A     -0.662376    32A     -0.631956    33A     -0.630961  
      34A     -0.618442    35A     -0.607708    36A     -0.593377  
      37A     -0.572591    38A     -0.570389    39A     -0.559504  
      40A     -0.547726    41A     -0.542051    42A     -0.527734  
      43A     -0.511055    44A     -0.508636    45A     -0.503585  
      46A     -0.487453    47A     -0.486312    48A     -0.412019  
      49A     -0.409205    50A     -0.351148    51A     -0.324060  
      52A     -0.304625  

    Virtual:                                                              

      53A      0.140318    54A      0.147943    55A      0.197467  
      56A      0.213565    57A      0.234517    58A      0.251401  
      59A      0.264838    60A      0.289924    61A      0.294614  
      62A      0.299573    63A      0.304227    64A      0.312499  
      65A      0.314975    66A      0.319501    67A      0.335660  
      68A      0.339648    69A      0.345400    70A      0.355636  
      71A      0.362434    72A      0.364241    73A      0.379361  
      74A      0.386093    75A      0.409326    76A      0.426403  
      77A      0.435285    78A      0.471740    79A      0.477256  
      80A      0.501237    81A      0.515009    82A      0.544869  
      83A      0.559950    84A      0.591378    85A      0.675488  
      86A      0.707520    87A      0.717914    88A      0.737960  
      89A      0.744432    90A      0.746357    91A      0.759175  
      92A      0.765092    93A      0.768981    94A      0.800406  
      95A      0.804878    96A      0.817050    97A      0.822171  
      98A      0.826498    99A      0.839306   100A      0.846654  
     101A      0.850133   102A      0.854772   103A      0.875757  
     104A      0.885442   105A      0.902474   106A      0.919443  
     107A      0.928669   108A      0.953086   109A      0.978161  
     110A      0.982852   111A      0.997229   112A      1.018164  
     113A      1.044561   114A      1.078397   115A      1.080886  
     116A      1.097582   117A      1.103609   118A      1.110000  
     119A      1.113988   120A      1.116856   121A      1.122647  
     122A      1.136408   123A      1.142726   124A      1.156515  
     125A      1.166240   126A      1.171075   127A      1.178408  
     128A      1.196232   129A      1.197995   130A      1.206667  
     131A      1.214883   132A      1.221434   133A      1.232772  
     134A      1.241438   135A      1.269999   136A      1.275146  
     137A      1.284876   138A      1.291922   139A      1.300012  
     140A      1.328891   141A      1.348761   142A      1.363648  
     143A      1.401930   144A      1.415283   145A      1.452057  
     146A      1.482303   147A      1.498073   148A      1.510891  
     149A      1.535762   150A      1.575773   151A      1.614887  
     152A      1.645740   153A      1.666549   154A      1.676910  
     155A      1.684450   156A      1.698427   157A      1.707598  
     158A      1.736131   159A      1.742435   160A      1.760454  
     161A      1.774653   162A      1.815257   163A      1.825062  
     164A      1.876548   165A      1.926296   166A      1.993664  
     167A      2.037756   168A      2.058178   169A      2.065927  
     170A      2.082328   171A      2.099620   172A      2.111360  
     173A      2.134461   174A      2.148487   175A      2.185680  
     176A      2.198148   177A      2.231461   178A      2.254619  
     179A      2.260851   180A      2.278095   181A      2.299358  
     182A      2.316206   183A      2.333623   184A      2.350936  
     185A      2.362515   186A      2.377183   187A      2.396951  
     188A      2.407719   189A      2.440456   190A      2.452252  
     191A      2.456427   192A      2.472217   193A      2.473718  
     194A      2.488441   195A      2.517358   196A      2.541468  
     197A      2.550449   198A      2.575108   199A      2.594684  
     200A      2.602365   201A      2.612999   202A      2.629796  
     203A      2.649893   204A      2.724727   205A      2.734759  
     206A      2.770156   207A      2.788073   208A      2.843421  
     209A      2.862391   210A      2.880168   211A      2.918128  
     212A      2.925436   213A      2.944523   214A      2.990224  
     215A      3.001377   216A      3.036306   217A      3.066870  
     218A      3.109364   219A      3.115217   220A      3.140962  
     221A      3.170064   222A      3.185375   223A      3.203158  
     224A      3.322823   225A      3.366683   226A      3.421929  
     227A      3.637093   228A      3.805920   229A      4.400264  
     230A      4.491736   231A      4.518000   232A      4.540414  
     233A      4.547118   234A      4.592392   235A      4.699212  
     236A      4.727861   237A      4.751718   238A      4.769319  
     239A      4.794459   240A      4.827490   241A      4.962290  
     242A      5.162535  

    Final Occupation by Irrep:
              A 
    DOCC [    52 ]

  @DF-RHF Final Energy:  -609.58955646354423

   => Energetics <=

    Nuclear Repulsion Energy =            875.7860193006595182
    One-Electron Energy =               -2566.6837352010779796
    Two-Electron Energy =                1081.3081594368743481
    Total Energy =                       -609.5895564635441133

Computation Completed


Properties will be evaluated at   0.000000,   0.000000,   0.000000 [a0]

Properties computed using the SCF density matrix

  Nuclear Dipole Moment: [e a0]
     X:    12.5929      Y:     4.4360      Z:    -4.4115

  Electronic Dipole Moment: [e a0]
     X:   -12.4862      Y:    -3.3214      Z:     3.2005

  Dipole Moment: [e a0]
     X:     0.1066      Y:     1.1146      Z:    -1.2110     Total:     1.6493

  Dipole Moment: [D]
     X:     0.2710      Y:     2.8329      Z:    -3.0781     Total:     4.1921


*** tstop() called on node74.bme.utexas.edu at Wed Jun  8 10:05:16 2022
Module time:
	user time   =      39.02 seconds =       0.65 minutes
	system time =       2.71 seconds =       0.05 minutes
	total time  =         22 seconds =       0.37 minutes
Total time:
	user time   =      39.02 seconds =       0.65 minutes
	system time =       2.71 seconds =       0.05 minutes
	total time  =         22 seconds =       0.37 minutes

*** tstart() called on node74.bme.utexas.edu
*** at Wed Jun  8 10:05:16 2022


  //>>>>>>>>>>>>>>>>>>>>>>>>>>>>>>>>>>>//
  //               DFMP2               //
  //<<<<<<<<<<<<<<<<<<<<<<<<<<<<<<<<<<<//

   => Loading Basis Set <=

    Name: (6-31G* AUX)
    Role: RIFIT
    Keyword: DF_BASIS_MP2
    atoms 1, 4       entry N          line   197 file /home/bdw2292/miniconda3/envs/newamoebamdpoltype/share/psi4/basis/cc-pvdz-ri.gbs 
    atoms 2-3, 8-16  entry C          line   159 file /home/bdw2292/miniconda3/envs/newamoebamdpoltype/share/psi4/basis/cc-pvdz-ri.gbs 
    atoms 5          entry O          line   235 file /home/bdw2292/miniconda3/envs/newamoebamdpoltype/share/psi4/basis/cc-pvdz-ri.gbs 
    atoms 6-7, 17-30 entry H          line    19 file /home/bdw2292/miniconda3/envs/newamoebamdpoltype/share/psi4/basis/cc-pvdz-ri.gbs 

	 --------------------------------------------------------
	                          DF-MP2                         
	      2nd-Order Density-Fitted Moller-Plesset Theory     
	              RMP2 Wavefunction,   2 Threads             
	                                                         
	        Rob Parrish, Justin Turney, Andy Simmonett,      
	           Ed Hohenstein, and C. David Sherrill          
	 --------------------------------------------------------

   => Auxiliary Basis Set <=

  Basis Set: (6-31G* AUX)
    Blend: CC-PVDZ-RI
    Number of shells: 348
    Number of basis functions: 1008
    Number of Cartesian functions: 1164
    Spherical Harmonics?: true
    Max angular momentum: 3

	 --------------------------------------------------------
	                 NBF =   242, NAUX =  1008
	 --------------------------------------------------------
	   CLASS    FOCC     OCC    AOCC    AVIR     VIR    FVIR
	   PAIRS       0      52      52     190     190       0
	 --------------------------------------------------------

  DFHelper Memory: AOs need 0.572 GiB; user supplied 5.704 GiB. Using in-core AOs.


         ------------------------------------------------------------
                                     CPHF                           
                                  Rob Parrish                       
         ------------------------------------------------------------

  ==> Geometry <==

    Molecular point group: c1
    Full point group: C1

    Geometry (in Angstrom), charge = 0, multiplicity = 1:

       Center              X                  Y                   Z               Mass       
    ------------   -----------------  -----------------  -----------------  -----------------
         N           -0.240583113703     0.359810702267    -0.700387999268    14.003074004430
         C            0.889416886297    -0.284289297733    -0.154287999268    12.000000000000
         C            2.248516886297     0.024110702267    -0.839387999268    12.000000000000
         N            3.395616886297    -0.536889297733    -0.081287999268    14.003074004430
         O            0.864216886297    -1.027589297733     0.831112000732    15.994914619570
         H            2.209416886297    -0.454589297733    -1.824987999268     1.007825032230
         H            2.377116886297     1.105210702267    -0.959187999268     1.007825032230
         C           -1.553383113703     0.219210702267    -0.110687999268    12.000000000000
         C           -4.182883113703    -0.022189297733     1.026612000732    12.000000000000
         C           -3.208283113703    -1.016089297733     1.191912000732    12.000000000000
         C           -3.819383113703     1.085410702267     0.268812000732    12.000000000000
         C           -1.922683113703    -0.899689297733     0.639212000732    12.000000000000
         C           -2.533583113703     1.206810702267    -0.288087999268    12.000000000000
         C           -0.128083113703     1.281110702267    -1.835087999268    12.000000000000
         C            4.621516886297    -0.590789297733    -0.889087999268    12.000000000000
         C            3.626616886297     0.174910702267     1.190212000732    12.000000000000
         H           -3.445483113703    -1.919489297733     1.751812000732     1.007825032230
         H           -4.504883113703     1.907910702267     0.109212000732     1.007825032230
         H           -1.249483113703    -1.737889297733     0.789212000732     1.007825032230
         H           -2.330383113703     2.122210702267    -0.835887999268     1.007825032230
         H           -1.022183113703     1.232910702267    -2.465087999268     1.007825032230
         H            0.022116886297     2.295710702267    -1.453587999268     1.007825032230
         H            0.711416886297     1.023110702267    -2.483387999268     1.007825032230
         H            4.440416886297    -1.162689297733    -1.806787999268     1.007825032230
         H            4.930816886297     0.419410702267    -1.186787999268     1.007825032230
         H            3.907816886297     1.218110702267     0.995012000732     1.007825032230
         H            2.724116886297     0.199410702267     1.808512000732     1.007825032230
         H           -5.121983113703    -0.108189297733     1.445812000732     1.007825032230
         H            5.383316886297    -1.052789297733    -0.296487999268     1.007825032230
         H            4.406016886297    -0.351789297733     1.700212000732     1.007825032230

  Nuclear repulsion =  875.786019300659518
  Reference energy  = -609.589556463544227

  ==> Basis Set <==

  Basis Set: 6-31G*
    Blend: 6-31G*
    Number of shells: 116
    Number of basis functions: 242
    Number of Cartesian functions: 242
    Spherical Harmonics?: false
    Max angular momentum: 2

  ==> CGRSolver (by Rob Parrish) <==

   Number of roots    =         1
   Preconditioning    =    JACOBI
   Convergence cutoff =     1E-06
   Maximum iterations =       100

  ==> CPHFRHamiltonian (by Rob Parrish) <== 

  ==> MemDFJK: Density-Fitted J/K Matrices <==

    J tasked:                   Yes
    K tasked:                   Yes
    wK tasked:                   No
    OpenMP threads:               2
    Memory [MiB]:              5841
    Algorithm:                 Core
    Schwarz Cutoff:           1E-12
    Mask sparsity (%):      19.2337
    Fitting Condition:        1E-10

   => Auxiliary Basis Set <=

  Basis Set: (6-31G* AUX)
    Blend: CC-PVDZ-JKFIT
    Number of shells: 480
    Number of basis functions: 1534
    Number of Cartesian functions: 1534
    Spherical Harmonics?: false
    Max angular momentum: 3

  ==> CPHF Iterations <==

  => Iterations <=

             Iter  Converged  Remaining    Residual
  CGR           1          0          1   1.296E-01
  CGR           2          0          1   3.920E-02
  CGR           3          0          1   1.513E-02
  CGR           4          0          1   5.329E-03
  CGR           5          0          1   1.989E-03
  CGR           6          0          1   1.053E-03
  CGR           7          0          1   4.982E-04
  CGR           8          0          1   1.715E-04
  CGR           9          0          1   4.903E-05
  CGR          10          0          1   1.719E-05
  CGR          11          0          1   4.633E-06
  CGR          12          0          1   1.791E-06
  CGR          13          1          0   9.610E-07

    CGRSolver converged.

  ==> DFCorrGrad: Density-Fitted Correlated Gradients <==

    OpenMP threads:              2
    Integrals threads:           2
    Memory [GiB]:            5.704
    Schwarz Cutoff:          0E+00
    Fitting Condition:       1E-10

   => Auxiliary Basis Set <=

  Basis Set: (6-31G* AUX)
    Blend: CC-PVDZ-JKFIT
    Number of shells: 480
    Number of basis functions: 1534
    Number of Cartesian functions: 1534
    Spherical Harmonics?: false
    Max angular momentum: 3

	-----------------------------------------------------------
	 ==================> DF-MP2 Energies <==================== 
	-----------------------------------------------------------
	 Reference Energy          =    -609.5895564635442270 [Eh]
	 Singles Energy            =      -0.0000000000000000 [Eh]
	 Same-Spin Energy          =      -0.5181680227917497 [Eh]
	 Opposite-Spin Energy      =      -1.4630667417612671 [Eh]
	 Correlation Energy        =      -1.9812347645530166 [Eh]
	 Total Energy              =    -611.5707912280972778 [Eh]
	-----------------------------------------------------------
	 ================> DF-SCS-MP2 Energies <================== 
	-----------------------------------------------------------
	 SCS Same-Spin Scale       =       0.3333333333333333 [-]
	 SCS Opposite-Spin Scale   =       1.2000000000000000 [-]
	 SCS Same-Spin Energy      =      -0.1727226742639165 [Eh]
	 SCS Opposite-Spin Energy  =      -1.7556800901135203 [Eh]
	 SCS Correlation Energy    =      -1.9284027643774369 [Eh]
	 SCS Total Energy          =    -611.5179592279216649 [Eh]
	-----------------------------------------------------------


  -Total Gradient:
     Atom            X                  Y                   Z
    ------   -----------------  -----------------  -----------------
       1        0.004481006597     0.014774641551    -0.005014360334
       2       -0.004168542155    -0.005183566375    -0.007325605176
       3       -0.009600720378     0.010857004879    -0.015465147654
       4        0.020806803238     0.004704463881     0.001642653744
       5        0.007468018476    -0.007762749027     0.010993249283
       6       -0.004632225396    -0.002622120150     0.001580408392
       7        0.001752432730    -0.006272246511     0.005218978339
       8       -0.007456238697    -0.002148229253     0.001881301820
       9       -0.051328204751     0.000328631450     0.019618720511
      10       -0.000674106874    -0.003526502768     0.002930588314
      11       -0.011057251329    -0.002316063285     0.003667592007
      12        0.007451773121     0.017254158319    -0.007113484549
      13        0.005775430744    -0.006475004869    -0.000825472145
      14       -0.004726228927     0.000019112035    -0.002896596446
      15        0.028937524152    -0.014354174898     0.004206792930
      16        0.016853535107    -0.003942869088     0.023873934874
      17       -0.000786743965    -0.001064824280     0.000225932565
      18        0.004018033552    -0.001226739592     0.000260392943
      19       -0.001539418724    -0.005645330257     0.001410238326
      20       -0.002751507576     0.001006683778     0.000365539385
      21        0.000146236103     0.000211528177    -0.005794635707
      22        0.001890155815    -0.003182302281     0.005849067620
      23       -0.000002677475     0.001423369828    -0.004017602287
      24       -0.000833360417     0.001868620102    -0.004050165658
      25       -0.007301137773    -0.003081602775     0.001433488464
      26       -0.006695405285    -0.004327851614    -0.002385173939
      27       -0.001816799929     0.006507960739     0.003556686852
      28        0.040197686130     0.004007918486    -0.017666802268
      29       -0.012688181639     0.006876685991    -0.005623058004
      30       -0.011719884466     0.003291397802    -0.010537462201


*** tstop() called on node74.bme.utexas.edu at Wed Jun  8 10:06:34 2022
Module time:
	user time   =     137.20 seconds =       2.29 minutes
	system time =      10.95 seconds =       0.18 minutes
	total time  =         78 seconds =       1.30 minutes
Total time:
	user time   =     176.23 seconds =       2.94 minutes
	system time =      13.66 seconds =       0.23 minutes
	total time  =        100 seconds =       1.67 minutes

			-----------------------------------------
			 OPTKING 2.0: for geometry optimizations 
			  - R.A. King,  Bethel University        
			-----------------------------------------
	At level 1: Red. Int., RFO, no backsteps, dynamic trust

	Internal coordinates to be generated automatically.
	Detected frag 1 with atoms:  1 2 3 4 5 6 7 8 9 10 11 12 13 14 15 16 17 18 19 20
	 21 22 23 24 25 26 27 28 29 30
	---Fragment 1 Bond Connectivity---
	 1 : 2 8 14
	 2 : 1 3 5
	 3 : 2 4 6 7
	 4 : 3 15 16
	 5 : 2
	 6 : 3
	 7 : 3
	 8 : 1 12 13
	 9 : 10 11 28
	 10 : 9 12 17
	 11 : 9 13 18
	 12 : 8 10 19
	 13 : 8 11 20
	 14 : 1 21 22 23
	 15 : 4 24 25 29
	 16 : 4 26 27 30
	 17 : 10
	 18 : 11
	 19 : 12
	 20 : 13
	 21 : 14
	 22 : 14
	 23 : 14
	 24 : 15
	 25 : 15
	 26 : 16
	 27 : 16
	 28 : 9
	 29 : 15
	 30 : 16

	---Fragment 1 Geometry and Gradient---
	 N          -0.4546361953        0.6799436843       -1.3235415002
	 C           1.6807543265       -0.5372289131       -0.2915620631
	 C           4.2490811036        0.0455626240       -1.5862134316
	 N           6.4167859421       -1.0145737324       -0.1536120559
	 O           1.6331332281       -1.9418623422        1.5705740610
	 H           4.1751928121       -0.8590492723       -3.4487275009
	 H           4.4920998833        2.0885455382       -1.8126026214
	 C          -2.9354686528        0.4142481911       -0.2091700040
	 C          -7.9045034997       -0.0419316956        1.9400155185
	 C          -6.0627764178       -1.9201304917        2.2523872470
	 C          -7.2175880531        2.0511289609        0.5079810606
	 C          -3.6333445109       -1.7001663707        1.2079356175
	 C          -4.7877782010        2.2805417126       -0.5444074186
	 C          -0.2420420062        2.4209483637       -3.4678137347
	 C           8.7334011993       -1.1164299706       -1.6801328200
	 C           6.8533126771        0.3305333237        2.2491747126
	 H          -6.5110194548       -3.6273090735        3.3104449047
	 H          -8.5129953121        3.6054286991        0.2063807710
	 H          -2.3611808833       -3.2841348091        1.4913945363
	 H          -4.4037858523        4.0103970078       -1.5795993902
	 H          -1.9316461350        2.3298635644       -4.6583411938
	 H           0.0417948578        4.3382644906       -2.7468832179
	 H           1.3443830761        1.9333990233       -4.6929231819
	 H           8.3911717980       -2.1971643417       -3.4143344854
	 H           9.3178934899        0.7925713614       -2.2427042876
	 H           7.3847036635        2.3018956178        1.8803001729
	 H           5.1478348488        0.3768316138        3.4175923760
	 H          -9.6791453041       -0.2044481424        2.7321887103
	 H          10.1729945617       -1.9894834405       -0.5602811181
	 H           8.3261652192       -0.6647854266        3.2129350366
	             0.0044810066        0.0147746416       -0.0050143603
	            -0.0041685422       -0.0051835664       -0.0073256052
	            -0.0096007204        0.0108570049       -0.0154651477
	             0.0208068032        0.0047044639        0.0016426537
	             0.0074680185       -0.0077627490        0.0109932493
	            -0.0046322254       -0.0026221201        0.0015804084
	             0.0017524327       -0.0062722465        0.0052189783
	            -0.0074562387       -0.0021482293        0.0018813018
	            -0.0513282048        0.0003286314        0.0196187205
	            -0.0006741069       -0.0035265028        0.0029305883
	            -0.0110572513       -0.0023160633        0.0036675920
	             0.0074517731        0.0172541583       -0.0071134845
	             0.0057754307       -0.0064750049       -0.0008254721
	            -0.0047262289        0.0000191120       -0.0028965964
	             0.0289375242       -0.0143541749        0.0042067929
	             0.0168535351       -0.0039428691        0.0238739349
	            -0.0007867440       -0.0010648243        0.0002259326
	             0.0040180336       -0.0012267396        0.0002603929
	            -0.0015394187       -0.0056453303        0.0014102383
	            -0.0027515076        0.0010066838        0.0003655394
	             0.0001462361        0.0002115282       -0.0057946357
	             0.0018901558       -0.0031823023        0.0058490676
	            -0.0000026775        0.0014233698       -0.0040176023
	            -0.0008333604        0.0018686201       -0.0040501657
	            -0.0073011378       -0.0030816028        0.0014334885
	            -0.0066954053       -0.0043278516       -0.0023851739
	            -0.0018167999        0.0065079607        0.0035566869
	             0.0401976861        0.0040079185       -0.0176668023
	            -0.0126881816        0.0068766860       -0.0056230580
	            -0.0117198845        0.0032913978       -0.0105374622

	Previous optimization step data not found.  Starting new optimization.

	---Fragment 1 Intrafragment Coordinates---
	 - Coordinate -           - BOHR/RAD -       - ANG/DEG -
	 R(1,2)           =         2.665780	       1.410670
	 R(1,8)           =         2.732572	       1.446015
	 R(1,14)          =         2.770234	       1.465945
	 R(2,3)           =         2.934633	       1.552941
	 R(2,5)           =         2.332984	       1.234562
	 R(3,4)           =         2.806275	       1.485017
	 R(3,6)           =         2.071893	       1.096399
	 R(3,7)           =         2.069804	       1.095293
	 R(4,15)          =         2.776211	       1.469107
	 R(4,16)          =         2.788055	       1.475375
	 R(8,12)          =         2.639312	       1.396664
	 R(8,13)          =         2.650752	       1.402718
	 R(9,10)          =         2.648993	       1.401787
	 R(9,11)          =         2.627447	       1.390385
	 R(9,28)          =         1.950206	       1.032005
	 R(10,12)         =         2.653564	       1.404206
	 R(10,17)         =         2.057879	       1.088983
	 R(11,13)         =         2.657843	       1.406470
	 R(11,18)         =         2.045700	       1.082538
	 R(12,19)         =         2.051269	       1.085485
	 R(13,20)         =         2.052187	       1.085971
	 R(14,21)         =         2.068916	       1.094823
	 R(14,22)         =         2.067947	       1.094310
	 R(14,23)         =         2.062848	       1.091612
	 R(15,24)         =         2.071850	       1.096376
	 R(15,25)         =         2.074224	       1.097632
	 R(15,29)         =         2.022058	       1.070027
	 R(16,26)         =         2.074780	       1.097927
	 R(16,27)         =         2.067849	       1.094258
	 R(16,30)         =         2.022075	       1.070036
	 B(1,2,3)         =         2.025941	     116.077878
	 B(1,2,5)         =         2.174315	     124.579091
	 B(1,8,12)        =         2.137572	     122.473838
	 B(1,8,13)        =         2.111078	     120.955841
	 B(1,14,21)       =         1.933784	     110.797671
	 B(1,14,22)       =         1.900092	     108.867255
	 B(1,14,23)       =         1.949997	     111.726578
	 B(2,1,8)         =         2.123481	     121.666506
	 B(2,1,14)        =         2.123661	     121.676795
	 B(2,3,4)         =         1.956051	     112.073451
	 B(2,3,6)         =         1.853198	     106.180400
	 B(2,3,7)         =         1.925195	     110.305558
	 B(3,2,5)         =         2.082379	     119.311506
	 B(3,4,15)        =         1.958140	     112.193150
	 B(3,4,16)        =         1.959123	     112.249477
	 B(4,3,6)         =         1.898127	     108.754685
	 B(4,3,7)         =         1.915609	     109.756330
	 B(4,15,24)       =         1.919362	     109.971353
	 B(4,15,25)       =         1.928907	     110.518209
	 B(4,15,29)       =         1.881159	     107.782459
	 B(4,16,26)       =         1.923338	     110.199154
	 B(4,16,27)       =         1.948330	     111.631088
	 B(4,16,30)       =         1.862229	     106.697873
	 B(6,3,7)         =         1.914331	     109.683059
	 B(8,1,14)        =         2.033581	     116.515624
	 B(8,12,10)       =         2.117442	     121.320490
	 B(8,12,19)       =         2.128016	     121.926328
	 B(8,13,11)       =         2.127023	     121.869461
	 B(8,13,20)       =         2.125297	     121.770576
	 B(9,10,12)       =         2.130982	     122.096257
	 B(9,10,17)       =         2.091376	     119.826996
	 B(9,11,13)       =         2.121838	     121.572386
	 B(9,11,18)       =         2.117718	     121.336321
	 B(10,9,11)       =         2.034565	     116.571986
	 B(10,9,28)       =         2.124313	     121.714147
	 B(10,12,19)      =         2.036889	     116.705159
	 B(11,9,28)       =         2.124308	     121.713866
	 B(11,13,20)      =         2.030354	     116.330705
	 B(12,8,13)       =         2.034400	     116.562527
	 B(12,10,17)      =         2.060720	     118.070538
	 B(13,11,18)      =         2.043109	     117.061541
	 B(15,4,16)       =         1.940057	     111.157051
	 B(21,14,22)      =         1.932126	     110.702689
	 B(21,14,23)      =         1.850321	     106.015559
	 B(22,14,23)      =         1.897180	     108.700407
	 B(24,15,25)      =         1.875074	     107.433806
	 B(24,15,29)      =         1.934717	     110.851144
	 B(25,15,29)      =         1.925126	     110.301570
	 B(26,16,27)      =         1.865464	     106.883188
	 B(26,16,30)      =         1.945370	     111.461468
	 B(27,16,30)      =         1.920325	     110.026541
	 D(1,2,3,4)       =         2.997012	     171.716125
	 D(1,2,3,6)       =        -1.215953	     -69.668962
	 D(1,2,3,7)       =         0.856994	      49.102137
	 D(1,8,12,10)     =        -3.132397	    -179.473112
	 D(1,8,12,19)     =        -0.036250	      -2.076956
	 D(1,8,13,11)     =         3.133687	     179.547026
	 D(1,8,13,20)     =        -0.043511	      -2.492998
	 D(2,1,8,12)      =        -0.459050	     -26.301611
	 D(2,1,8,13)      =         2.700883	     154.749217
	 D(2,1,14,21)     =         2.572968	     147.420185
	 D(2,1,14,22)     =        -1.581493	     -90.612871
	 D(2,1,14,23)     =         0.513957	      29.447543
	 D(2,3,4,15)      =         2.857421	     163.718167
	 D(2,3,4,16)      =        -1.226315	     -70.262684
	 D(3,2,1,8)       =        -3.079480	    -176.441179
	 D(3,2,1,14)      =        -0.015880	      -0.909843
	 D(3,4,15,24)     =        -0.977073	     -55.982145
	 D(3,4,15,25)     =         1.090244	      62.466386
	 D(3,4,15,29)     =        -3.088027	    -176.930905
	 D(3,4,16,26)     =        -1.114671	     -63.865933
	 D(3,4,16,27)     =         0.955407	      54.740773
	 D(3,4,16,30)     =         3.053933	     174.977498
	 D(4,3,2,5)       =        -0.110570	      -6.335205
	 D(5,2,1,8)       =         0.026093	       1.495012
	 D(5,2,1,14)      =         3.089693	     177.026348
	 D(5,2,3,6)       =         1.959651	     112.279708
	 D(5,2,3,7)       =        -2.250588	    -128.949193
	 D(6,3,4,15)      =         0.813964	      46.636721
	 D(6,3,4,16)      =         3.013413	     172.655870
	 D(7,3,4,15)      =        -1.280317	     -73.356770
	 D(7,3,4,16)      =         0.919132	      52.662379
	 D(8,1,14,21)     =        -0.642802	     -36.829859
	 D(8,1,14,22)     =         1.485922	      85.137085
	 D(8,1,14,23)     =        -2.701813	    -154.802501
	 D(8,12,10,9)     =        -0.003526	      -0.202020
	 D(8,12,10,17)    =         3.122207	     178.889286
	 D(8,13,11,9)     =         0.001574	       0.090181
	 D(8,13,11,18)    =         3.108975	     178.131124
	 D(9,10,12,19)    =        -3.101943	    -177.728264
	 D(9,11,13,20)    =        -3.106245	    -177.974736
	 D(10,9,11,13)    =        -0.013225	      -0.757763
	 D(10,9,11,18)    =        -3.119169	    -178.715209
	 D(10,12,8,13)    =        -0.008388	      -0.480605
	 D(11,9,10,12)    =         0.014260	       0.817023
	 D(11,9,10,17)    =        -3.111202	    -178.258740
	 D(11,13,8,12)    =         0.009393	       0.538154
	 D(12,8,1,14)     =         2.756712	     157.947961
	 D(12,8,13,20)    =         3.115380	     178.498130
	 D(12,10,9,28)    =        -3.127394	    -179.186468
	 D(13,8,1,14)     =        -0.366540	     -21.001211
	 D(13,8,12,19)    =         3.087759	     176.915552
	 D(13,11,9,28)    =         3.128428	     179.245729
	 D(15,4,16,26)    =         1.094563	      62.713825
	 D(15,4,16,27)    =        -3.118545	    -178.679469
	 D(15,4,16,30)    =        -1.020018	     -58.442744
	 D(16,4,15,24)    =         3.096338	     177.407106
	 D(16,4,15,25)    =        -1.119530	     -64.144362
	 D(16,4,15,29)    =         0.985384	      56.458347
	 D(17,10,9,28)    =         0.030330	       1.737769
	 D(17,10,12,19)   =         0.023790	       1.363042
	 D(18,11,9,28)    =         0.022485	       1.288283
	 D(18,11,13,20)   =         0.001156	       0.066208
	 R(5,12)          =         5.284478	       2.796425
	 R(5,16)          =         5.733634	       3.034108

	Current energy   :      -611.5707912281

	Generating empirical Hessian (Schlegel '84) for each fragment.
	Taking RFO optimization step.
	Going to follow RFO solution 1.
	Using RFO vector 1.
	Norm of target step-size    0.35251
	Projected energy change by RFO approximation:        -0.0238914309

	Back-transformation to cartesian coordinates...
	Successfully converged to displaced geometry.

	--- Internal Coordinate Step in ANG or DEG, aJ/ANG or AJ/DEG ---
	 ---------------------------------------------------------------------------
	   Coordinate                Previous        Force       Change         New 
	   ----------                --------       ------       ------       ------
	    1 R(1,2)          =      1.410670    -0.163779    -0.024515     1.386155
	    2 R(1,8)          =      1.446015    -0.133559    -0.022892     1.423123
	    3 R(1,14)         =      1.465945    -0.034130    -0.005723     1.460221
	    4 R(2,3)          =      1.552941    -0.065702    -0.017016     1.535925
	    5 R(2,5)          =      1.234562    -0.105271    -0.007637     1.226925
	    6 R(3,4)          =      1.485017    -0.209888    -0.039014     1.446003
	    7 R(3,6)          =      1.096399     0.000912     0.000162     1.096561
	    8 R(3,7)          =      1.095293     0.054013     0.009563     1.104856
	    9 R(4,15)         =      1.469107    -0.076685    -0.012990     1.456118
	   10 R(4,16)         =      1.475375    -0.096721    -0.017841     1.457534
	   11 R(8,12)         =      1.396664     0.046911     0.006038     1.402702
	   12 R(8,13)         =      1.402718    -0.012594    -0.001579     1.401138
	   13 R(9,10)         =      1.401787    -0.041787    -0.005794     1.395993
	   14 R(9,11)         =      1.390385     0.019989     0.002462     1.392847
	   15 R(9,28)         =      1.032005     0.363239     0.052372     1.084377
	   16 R(10,12)        =      1.404206    -0.087333    -0.011922     1.392284
	   17 R(10,17)        =      1.088983    -0.009647    -0.001675     1.087308
	   18 R(11,13)        =      1.406470    -0.092573    -0.012763     1.393707
	   19 R(11,18)        =      1.082538     0.028958     0.004926     1.087464
	   20 R(12,19)        =      1.085485    -0.029655    -0.005091     1.080394
	   21 R(13,20)        =      1.085971    -0.001230    -0.000212     1.085759
	   22 R(14,21)        =      1.094823    -0.026411    -0.004669     1.090154
	   23 R(14,22)        =      1.094310     0.005371     0.000948     1.095259
	   24 R(14,23)        =      1.091612    -0.016869    -0.002952     1.088660
	   25 R(15,24)        =      1.096376    -0.021034    -0.003736     1.092639
	   26 R(15,25)        =      1.097632     0.043519     0.007761     1.105393
	   27 R(15,29)        =      1.070027     0.124541     0.020355     1.090382
	   28 R(16,26)        =      1.097927     0.044513     0.007945     1.105872
	   29 R(16,27)        =      1.094258    -0.030103    -0.005312     1.088946
	   30 R(16,30)        =      1.070036     0.125056     0.020440     1.090476
	   31 B(1,2,3)        =    116.077878    -0.000730    -1.511364   114.566514
	   32 B(1,2,5)        =    124.579091    -0.000256    -0.997403   123.581688
	   33 B(1,8,12)       =    122.473838     0.000272     0.165087   122.638925
	   34 B(1,8,13)       =    120.955841    -0.000900    -2.273264   118.682577
	   35 B(1,14,21)      =    110.797671    -0.000516    -2.350870   108.446801
	   36 B(1,14,22)      =    108.867255     0.000847     3.678266   112.545520
	   37 B(1,14,23)      =    111.726578    -0.000399    -1.527293   110.199286
	   38 B(2,1,8)        =    121.666506     0.000536     0.614718   122.281224
	   39 B(2,1,14)       =    121.676795    -0.000431    -0.790833   120.885963
	   40 B(2,3,4)        =    112.073451    -0.000074    -0.877802   111.195648
	   41 B(2,3,6)        =    106.180400     0.000300     1.878259   108.058659
	   42 B(2,3,7)        =    110.305558    -0.000077    -0.025521   110.280037
	   43 B(3,2,5)        =    119.311506     0.000989     2.528623   121.840129
	   44 B(3,4,15)       =    112.193150    -0.000318    -2.264298   109.928852
	   45 B(3,4,16)       =    112.249477     0.000129    -1.029522   111.219955
	   46 B(4,3,6)        =    108.754685    -0.000245    -1.320645   107.434039
	   47 B(4,3,7)        =    109.756330     0.000302     1.984396   111.740726
	   48 B(4,15,24)      =    109.971353    -0.000216    -1.008088   108.963264
	   49 B(4,15,25)      =    110.518209     0.000642     3.050681   113.568890
	   50 B(4,15,29)      =    107.782459     0.000194     0.491297   108.273756
	   51 B(4,16,26)      =    110.199154     0.000479     2.290695   112.489850
	   52 B(4,16,27)      =    111.631088    -0.000681    -2.850006   108.781082
	   53 B(4,16,30)      =    106.697873     0.000491     1.724112   108.421985
	   54 B(6,3,7)        =    109.683059    -0.000221    -1.718089   107.964971
	   55 B(8,1,14)       =    116.515624    -0.000108     0.105287   116.620911
	   56 B(8,12,10)      =    121.320490    -0.000430    -1.304376   120.016114
	   57 B(8,12,19)      =    121.926328    -0.000134    -0.793940   121.132388
	   58 B(8,13,11)      =    121.869461    -0.000393    -1.255688   120.613773
	   59 B(8,13,20)      =    121.770576    -0.000033    -0.322918   121.447658
	   60 B(9,10,12)      =    122.096257    -0.000179    -0.629534   121.466723
	   61 B(9,10,17)      =    119.826996     0.000121     0.450310   120.277307
	   62 B(9,11,13)      =    121.572386    -0.000201    -0.660445   120.911942
	   63 B(9,11,18)      =    121.336321    -0.000061    -0.325965   121.010355
	   64 B(10,9,11)      =    116.571986     0.000575     1.751764   118.323751
	   65 B(10,9,28)      =    121.714147    -0.000301    -0.965514   120.748633
	   66 B(10,12,19)     =    116.705159     0.000565     2.132724   118.837883
	   67 B(11,9,28)      =    121.713866    -0.000274    -0.786409   120.927458
	   68 B(11,13,20)     =    116.330705     0.000427     1.586462   117.917167
	   69 B(12,8,13)      =    116.562527     0.000627     2.101110   118.663636
	   70 B(12,10,17)     =    118.070538     0.000058     0.182973   118.253511
	   71 B(13,11,18)     =    117.061541     0.000263     1.005436   118.066977
	   72 B(15,4,16)      =    111.157051    -0.000048    -1.104767   110.052283
	   73 B(21,14,22)     =    110.702689    -0.000247    -1.204161   109.498528
	   74 B(21,14,23)     =    106.015559     0.000381     1.155327   107.170886
	   75 B(22,14,23)     =    108.700407    -0.000091     0.134909   108.835317
	   76 B(24,15,25)     =    107.433806    -0.000006     0.646535   108.080341
	   77 B(24,15,29)     =    110.851144    -0.000235    -1.713778   109.137366
	   78 B(25,15,29)     =    110.301570    -0.000378    -1.554127   108.747443
	   79 B(26,16,27)     =    106.883188     0.000289     1.878292   108.761481
	   80 B(26,16,30)     =    111.461468    -0.000489    -2.126115   109.335353
	   81 B(27,16,30)     =    110.026541    -0.000115    -1.031366   108.995176
	   82 D(1,2,3,4)      =    171.716125     0.000047     3.261904   174.978030
	   83 D(1,2,3,6)      =    -69.668962     0.000012     2.320645   -67.348317
	   84 D(1,2,3,7)      =     49.102137    -0.000018     1.346343    50.448480
	   85 D(1,8,12,10)    =   -179.473112     0.000008     0.415177  -179.057936
	   86 D(1,8,12,19)    =     -2.076956     0.000024     1.661137    -0.415819
	   87 D(1,8,13,11)    =    179.547026    -0.000007    -0.513564   179.033462
	   88 D(1,8,13,20)    =     -2.492998    -0.000003    -0.191553    -2.684551
	   89 D(2,1,8,12)     =    -26.301611    -0.000045    -4.269280   -30.570892
	   90 D(2,1,8,13)     =    154.749217    -0.000038    -3.897917   150.851300
	   91 D(2,1,14,21)    =    147.420185    -0.000004    -0.022454   147.397732
	   92 D(2,1,14,22)    =    -90.612871    -0.000022    -0.693681   -91.306552
	   93 D(2,1,14,23)    =     29.447543     0.000023     0.928301    30.375844
	   94 D(2,3,4,15)     =    163.718167     0.000023     2.066806   165.784973
	   95 D(2,3,4,16)     =    -70.262684    -0.000027    -1.810292   -72.072976
	   96 D(3,2,1,8)      =   -176.441179    -0.000013    -0.957902  -177.399081
	   97 D(3,2,1,14)     =     -0.909843    -0.000024    -1.958656    -2.868499
	   98 D(3,4,15,24)    =    -55.982145    -0.000055    -3.280317   -59.262462
	   99 D(3,4,15,25)    =     62.466386     0.000004    -1.203150    61.263236
	  100 D(3,4,15,29)    =   -176.930905     0.000013    -0.920446  -177.851351
	  101 D(3,4,16,26)    =    -63.865933     0.000025     2.092629   -61.773304
	  102 D(3,4,16,27)    =     54.740773     0.000081     4.047690    58.788463
	  103 D(3,4,16,30)    =    174.977498     0.000029     2.211382   177.188880
	  104 D(4,3,2,5)      =     -6.335205     0.000019     0.112482    -6.222722
	  105 D(5,2,1,8)      =      1.495012     0.000023     2.330336     3.825348
	  106 D(5,2,1,14)     =    177.026348     0.000012     1.329582   178.355930
	  107 D(5,2,3,6)      =    112.279708    -0.000016    -0.828777   111.450931
	  108 D(5,2,3,7)      =   -128.949193    -0.000046    -1.803079  -130.752272
	  109 D(6,3,4,15)     =     46.636721    -0.000017     1.096459    47.733180
	  110 D(6,3,4,16)     =    172.655870    -0.000066    -2.780639   169.875232
	  111 D(7,3,4,15)     =    -73.356770     0.000038     2.843136   -70.513634
	  112 D(7,3,4,16)     =     52.662379    -0.000011    -1.033961    51.628418
	  113 D(8,1,14,21)    =    -36.829859    -0.000008    -0.943944   -37.773802
	  114 D(8,1,14,22)    =     85.137085    -0.000026    -1.615171    83.521914
	  115 D(8,1,14,23)    =   -154.802501     0.000019     0.006811  -154.795690
	  116 D(8,12,10,9)    =     -0.202020     0.000003     0.217587     0.015567
	  117 D(8,12,10,17)   =    178.889286     0.000007     0.557185   179.446471
	  118 D(8,13,11,9)    =      0.090181    -0.000000     0.063072     0.153253
	  119 D(8,13,11,18)   =    178.131124     0.000008     0.842542   178.973667
	  120 D(9,10,12,19)   =   -177.728264    -0.000008    -0.929314  -178.657579
	  121 D(9,11,13,20)   =   -177.974736    -0.000002    -0.213332  -178.188068
	  122 D(10,9,11,13)   =     -0.757763     0.000001     0.145413    -0.612350
	  123 D(10,9,11,18)   =   -178.715209    -0.000009    -0.682696  -179.397905
	  124 D(10,12,8,13)   =     -0.480605    -0.000002     0.000735    -0.479870
	  125 D(11,9,10,12)   =      0.817023    -0.000003    -0.286993     0.530030
	  126 D(11,9,10,17)   =   -178.258740    -0.000006    -0.630756  -178.889495
	  127 D(11,13,8,12)   =      0.538154    -0.000000    -0.139831     0.398323
	  128 D(12,8,1,14)    =    157.947961    -0.000030    -3.269086   154.678875
	  129 D(12,8,13,20)   =    178.498130     0.000003     0.182179   178.680310
	  130 D(12,10,9,28)   =   -179.186468    -0.000005    -0.426864  -179.613332
	  131 D(13,8,1,14)    =    -21.001211    -0.000024    -2.897723   -23.898934
	  132 D(13,8,12,19)   =    176.915552     0.000014     1.246695   178.162247
	  133 D(13,11,9,28)   =    179.245729     0.000004     0.285551   179.531279
	  134 D(15,4,16,26)   =     62.713825    -0.000058    -2.416641    60.297184
	  135 D(15,4,16,27)   =   -178.679469    -0.000002    -0.461580  -179.141049
	  136 D(15,4,16,30)   =    -58.442744    -0.000054    -2.297888   -60.740632
	  137 D(16,4,15,24)   =    177.407106    -0.000028     0.497775   177.904882
	  138 D(16,4,15,25)   =    -64.144362     0.000030     2.574943   -61.569420
	  139 D(16,4,15,29)   =     56.458347     0.000039     2.857647    59.315994
	  140 D(17,10,9,28)   =      1.737769    -0.000009    -0.770626     0.967143
	  141 D(17,10,12,19)  =      1.363042    -0.000005    -0.589716     0.773325
	  142 D(18,11,9,28)   =      1.288283    -0.000007    -0.542559     0.745724
	  143 D(18,11,13,20)  =      0.066208     0.000007     0.566138     0.632346
	  144 R(5,12)         =      2.796425    -0.020658    -0.010337     2.786088
	  145 R(5,16)         =      3.034108    -0.018374    -0.005517     3.028591
	 ---------------------------------------------------------------------------
	Successfully symmetrized geometry.

  ==> Convergence Check <==

  Measures of convergence in internal coordinates in au.
  Criteria marked as inactive (o), active & met (*), and active & unmet ( ).
  --------------------------------------------------------------------------------------------- ~
   Step     Total Energy     Delta E     MAX Force     RMS Force      MAX Disp      RMS Disp    ~
  --------------------------------------------------------------------------------------------- ~
    Convergence Criteria             o    4.50e-04 *    3.00e-04 *    1.80e-03 *    1.20e-03 *  ~
  --------------------------------------------------------------------------------------------- ~
      1    -611.57079123   -6.12e+02 o    4.41e-02      6.58e-03      9.90e-02      2.93e-02    ~
  ---------------------------------------------------------------------------------------------

	Writing optimization data to binary file.
	Structure for next step:
	Cartesian Geometry (in Angstrom)
	    N    -0.2163834057   0.3242870613  -0.6418575581
	    C     0.8901712685  -0.2884072312  -0.0747867427
	    C     2.2196973904   0.0134511345  -0.7821114421
	    N     3.3356205478  -0.5635060247  -0.0660386407
	    O     0.8292543325  -1.0330196632   0.8984476933
	    H     2.1901114653  -0.4520639224  -1.7745153013
	    H     2.3412797534   1.1028777076  -0.9202198017
	    C    -1.5210853307   0.2009858570  -0.0870345667
	    C    -4.1444215518   0.0359661630   0.9420522795
	    C    -3.2368090978  -1.0102164983   1.1168000796
	    C    -3.7272316541   1.1617622450   0.2359651865
	    C    -1.9406390095  -0.9396006219   0.6134004175
	    C    -2.4326109794   1.2487512481  -0.2727672175
	    C    -0.0717795685   1.2287203812  -1.7791070351
	    C     4.5223850736  -0.5591814369  -0.9097511930
	    C     3.5994536362   0.1602628771   1.1712796070
	    H    -3.5345746252  -1.9114502711   1.6472268419
	    H    -4.3951219249   2.0061085604   0.0824104856
	    H    -1.2802518182  -1.7829931661   0.7542127226
	    H    -2.1496755311   2.1608154729  -0.7894481486
	    H    -0.9586006164   1.1383466977  -2.4066557706
	    H     0.0540541352   2.2725371137  -1.4721807564
	    H     0.7828865390   0.9354426489  -2.3863252603
	    H     4.3172600872  -1.1371620132  -1.8140316826
	    H     4.8437709352   0.4533584305  -1.2153122057
	    H     3.8745161388   1.2164588082   0.9931125237
	    H     2.7052014606   0.1311456327   1.7919798541
	    H    -5.1492789969  -0.0287874188   1.3444716184
	    H     5.3351554858  -1.0335394156  -0.3590038995
	    H     4.4128524046  -0.3409293067   1.6969479524
			--------------------------
			 OPTKING Finished Execution 
			--------------------------

    Structure for next step:
    Molecular point group: c1
    Full point group: C1

    Geometry (in Angstrom), charge = 0, multiplicity = 1:

    N           -0.218062936134     0.324681352731    -0.650602012769
    C            0.888491742491    -0.288012942185    -0.083531195226
    C            2.218017869594     0.013845424695    -0.790855897346
    N            3.333941031378    -0.563111736747    -0.074783093127
    O            0.827574806179    -1.032625377116     0.889703244672
    H            2.188431944367    -0.451669634017    -1.783259760478
    H            2.339600233042     1.103272002096    -0.928964257452
    C           -1.522764866224     0.201380147941    -0.095779019258
    C           -4.146101097594     0.036360453285     0.933307830979
    C           -3.238488640057    -1.009822212140     1.108055631831
    C           -3.728911198332     1.162156539714     0.227220735216
    C           -1.942318546654    -0.939206335431     0.604655967680
    C           -2.434290518481     1.249145543147    -0.281511670707
    C           -0.073459098324     1.229114676158    -1.787851494260
    C            4.520705561856    -0.558787148953    -0.918495648715
    C            3.597774120846     0.160657167925     1.162535159443
    H           -3.536254168670    -1.911055988403     1.638482396182
    H           -4.396801471698     2.006502858432     0.073666033734
    H           -1.281931352810    -1.782598882905     0.745468273365
    H           -2.151355069115     2.161209771528    -0.798192603877
    H           -0.960280149749     1.138740992374    -2.415400232281
    H            0.052374605869     2.272931412751    -1.480925214342
    H            0.781207012557     0.935836942735    -2.395069721863
    H            4.315580574618    -1.136767727504    -1.822776141926
    H            4.842091424742     0.453752722408    -1.224056662679
    H            3.872836624476     1.216853103189     0.984368075429
    H            2.703521941642     0.131539923380     1.783235408973
    H           -5.150958546699    -0.028393128757     1.335727171466
    H            5.333475977207    -1.033145129451    -0.367748353116
    H            4.411172892368    -0.340535017900     1.688203506891


Scratch directory: /scratch/bdw2292/Psi4-25_27_Index_0-farH_in17/

Scratch directory: /scratch/bdw2292/Psi4-25_27_Index_0-farH_in17/
gradient() will perform analytic gradient computation.
    SCF Algorithm Type (re)set to DF.

*** tstart() called on node74.bme.utexas.edu
*** at Wed Jun  8 10:06:34 2022

   => Loading Basis Set <=

    Name: 6-31G*
    Role: ORBITAL
    Keyword: BASIS
    atoms 1, 4       entry N          line   128 file /home/bdw2292/miniconda3/envs/newamoebamdpoltype/share/psi4/basis/6-31gs.gbs 
    atoms 2-3, 8-16  entry C          line   111 file /home/bdw2292/miniconda3/envs/newamoebamdpoltype/share/psi4/basis/6-31gs.gbs 
    atoms 5          entry O          line   145 file /home/bdw2292/miniconda3/envs/newamoebamdpoltype/share/psi4/basis/6-31gs.gbs 
    atoms 6-7, 17-30 entry H          line    44 file /home/bdw2292/miniconda3/envs/newamoebamdpoltype/share/psi4/basis/6-31gs.gbs 


         ---------------------------------------------------------
                                   SCF
               by Justin Turney, Rob Parrish, Andy Simmonett
                          and Daniel G. A. Smith
                              RHF Reference
                        2 Threads,   7788 MiB Core
         ---------------------------------------------------------

  ==> Geometry <==

    Molecular point group: c1
    Full point group: C1

    Geometry (in Angstrom), charge = 0, multiplicity = 1:

       Center              X                  Y                   Z               Mass       
    ------------   -----------------  -----------------  -----------------  -----------------
         N           -0.218062936134     0.324681352731    -0.650602012769    14.003074004430
         C            0.888491742491    -0.288012942185    -0.083531195226    12.000000000000
         C            2.218017869594     0.013845424695    -0.790855897346    12.000000000000
         N            3.333941031378    -0.563111736747    -0.074783093127    14.003074004430
         O            0.827574806179    -1.032625377116     0.889703244672    15.994914619570
         H            2.188431944367    -0.451669634017    -1.783259760478     1.007825032230
         H            2.339600233042     1.103272002096    -0.928964257452     1.007825032230
         C           -1.522764866224     0.201380147941    -0.095779019258    12.000000000000
         C           -4.146101097594     0.036360453285     0.933307830979    12.000000000000
         C           -3.238488640057    -1.009822212140     1.108055631831    12.000000000000
         C           -3.728911198332     1.162156539714     0.227220735216    12.000000000000
         C           -1.942318546654    -0.939206335431     0.604655967680    12.000000000000
         C           -2.434290518481     1.249145543147    -0.281511670707    12.000000000000
         C           -0.073459098324     1.229114676158    -1.787851494260    12.000000000000
         C            4.520705561856    -0.558787148953    -0.918495648715    12.000000000000
         C            3.597774120846     0.160657167925     1.162535159443    12.000000000000
         H           -3.536254168670    -1.911055988403     1.638482396182     1.007825032230
         H           -4.396801471698     2.006502858432     0.073666033734     1.007825032230
         H           -1.281931352810    -1.782598882905     0.745468273365     1.007825032230
         H           -2.151355069115     2.161209771528    -0.798192603877     1.007825032230
         H           -0.960280149749     1.138740992374    -2.415400232281     1.007825032230
         H            0.052374605869     2.272931412751    -1.480925214342     1.007825032230
         H            0.781207012557     0.935836942735    -2.395069721863     1.007825032230
         H            4.315580574618    -1.136767727504    -1.822776141926     1.007825032230
         H            4.842091424742     0.453752722408    -1.224056662679     1.007825032230
         H            3.872836624476     1.216853103189     0.984368075429     1.007825032230
         H            2.703521941642     0.131539923380     1.783235408973     1.007825032230
         H           -5.150958546699    -0.028393128757     1.335727171466     1.007825032230
         H            5.333475977207    -1.033145129451    -0.367748353116     1.007825032230
         H            4.411172892368    -0.340535017900     1.688203506891     1.007825032230

  Running in c1 symmetry.

  Rotational constants: A =      0.06234  B =      0.01090  C =      0.00989 [cm^-1]
  Rotational constants: A =   1868.91111  B =    326.70951  C =    296.52222 [MHz]
  Nuclear repulsion =  884.850389864223303

  Charge       = 0
  Multiplicity = 1
  Electrons    = 104
  Nalpha       = 52
  Nbeta        = 52

  ==> Algorithm <==

  SCF Algorithm Type is DF.
  DIIS enabled.
  MOM disabled.
  Fractional occupation disabled.
  Guess Type is READ.
  Energy threshold   = 1.00e-10
  Density threshold  = 1.00e-10
  Integral threshold = 1.00e-12

  ==> Primary Basis <==

  Basis Set: 6-31G*
    Blend: 6-31G*
    Number of shells: 116
    Number of basis functions: 242
    Number of Cartesian functions: 242
    Spherical Harmonics?: false
    Max angular momentum: 2

   => Loading Basis Set <=

    Name: (6-31G* AUX)
    Role: JKFIT
    Keyword: DF_BASIS_SCF
    atoms 1, 4       entry N          line   171 file /home/bdw2292/miniconda3/envs/newamoebamdpoltype/share/psi4/basis/cc-pvdz-jkfit.gbs 
    atoms 2-3, 8-16  entry C          line   121 file /home/bdw2292/miniconda3/envs/newamoebamdpoltype/share/psi4/basis/cc-pvdz-jkfit.gbs 
    atoms 5          entry O          line   221 file /home/bdw2292/miniconda3/envs/newamoebamdpoltype/share/psi4/basis/cc-pvdz-jkfit.gbs 
    atoms 6-7, 17-30 entry H          line    51 file /home/bdw2292/miniconda3/envs/newamoebamdpoltype/share/psi4/basis/cc-pvdz-jkfit.gbs 

   => Loading Basis Set <=

    Name: 6-31G*
    Role: ORBITAL
    Keyword: BASIS
    atoms 1, 4       entry N          line   128 file /home/bdw2292/miniconda3/envs/newamoebamdpoltype/share/psi4/basis/6-31gs.gbs 
    atoms 2-3, 8-16  entry C          line   111 file /home/bdw2292/miniconda3/envs/newamoebamdpoltype/share/psi4/basis/6-31gs.gbs 
    atoms 5          entry O          line   145 file /home/bdw2292/miniconda3/envs/newamoebamdpoltype/share/psi4/basis/6-31gs.gbs 
    atoms 6-7, 17-30 entry H          line    44 file /home/bdw2292/miniconda3/envs/newamoebamdpoltype/share/psi4/basis/6-31gs.gbs 

  Reading orbitals from file /scratch/bdw2292/Psi4-25_27_Index_0-farH_in17/25_27_Index_0-opt_1.default.1078621.180.npy, no projection.

  ==> Integral Setup <==

  DFHelper Memory: AOs need 0.577 GiB; user supplied 5.704 GiB. Using in-core AOs.

  ==> MemDFJK: Density-Fitted J/K Matrices <==

    J tasked:                   Yes
    K tasked:                   Yes
    wK tasked:                   No
    OpenMP threads:               2
    Memory [MiB]:              5841
    Algorithm:                 Core
    Schwarz Cutoff:           1E-12
    Mask sparsity (%):      18.4892
    Fitting Condition:        1E-10

   => Auxiliary Basis Set <=

  Basis Set: (6-31G* AUX)
    Blend: CC-PVDZ-JKFIT
    Number of shells: 480
    Number of basis functions: 1534
    Number of Cartesian functions: 1534
    Spherical Harmonics?: false
    Max angular momentum: 3

  Minimum eigenvalue in the overlap matrix is 4.5348633904E-04.
  Reciprocal condition number of the overlap matrix is 5.8576249405E-05.
    Using symmetric orthogonalization.

  ==> Pre-Iterations <==

  SCF Guess: Orbitals guess was supplied from a previous computation.

   -------------------------------------------------------
    Irrep   Nso     Nmo     Nalpha   Nbeta   Ndocc  Nsocc
   -------------------------------------------------------
     A        242     242      52      52      52       0
   -------------------------------------------------------
    Total     242     242      52      52      52       0
   -------------------------------------------------------

  ==> Iterations <==

                           Total Energy        Delta E     RMS |[F,P]|

   @DF-RHF iter   0:  -609.62196200340247   -6.09622e+02   1.11920e-03 
   @DF-RHF iter   1:  -609.59811286490401    2.38491e-02   1.67508e-04 DIIS
   @DF-RHF iter   2:  -609.59938735197056   -1.27449e-03   6.98818e-05 DIIS
   @DF-RHF iter   3:  -609.59957728029826   -1.89928e-04   3.03160e-05 DIIS
   @DF-RHF iter   4:  -609.59962590438204   -4.86241e-05   7.44180e-06 DIIS
   @DF-RHF iter   5:  -609.59962904416739   -3.13979e-06   2.91139e-06 DIIS
   @DF-RHF iter   6:  -609.59962962656698   -5.82400e-07   9.67941e-07 DIIS
   @DF-RHF iter   7:  -609.59962969433991   -6.77729e-08   3.55646e-07 DIIS
   @DF-RHF iter   8:  -609.59962970198853   -7.64862e-09   1.28147e-07 DIIS
   @DF-RHF iter   9:  -609.59962970361687   -1.62834e-09   6.27072e-08 DIIS
   @DF-RHF iter  10:  -609.59962970391848   -3.01611e-10   2.44314e-08 DIIS
   @DF-RHF iter  11:  -609.59962970400625   -8.77662e-11   1.06073e-08 DIIS
   @DF-RHF iter  12:  -609.59962970402216   -1.59162e-11   3.95131e-09 DIIS
   @DF-RHF iter  13:  -609.59962970402216    0.00000e+00   1.57893e-09 DIIS
   @DF-RHF iter  14:  -609.59962970402285   -6.82121e-13   6.94040e-10 DIIS
   @DF-RHF iter  15:  -609.59962970402364   -7.95808e-13   2.95339e-10 DIIS
   @DF-RHF iter  16:  -609.59962970402307    5.68434e-13   1.18712e-10 DIIS
   @DF-RHF iter  17:  -609.59962970402330   -2.27374e-13   4.28983e-11 DIIS
  Energy and wave function converged.


  ==> Post-Iterations <==

    Orbital Energies [Eh]
    ---------------------

    Doubly Occupied:                                                      

       1A    -20.528490     2A    -15.607422     3A    -15.554176  
       4A    -11.359096     5A    -11.280721     6A    -11.277576  
       7A    -11.271636     8A    -11.246548     9A    -11.234740  
      10A    -11.234602    11A    -11.232191    12A    -11.230549  
      13A    -11.227120    14A    -11.222841    15A     -1.379622  
      16A     -1.262115    17A     -1.234182    18A     -1.137433  
      19A     -1.023434    20A     -1.010821    21A     -0.984084  
      22A     -0.955182    23A     -0.949989    24A     -0.858226  
      25A     -0.821122    26A     -0.806725    27A     -0.748302  
      28A     -0.694097    29A     -0.693195    30A     -0.668964  
      31A     -0.661077    32A     -0.636895    33A     -0.633769  
      34A     -0.621957    35A     -0.607047    36A     -0.593044  
      37A     -0.577881    38A     -0.573000    39A     -0.563332  
      40A     -0.546708    41A     -0.537188    42A     -0.528197  
      43A     -0.510087    44A     -0.508504    45A     -0.503725  
      46A     -0.489545    47A     -0.487063    48A     -0.413665  
      49A     -0.410022    50A     -0.360781    51A     -0.328810  
      52A     -0.302438  

    Virtual:                                                              

      53A      0.140263    54A      0.148441    55A      0.197538  
      56A      0.214897    57A      0.234176    58A      0.251402  
      59A      0.266659    60A      0.288930    61A      0.295685  
      62A      0.297268    63A      0.303528    64A      0.314354  
      65A      0.316637    66A      0.322437    67A      0.335790  
      68A      0.342195    69A      0.344766    70A      0.353102  
      71A      0.363911    72A      0.366620    73A      0.384228  
      74A      0.391855    75A      0.424204    76A      0.431768  
      77A      0.442647    78A      0.480565    79A      0.481809  
      80A      0.506863    81A      0.520194    82A      0.552097  
      83A      0.569926    84A      0.593534    85A      0.677686  
      86A      0.712451    87A      0.717546    88A      0.744635  
      89A      0.748856    90A      0.750030    91A      0.763627  
      92A      0.767647    93A      0.774216    94A      0.802740  
      95A      0.806856    96A      0.825083    97A      0.831415  
      98A      0.832614    99A      0.842589   100A      0.843341  
     101A      0.847690   102A      0.853969   103A      0.883088  
     104A      0.897405   105A      0.907887   106A      0.922726  
     107A      0.934290   108A      0.958247   109A      0.978824  
     110A      0.983516   111A      0.998010   112A      1.027014  
     113A      1.045798   114A      1.080166   115A      1.084226  
     116A      1.094881   117A      1.103299   118A      1.108728  
     119A      1.113966   120A      1.116878   121A      1.122984  
     122A      1.128324   123A      1.139606   124A      1.154645  
     125A      1.159208   126A      1.165568   127A      1.176024  
     128A      1.183644   129A      1.195029   130A      1.210725  
     131A      1.213402   132A      1.226674   133A      1.227367  
     134A      1.245108   135A      1.266622   136A      1.275151  
     137A      1.285497   138A      1.291018   139A      1.295090  
     140A      1.325537   141A      1.354108   142A      1.367610  
     143A      1.411945   144A      1.423233   145A      1.453242  
     146A      1.468070   147A      1.493423   148A      1.524655  
     149A      1.548650   150A      1.582057   151A      1.618815  
     152A      1.661023   153A      1.671494   154A      1.674478  
     155A      1.689839   156A      1.703594   157A      1.717382  
     158A      1.738082   159A      1.743673   160A      1.758876  
     161A      1.780228   162A      1.807441   163A      1.846569  
     164A      1.885755   165A      1.933007   166A      2.001198  
     167A      2.057259   168A      2.067180   169A      2.070678  
     170A      2.093892   171A      2.109456   172A      2.128628  
     173A      2.139595   174A      2.167489   175A      2.185175  
     176A      2.203932   177A      2.237074   178A      2.260698  
     179A      2.265613   180A      2.278506   181A      2.307645  
     182A      2.319567   183A      2.326536   184A      2.352131  
     185A      2.359737   186A      2.394423   187A      2.404918  
     188A      2.421004   189A      2.452086   190A      2.463020  
     191A      2.473469   192A      2.480041   193A      2.485077  
     194A      2.497338   195A      2.524831   196A      2.539148  
     197A      2.549459   198A      2.569361   199A      2.601438  
     200A      2.609061   201A      2.621868   202A      2.639548  
     203A      2.654348   204A      2.728145   205A      2.735950  
     206A      2.787811   207A      2.803749   208A      2.861490  
     209A      2.881427   210A      2.884036   211A      2.934636  
     212A      2.941162   213A      2.964167   214A      2.990741  
     215A      3.019177   216A      3.057325   217A      3.077675  
     218A      3.112004   219A      3.124343   220A      3.141704  
     221A      3.187144   222A      3.210937   223A      3.217225  
     224A      3.342373   225A      3.392700   226A      3.448502  
     227A      3.671464   228A      3.815431   229A      4.442129  
     230A      4.516514   231A      4.523910   232A      4.547868  
     233A      4.571153   234A      4.590747   235A      4.698433  
     236A      4.737384   237A      4.756077   238A      4.767781  
     239A      4.806272   240A      4.836305   241A      4.985575  
     242A      5.176701  

    Final Occupation by Irrep:
              A 
    DOCC [    52 ]

  @DF-RHF Final Energy:  -609.59962970402330

   => Energetics <=

    Nuclear Repulsion Energy =            884.8503898642233025
    One-Electron Energy =               -2584.6401710782365626
    Two-Electron Energy =                1090.1901515099898461
    Total Energy =                       -609.5996297040233003

Computation Completed


Properties will be evaluated at   0.000000,   0.000000,   0.000000 [a0]

Properties computed using the SCF density matrix

  Nuclear Dipole Moment: [e a0]
     X:    12.5221      Y:     4.4360      Z:    -4.6503

  Electronic Dipole Moment: [e a0]
     X:   -12.3888      Y:    -3.3090      Z:     3.4137

  Dipole Moment: [e a0]
     X:     0.1333      Y:     1.1271      Z:    -1.2365     Total:     1.6784

  Dipole Moment: [D]
     X:     0.3387      Y:     2.8647      Z:    -3.1430     Total:     4.2661


*** tstop() called on node74.bme.utexas.edu at Wed Jun  8 10:06:53 2022
Module time:
	user time   =      35.18 seconds =       0.59 minutes
	system time =       2.07 seconds =       0.03 minutes
	total time  =         19 seconds =       0.32 minutes
Total time:
	user time   =     211.81 seconds =       3.53 minutes
	system time =      15.81 seconds =       0.26 minutes
	total time  =        119 seconds =       1.98 minutes

*** tstart() called on node74.bme.utexas.edu
*** at Wed Jun  8 10:06:53 2022


  //>>>>>>>>>>>>>>>>>>>>>>>>>>>>>>>>>>>//
  //               DFMP2               //
  //<<<<<<<<<<<<<<<<<<<<<<<<<<<<<<<<<<<//

   => Loading Basis Set <=

    Name: (6-31G* AUX)
    Role: RIFIT
    Keyword: DF_BASIS_MP2
    atoms 1, 4       entry N          line   197 file /home/bdw2292/miniconda3/envs/newamoebamdpoltype/share/psi4/basis/cc-pvdz-ri.gbs 
    atoms 2-3, 8-16  entry C          line   159 file /home/bdw2292/miniconda3/envs/newamoebamdpoltype/share/psi4/basis/cc-pvdz-ri.gbs 
    atoms 5          entry O          line   235 file /home/bdw2292/miniconda3/envs/newamoebamdpoltype/share/psi4/basis/cc-pvdz-ri.gbs 
    atoms 6-7, 17-30 entry H          line    19 file /home/bdw2292/miniconda3/envs/newamoebamdpoltype/share/psi4/basis/cc-pvdz-ri.gbs 

	 --------------------------------------------------------
	                          DF-MP2                         
	      2nd-Order Density-Fitted Moller-Plesset Theory     
	              RMP2 Wavefunction,   2 Threads             
	                                                         
	        Rob Parrish, Justin Turney, Andy Simmonett,      
	           Ed Hohenstein, and C. David Sherrill          
	 --------------------------------------------------------

   => Auxiliary Basis Set <=

  Basis Set: (6-31G* AUX)
    Blend: CC-PVDZ-RI
    Number of shells: 348
    Number of basis functions: 1008
    Number of Cartesian functions: 1164
    Spherical Harmonics?: true
    Max angular momentum: 3

	 --------------------------------------------------------
	                 NBF =   242, NAUX =  1008
	 --------------------------------------------------------
	   CLASS    FOCC     OCC    AOCC    AVIR     VIR    FVIR
	   PAIRS       0      52      52     190     190       0
	 --------------------------------------------------------

  DFHelper Memory: AOs need 0.577 GiB; user supplied 5.704 GiB. Using in-core AOs.


         ------------------------------------------------------------
                                     CPHF                           
                                  Rob Parrish                       
         ------------------------------------------------------------

  ==> Geometry <==

    Molecular point group: c1
    Full point group: C1

    Geometry (in Angstrom), charge = 0, multiplicity = 1:

[...]
	 D(15,4,16,30)    =        -1.019290	     -58.401027
	 D(16,4,15,24)    =         3.089394	     177.009249
	 D(16,4,15,25)    =        -1.077556	     -61.739383
	 D(16,4,15,29)    =         1.022991	      58.613071
	 D(17,10,9,28)    =         0.005096	       0.291984
	 D(17,10,12,19)   =        -0.006920	      -0.396504
	 D(18,11,9,28)    =         0.004515	       0.258683
	 D(18,11,13,20)   =         0.019734	       1.130680
	 R(5,12)          =         5.399705	       2.857401
	 R(5,16)          =         5.684202	       3.007950

	Current energy   :      -611.5837543107

	Energy change for the previous step:
		Projected    :        -0.0000017987
		Actual       :        -0.0000012409

	Performing BFGS update.
	Previous computed or guess Hessian on step 1.
	Steps to be used in Hessian update: 10 9
	Taking RFO optimization step.
	Going to follow RFO solution 1.
	Using RFO vector 1.
	Norm of target step-size    0.00249
	Projected energy change by RFO approximation:        -0.0000002128

	Back-transformation to cartesian coordinates...
	Successfully converged to displaced geometry.

	--- Internal Coordinate Step in ANG or DEG, aJ/ANG or AJ/DEG ---
	 ---------------------------------------------------------------------------
	   Coordinate                Previous        Force       Change         New 
	   ----------                --------       ------       ------       ------
	    1 R(1,2)          =      1.385529    -0.000085    -0.000018     1.385511
	    2 R(1,8)          =      1.425356    -0.000249    -0.000042     1.425314
	    3 R(1,14)         =      1.459730     0.000091     0.000010     1.459740
	    4 R(2,3)          =      1.528051    -0.000057    -0.000027     1.528023
	    5 R(2,5)          =      1.228591    -0.000305    -0.000036     1.228555
	    6 R(3,4)          =      1.446937     0.000095    -0.000005     1.446932
	    7 R(3,6)          =      1.097546    -0.000086    -0.000017     1.097529
	    8 R(3,7)          =      1.109800    -0.000057    -0.000014     1.109786
	    9 R(4,15)         =      1.455355     0.000049     0.000006     1.455361
	   10 R(4,16)         =      1.457568     0.000077    -0.000001     1.457567
	   11 R(8,12)         =      1.398661    -0.000047    -0.000014     1.398647
	   12 R(8,13)         =      1.398409    -0.000100    -0.000023     1.398386
	   13 R(9,10)         =      1.395729    -0.000092    -0.000018     1.395711
	   14 R(9,11)         =      1.393881    -0.000096    -0.000016     1.393864
	   15 R(9,28)         =      1.086632     0.000145     0.000030     1.086662
	   16 R(10,12)        =      1.392438    -0.000189    -0.000032     1.392407
	   17 R(10,17)        =      1.086982    -0.000072    -0.000017     1.086965
	   18 R(11,13)        =      1.394144    -0.000162    -0.000025     1.394118
	   19 R(11,18)        =      1.087062    -0.000050    -0.000013     1.087050
	   20 R(12,19)        =      1.083752    -0.000032    -0.000007     1.083745
	   21 R(13,20)        =      1.086845    -0.000057    -0.000013     1.086833
	   22 R(14,21)        =      1.090286    -0.000138    -0.000034     1.090252
	   23 R(14,22)        =      1.096480    -0.000115    -0.000026     1.096454
	   24 R(14,23)        =      1.090437    -0.000195    -0.000030     1.090407
	   25 R(15,24)        =      1.093495    -0.000112    -0.000024     1.093471
	   26 R(15,25)        =      1.105816    -0.000064    -0.000013     1.105803
	   27 R(15,29)        =      1.092784     0.000003    -0.000000     1.092784
	   28 R(16,26)        =      1.106266    -0.000133    -0.000029     1.106237
	   29 R(16,27)        =      1.088413    -0.000152    -0.000032     1.088381
	   30 R(16,30)        =      1.092805    -0.000058    -0.000013     1.092792
	   31 B(1,2,3)        =    115.071699     0.000000     0.000019   115.071718
	   32 B(1,2,5)        =    122.379309     0.000000     0.001091   122.380400
	   33 B(1,8,12)       =    120.382315     0.000000    -0.001338   120.380977
	   34 B(1,8,13)       =    119.661975    -0.000000    -0.000182   119.661794
	   35 B(1,14,21)      =    107.913109     0.000000    -0.001938   107.911170
	   36 B(1,14,22)      =    112.925405     0.000000     0.001508   112.926913
	   37 B(1,14,23)      =    110.541400     0.000001     0.004206   110.545607
	   38 B(2,1,8)        =    119.069412     0.000001    -0.001057   119.068355
	   39 B(2,1,14)       =    122.565407     0.000001     0.002856   122.568263
	   40 B(2,3,4)        =    112.563483    -0.000000    -0.004031   112.559453
	   41 B(2,3,6)        =    108.026282    -0.000000     0.000343   108.026625
	   42 B(2,3,7)        =    109.579478     0.000000     0.000954   109.580432
	   43 B(3,2,5)        =    122.542991    -0.000001    -0.001101   122.541890
	   44 B(3,4,15)       =    109.683575    -0.000000     0.004044   109.687619
	   45 B(3,4,16)       =    111.213285     0.000001     0.007767   111.221051
	   46 B(4,3,6)        =    108.042164     0.000000     0.001442   108.043606
	   47 B(4,3,7)        =    112.070732    -0.000000     0.000508   112.071240
	   48 B(4,15,24)      =    109.748725     0.000000     0.001830   109.750555
	   49 B(4,15,25)      =    113.109201    -0.000000     0.000390   113.109591
	   50 B(4,15,29)      =    109.003290     0.000000     0.000457   109.003746
	   51 B(4,16,26)      =    112.165718    -0.000001    -0.002663   112.163055
	   52 B(4,16,27)      =    109.399104     0.000000     0.000952   109.400056
	   53 B(4,16,30)      =    108.895524     0.000001     0.006844   108.902368
	   54 B(6,3,7)        =    106.269936     0.000000     0.001089   106.271025
	   55 B(8,1,14)       =    117.446180    -0.000002    -0.005070   117.441110
	   56 B(8,12,10)      =    119.604679    -0.000000    -0.000513   119.604166
	   57 B(8,12,19)      =    119.630836    -0.000000    -0.003399   119.627436
	   58 B(8,13,11)      =    120.003488     0.000000     0.000083   120.003571
	   59 B(8,13,20)      =    120.044081     0.000000     0.000990   120.045071
	   60 B(9,10,12)      =    120.669272    -0.000000    -0.000672   120.668599
	   61 B(9,10,17)      =    120.009391     0.000000     0.001723   120.011115
	   62 B(9,11,13)      =    120.238909    -0.000000    -0.001343   120.237566
	   63 B(9,11,18)      =    120.210402     0.000000     0.000781   120.211183
	   64 B(10,9,11)      =    119.546533     0.000000     0.001552   119.548084
	   65 B(10,9,28)      =    120.243608     0.000000     0.000222   120.243831
	   66 B(10,12,19)     =    120.761915     0.000001     0.003861   120.765776
	   67 B(11,9,28)      =    120.209642    -0.000000    -0.001775   120.207867
	   68 B(11,13,20)     =    119.943642    -0.000000    -0.000985   119.942657
	   69 B(12,8,13)      =    119.929870     0.000000     0.000851   119.930721
	   70 B(12,10,17)     =    119.317709    -0.000000    -0.001092   119.316617
	   71 B(13,11,18)     =    119.547572     0.000000     0.000595   119.548166
	   72 B(15,4,16)      =    110.132339    -0.000000     0.006454   110.138792
	   73 B(21,14,22)     =    108.763716    -0.000000    -0.002061   108.761656
	   74 B(21,14,23)     =    107.924445    -0.000000    -0.000372   107.924073
	   75 B(22,14,23)     =    108.639385    -0.000000    -0.001510   108.637874
	   76 B(24,15,25)     =    108.450229    -0.000000    -0.000232   108.449997
	   77 B(24,15,29)     =    108.250619    -0.000000    -0.001633   108.248985
	   78 B(25,15,29)     =    108.158000    -0.000000    -0.000957   108.157043
	   79 B(26,16,27)     =    109.542586     0.000000     0.000257   109.542843
	   80 B(26,16,30)     =    108.253342    -0.000000    -0.003028   108.250314
	   81 B(27,16,30)     =    108.508093    -0.000001    -0.002380   108.505713
	   82 D(1,2,3,4)      =    179.216741    -0.000000    -0.013383   179.203358
	   83 D(1,2,3,6)      =    -61.579264    -0.000000    -0.013807   -61.593071
	   84 D(1,2,3,7)      =     53.790238    -0.000000    -0.011823    53.778415
	   85 D(1,8,12,10)    =   -178.544136     0.000000     0.016764  -178.527372
	   86 D(1,8,12,19)    =      2.034545     0.000000     0.022511     2.057057
	   87 D(1,8,13,11)    =    177.775071    -0.000000    -0.018929   177.756141
	   88 D(1,8,13,20)    =     -3.303903    -0.000000    -0.013573    -3.317476
	   89 D(2,1,8,12)     =    -53.666543    -0.000000    -0.047454   -53.713997
	   90 D(2,1,8,13)     =    128.183583     0.000000    -0.023701   128.159882
	   91 D(2,1,14,21)    =    162.473208     0.000000     0.032175   162.505383
	   92 D(2,1,14,22)    =    -77.277851    -0.000000     0.029219   -77.248631
	   93 D(2,1,14,23)    =     44.664243     0.000000     0.031407    44.695650
	   94 D(2,3,4,15)     =    167.290089    -0.000000    -0.018235   167.271854
	   95 D(2,3,4,16)     =    -70.638960    -0.000000    -0.002159   -70.641119
	   96 D(3,2,1,8)      =   -174.918409     0.000000     0.014617  -174.903793
	   97 D(3,2,1,14)     =     -6.176582    -0.000000    -0.005766    -6.182348
	   98 D(3,4,15,24)    =    -60.276899     0.000000    -0.016600   -60.293499
	   99 D(3,4,15,25)    =     60.974468     0.000000    -0.015320    60.959148
	  100 D(3,4,15,29)    =   -178.673078     0.000000    -0.015961  -178.689039
	  101 D(3,4,16,26)    =    -60.414486    -0.000000     0.010136   -60.404351
	  102 D(3,4,16,27)    =     61.348121    -0.000000     0.009350    61.357472
	  103 D(3,4,16,30)    =    179.788711     0.000000     0.011036   179.799746
	  104 D(4,3,2,5)      =     -1.655293    -0.000000    -0.012727    -1.668020
	  105 D(5,2,1,8)      =      5.952041     0.000000     0.013984     5.966024
	  106 D(5,2,1,14)     =    174.693868    -0.000000    -0.006399   174.687469
	  107 D(5,2,3,6)      =    117.548703    -0.000000    -0.013152   117.535551
	  108 D(5,2,3,7)      =   -127.081795    -0.000000    -0.011168  -127.092963
	  109 D(6,3,4,15)     =     48.095347    -0.000000    -0.017169    48.078178
	  110 D(6,3,4,16)     =    170.166298     0.000000    -0.001093   170.165205
	  111 D(7,3,4,15)     =    -68.649843    -0.000000    -0.019678   -68.669521
	  112 D(7,3,4,16)     =     53.421108     0.000000    -0.003602    53.417506
	  113 D(8,1,14,21)    =    -28.612640     0.000000     0.012514   -28.600127
	  114 D(8,1,14,22)    =     91.636301    -0.000000     0.009558    91.645859
	  115 D(8,1,14,23)    =   -146.421605    -0.000000     0.011746  -146.409860
	  116 D(8,12,10,9)    =      0.881664     0.000000     0.005336     0.887000
	  117 D(8,12,10,17)   =   -179.811137     0.000000     0.001417  -179.809719
	  118 D(8,13,11,9)    =      0.693678     0.000000    -0.000668     0.693010
	  119 D(8,13,11,18)   =   -179.947202     0.000000     0.002644  -179.944559
	  120 D(9,10,12,19)   =   -179.703703    -0.000000    -0.000522  -179.704225
	  121 D(9,11,13,20)   =   -178.228439    -0.000000    -0.006041  -178.234480
	  122 D(10,9,11,13)   =     -0.217499    -0.000000    -0.001093    -0.218593
	  123 D(10,9,11,18)   =   -179.572345    -0.000000    -0.004426  -179.576771
	  124 D(10,12,8,13)   =     -0.399224    -0.000000    -0.007073    -0.406297
	  125 D(11,9,10,12)   =     -0.574629    -0.000000    -0.001264    -0.575893
	  126 D(11,9,10,17)   =   -179.877047     0.000000     0.002701  -179.874346
	  127 D(11,13,8,12)   =     -0.383275     0.000000     0.004757    -0.378518
	  128 D(12,8,1,14)    =    137.018140    -0.000000    -0.028978   136.989163
	  129 D(12,8,13,20)   =    178.537751     0.000000     0.010113   178.547865
	  130 D(12,10,9,28)   =    179.594402    -0.000000    -0.000868   179.593534
	  131 D(13,8,1,14)    =    -41.131734     0.000000    -0.005224   -41.136958
	  132 D(13,8,12,19)   =   -179.820543    -0.000000    -0.001325  -179.821868
	  133 D(13,11,9,28)   =    179.613528    -0.000000    -0.001486   179.612042
	  134 D(15,4,16,26)   =     61.395776     0.000000     0.024894    61.420669
	  135 D(15,4,16,27)   =   -176.841616     0.000000     0.024108  -176.817508
	  136 D(15,4,16,30)   =    -58.401027     0.000000     0.025794   -58.375234
	  137 D(16,4,15,24)   =    177.009249    -0.000000    -0.033291   176.975958
	  138 D(16,4,15,25)   =    -61.739383    -0.000000    -0.032012   -61.771395
	  139 D(16,4,15,29)   =     58.613071    -0.000000    -0.032653    58.580418
	  140 D(17,10,9,28)   =      0.291984     0.000000     0.003097     0.295081
	  141 D(17,10,12,19)  =     -0.396504    -0.000000    -0.004440    -0.400945
	  142 D(18,11,9,28)   =      0.258683    -0.000000    -0.004818     0.253864
	  143 D(18,11,13,20)  =      1.130680    -0.000000    -0.002729     1.127951
	  144 R(5,12)         =      2.857401     0.000111     0.000469     2.857869
	  145 R(5,16)         =      3.007950    -0.000037     0.000077     3.008027
	 ---------------------------------------------------------------------------
	Successfully symmetrized geometry.

  ==> Convergence Check <==

  Measures of convergence in internal coordinates in au.
  Criteria marked as inactive (o), active & met (*), and active & unmet ( ).
  ---------------------------------------------------------------------------------------------
   Step     Total Energy     Delta E     MAX Force     RMS Force      MAX Disp      RMS Disp   
  ---------------------------------------------------------------------------------------------
    Convergence Criteria             o    4.50e-04 *    3.00e-04 *    1.80e-03 *    1.20e-03 *
  ---------------------------------------------------------------------------------------------
     11    -611.58375431   -1.24e-06 o    3.71e-05 *    8.25e-06 *    8.86e-04 *    2.07e-04 *  ~
  ---------------------------------------------------------------------------------------------


  **** Optimization is complete! (in 11 steps) ****

  ==> Optimization Summary <==

  Measures of convergence in internal coordinates in au.
  --------------------------------------------------------------------------------------------------------------- ~
   Step         Total Energy             Delta E       MAX Force       RMS Force        MAX Disp        RMS Disp  ~
  --------------------------------------------------------------------------------------------------------------- ~
      1    -611.570791228097   -611.570791228097      0.04408920      0.00658335      0.09896898      0.02931775  ~
      2    -611.581168725265     -0.010377497168      0.00779309      0.00147977      0.20387850      0.04103278  ~
      3    -611.582588183375     -0.001419458110      0.00695156      0.00138102      0.15380777      0.03934209  ~
      4    -611.582359780289      0.000228403086      0.00413565      0.00118371      0.12814193      0.02193205  ~
      5    -611.583503478266     -0.001143697977      0.00542932      0.00089430      0.06219606      0.01871646  ~
      6    -611.583686394182     -0.000182915916      0.00307343      0.00046320      0.04104227      0.01225614  ~
      7    -611.583714319147     -0.000027924966      0.00127918      0.00034068      0.02551999      0.00801573  ~
      8    -611.583747982069     -0.000033662922      0.00053421      0.00012920      0.01844472      0.00410956  ~
      9    -611.583752575043     -0.000004592974      0.00019129      0.00004032      0.01322863      0.00278132  ~
     10    -611.583753069751     -0.000000494707      0.00032634      0.00005852      0.00487410      0.00123537  ~
     11    -611.583754310699     -0.000001240948      0.00003708      0.00000825      0.00088558      0.00020696  ~
  --------------------------------------------------------------------------------------------------------------- ~

	Writing optimization data to binary file.
	Final energy is   -611.5837543106992
	Final (previous) structure:
	Cartesian Geometry (in Angstrom)
	    N    -0.2725520332   0.2833977640  -0.7386197150
	    C     0.8509125505  -0.2685789005  -0.1446154353
	    C     2.1599727527  -0.0419542249  -0.8995603906
	    N     3.2988617871  -0.6244638176  -0.2233651144
	    O     0.7944142856  -0.9072832558   0.9033833889
	    H     2.0703218652  -0.5167945124  -1.8850029487
	    H     2.2972888468   1.0429827743  -1.0885391216
	    C    -1.5207888010   0.2183812910  -0.0535521472
	    C    -4.0077447448   0.1018234632   1.2176386525
	    C    -3.2517150282  -1.0577983776   1.0394371090
	    C    -3.5133296563   1.3218859494   0.7594850962
	    C    -2.0162813876  -1.0087923684   0.3989790104
	    C    -2.2701645683   1.3844466166   0.1315814071
	    C    -0.1973584340   1.1368519838  -1.9204713059
	    C     4.4452975117  -0.6411868681  -1.1197265288
	    C     3.6233113341   0.1111359507   0.9924181888
	    H    -3.6309184854  -2.0135384525   1.3919940261
	    H    -4.0899972112   2.2327946049   0.8987855678
	    H    -1.4301637278  -1.9090244371   0.2555696978
	    H    -1.8764467781   2.3423647666  -0.1979816862
	    H    -1.1910823365   1.1795890049  -2.3670240783
	    H     0.1299628480   2.1576489647  -1.6900325615
	    H     0.4837569514   0.7104980265  -2.6575990884
	    H     4.2131207827  -1.2389722525  -2.0054342288
	    H     4.7529897905   0.3684012857  -1.4497067258
	    H     3.8791685900   1.1673272618   0.7854834135
	    H     2.7782592779   0.0686393643   1.6770515926
	    H    -4.9739608341   0.0545776997   1.7125764082
	    H     5.2915789943  -1.1043569534  -0.6064441607
	    H     4.4833643673  -0.3615332889   1.4731631152
	Saving final (previous) structure.
	Cleaning optimization helper files.
			--------------------------
			 OPTKING Finished Execution 
			--------------------------

    Final optimized geometry and variables:
    Molecular point group: c1
    Full point group: C1

    Geometry (in Angstrom), charge = 0, multiplicity = 1:

    N           -0.272552034317     0.283397765068    -0.738619717919
    C            0.850912553875    -0.268578901551    -0.144615435914
    C            2.159972761180    -0.041954225017    -0.899560394140
    N            3.298861800062    -0.624463820021    -0.223365115286
    O            0.794414288688    -0.907283259366     0.903383392461
    H            2.070321873304    -0.516794514462    -1.885002956064
    H            2.297288855864     1.042982778353    -1.088539125863
    C           -1.520788806943     0.218381291896    -0.053552147431
    C           -4.007744760531     0.101823463628     1.217638657249
    C           -3.251715041031    -1.057798381716     1.039437113114
    C           -3.513329670153     1.321885954639     0.759485099193
    C           -2.016281395530    -1.008792372318     0.398979011992
    C           -2.270164577243     1.384446622022     0.131581407624
    C           -0.197358434774     1.136851988240    -1.920471313454
    C            4.445297529129    -0.641186870606    -1.119726533229
    C            3.623311348309     0.111135951145     0.992418192736
    H           -3.630918499626    -2.013538460456     1.391994031591
    H           -4.089997227307     2.232794613656     0.898785571352
    H           -1.430163733463    -1.909024444572     0.255569698761
    H           -1.876446785434     2.342364775810    -0.197981686976
    H           -1.191082341154     1.179589009515    -2.367024087592
    H            0.129962848522     2.157648973182    -1.690032568143
    H            0.483756953280     0.710498029335    -2.657599098871
    H            4.213120799301    -1.238972257394    -2.005434236723
    H            4.752989809223     0.368401287167    -1.449706731494
    H            3.879168605261     1.167327266357     0.785483416621
    H            2.778259288826     0.068639364571     1.677051599236
    H           -4.973960853675     0.054577699894     1.712576414935
    H            5.291579015103    -1.104356957780    -0.606444163083
    H            4.483364384884    -0.361533290325     1.473163120969

	Removing binary optimization data file.
	Cleaning optimization helper files.

    Psi4 stopped on: Wednesday, 08 June 2022 10:22AM
    Psi4 wall time for execution: 0:17:05.93

*** Psi4 exiting successfully. Buy a developer a beer!
