Generated by Psi4
        SP                        DF-MP2                      6-311G**
Number of atoms                            I               11
Charge                                     I                0
Multiplicity                               I                1
Number of electrons                        I               40
Number of alpha electrons                  I               20
Number of beta electrons                   I               20
Number of basis functions                  I              126
Number of independent functions            I              126
Atomic numbers                             I   N=          11
           7           6           6           7           8           1
           1           1           1           1           1
Nuclear charges                            R   N=          11
  7.00000000e+00  6.00000000e+00  6.00000000e+00  7.00000000e+00  8.00000000e+00
  1.00000000e+00  1.00000000e+00  1.00000000e+00  1.00000000e+00  1.00000000e+00
  1.00000000e+00
Current cartesian coordinates              R   N=          33
 -3.22477740e+00 -8.46989934e-01  4.84756340e-01 -8.59238889e-01 -2.72514787e-01
 -3.73764082e-01  1.24274742e+00 -4.58270829e-01  1.57644665e+00  3.19388090e+00
  1.37181175e+00  9.31041784e-01 -4.08435688e-01  1.93387905e-01 -2.60459547e+00
  1.86618299e+00 -2.44797577e+00  1.56494202e+00  5.12097448e-01 -7.07260180e-02
  3.47514918e+00 -4.66435719e+00 -5.99587036e-01 -7.49805900e-01 -3.63786445e+00
 -7.24068677e-01  2.34314915e+00  4.87579652e+00  8.42929160e-01  1.69619673e+00
  3.39323195e+00  1.33950297e+00 -9.84541244e-01
Integer atomic weights                     I   N=          11
          14          12          12          14          16           1
           1           1           1           1           1
Real atomic weights                        R   N=          11
  1.40030740e+01  1.20000000e+01  1.20000000e+01  1.40030740e+01  1.59949146e+01
  1.00782503e+00  1.00782503e+00  1.00782503e+00  1.00782503e+00  1.00782503e+00
  1.00782503e+00
Number of primitive shells                 I              121
Number of contracted shells                I               64
Pure/Cartesian d shells                    I                0
Pure/Cartesian f shells                    I                0
Highest angular momentum                   I                2
Largest degree of contraction              I                6
Shell types                                I   N=          64
           0           0           1           0           1           0
           1          -2           0           0           1           0
           1           0           1          -2           0           0
           1           0           1           0           1          -2
           0           0           1           0           1           0
           1          -2           0           0           1           0
           1           0           1          -2           0           0
           0           1           0           0           0           1
           0           0           0           1           0           0
           0           1           0           0           0           1
           0           0           0           1
Number of primitives per shell             I   N=          64
           6           3           3           1           1           1
           1           1           6           3           3           1
           1           1           1           1           6           3
           3           1           1           1           1           1
           6           3           3           1           1           1
           1           1           6           3           3           1
           1           1           1           1           3           1
           1           1           3           1           1           1
           3           1           1           1           3           1
           1           1           3           1           1           1
           3           1           1           1
Shell to atom map                          I   N=          64
           1           1           1           1           1           1
           1           1           2           2           2           2
           2           2           2           2           3           3
           3           3           3           3           3           3
           4           4           4           4           4           4
           4           4           5           5           5           5
           5           5           5           5           6           6
           6           6           7           7           7           7
           8           8           8           8           9           9
           9           9          10          10          10          10
          11          11          11          11
Primitive exponents                        R   N=         121
  6.29348000e+03  9.49044000e+02  2.18776000e+02  6.36916000e+01  1.88282000e+01
  2.72023000e+00  3.06331000e+01  7.02614000e+00  2.11205000e+00  3.06331000e+01
  7.02614000e+00  2.11205000e+00  6.84009000e-01  6.84009000e-01  2.00878000e-01
  2.00878000e-01  9.13000000e-01  4.56324000e+03  6.82024000e+02  1.54973000e+02
  4.44553000e+01  1.30290000e+01  1.82773000e+00  2.09642000e+01  4.80331000e+00
  1.45933000e+00  2.09642000e+01  4.80331000e+00  1.45933000e+00  4.83456000e-01
  4.83456000e-01  1.45585000e-01  1.45585000e-01  6.26000000e-01  4.56324000e+03
  6.82024000e+02  1.54973000e+02  4.44553000e+01  1.30290000e+01  1.82773000e+00
  2.09642000e+01  4.80331000e+00  1.45933000e+00  2.09642000e+01  4.80331000e+00
  1.45933000e+00  4.83456000e-01  4.83456000e-01  1.45585000e-01  1.45585000e-01
  6.26000000e-01  6.29348000e+03  9.49044000e+02  2.18776000e+02  6.36916000e+01
  1.88282000e+01  2.72023000e+00  3.06331000e+01  7.02614000e+00  2.11205000e+00
  3.06331000e+01  7.02614000e+00  2.11205000e+00  6.84009000e-01  6.84009000e-01
  2.00878000e-01  2.00878000e-01  9.13000000e-01  8.58850000e+03  1.29723000e+03
  2.99296000e+02  8.73771000e+01  2.56789000e+01  3.74004000e+00  4.21175000e+01
  9.62837000e+00  2.85332000e+00  4.21175000e+01  9.62837000e+00  2.85332000e+00
  9.05661000e-01  9.05661000e-01  2.55611000e-01  2.55611000e-01  1.29200000e+00
  3.38650000e+01  5.09479000e+00  1.15879000e+00  3.25840000e-01  1.02741000e-01
  7.50000000e-01  3.38650000e+01  5.09479000e+00  1.15879000e+00  3.25840000e-01
  1.02741000e-01  7.50000000e-01  3.38650000e+01  5.09479000e+00  1.15879000e+00
  3.25840000e-01  1.02741000e-01  7.50000000e-01  3.38650000e+01  5.09479000e+00
  1.15879000e+00  3.25840000e-01  1.02741000e-01  7.50000000e-01  3.38650000e+01
  5.09479000e+00  1.15879000e+00  3.25840000e-01  1.02741000e-01  7.50000000e-01
  3.38650000e+01  5.09479000e+00  1.15879000e+00  3.25840000e-01  1.02741000e-01
  7.50000000e-01
Contraction coefficients                   R   N=         121
  1.96978815e-03  1.49612859e-02  7.35005308e-02  2.48936766e-01  6.02459433e-01
  2.56201759e-01  1.11906080e-01  9.21666655e-01 -2.56919183e-03  3.83119186e-02
  2.37403116e-01  8.17592398e-01  1.00000000e+00  1.00000000e+00  1.00000000e+00
  1.00000000e+00  1.00000000e+00  1.96665025e-03  1.52306019e-02  7.61269097e-02
  2.60801033e-01  6.16462078e-01  2.21006028e-01  1.14660081e-01  9.19999648e-01
 -3.03068213e-03  4.02486927e-02  2.37593957e-01  8.15853851e-01  1.00000000e+00
  1.00000000e+00  1.00000000e+00  1.00000000e+00  1.00000000e+00  1.96665025e-03
  1.52306019e-02  7.61269097e-02  2.60801033e-01  6.16462078e-01  2.21006028e-01
  1.14660081e-01  9.19999648e-01 -3.03068213e-03  4.02486927e-02  2.37593957e-01
  8.15853851e-01  1.00000000e+00  1.00000000e+00  1.00000000e+00  1.00000000e+00
  1.00000000e+00  1.96978815e-03  1.49612859e-02  7.35005308e-02  2.48936766e-01
  6.02459433e-01  2.56201759e-01  1.11906080e-01  9.21666655e-01 -2.56919183e-03
  3.83119186e-02  2.37403116e-01  8.17592398e-01  1.00000000e+00  1.00000000e+00
  1.00000000e+00  1.00000000e+00  1.00000000e+00  1.89515008e-03  1.43859006e-02
  7.07320031e-02  2.40001011e-01  5.94797026e-01  2.80802012e-01  1.13889012e-01
  9.20811101e-01 -3.27447036e-03  3.65113974e-02  2.37152983e-01  8.19701941e-01
  1.00000000e+00  1.00000000e+00  1.00000000e+00  1.00000000e+00  1.00000000e+00
  2.54938145e-02  1.90373109e-01  8.52161486e-01  1.00000000e+00  1.00000000e+00
  1.00000000e+00  2.54938145e-02  1.90373109e-01  8.52161486e-01  1.00000000e+00
  1.00000000e+00  1.00000000e+00  2.54938145e-02  1.90373109e-01  8.52161486e-01
  1.00000000e+00  1.00000000e+00  1.00000000e+00  2.54938145e-02  1.90373109e-01
  8.52161486e-01  1.00000000e+00  1.00000000e+00  1.00000000e+00  2.54938145e-02
  1.90373109e-01  8.52161486e-01  1.00000000e+00  1.00000000e+00  1.00000000e+00
  2.54938145e-02  1.90373109e-01  8.52161486e-01  1.00000000e+00  1.00000000e+00
  1.00000000e+00
Coordinates of each shell                  R   N=         192
 -3.22477740e+00 -8.46989934e-01  4.84756340e-01 -3.22477740e+00 -8.46989934e-01
  4.84756340e-01 -3.22477740e+00 -8.46989934e-01  4.84756340e-01 -3.22477740e+00
 -8.46989934e-01  4.84756340e-01 -3.22477740e+00 -8.46989934e-01  4.84756340e-01
 -3.22477740e+00 -8.46989934e-01  4.84756340e-01 -3.22477740e+00 -8.46989934e-01
  4.84756340e-01 -3.22477740e+00 -8.46989934e-01  4.84756340e-01 -8.59238889e-01
 -2.72514787e-01 -3.73764082e-01 -8.59238889e-01 -2.72514787e-01 -3.73764082e-01
 -8.59238889e-01 -2.72514787e-01 -3.73764082e-01 -8.59238889e-01 -2.72514787e-01
 -3.73764082e-01 -8.59238889e-01 -2.72514787e-01 -3.73764082e-01 -8.59238889e-01
 -2.72514787e-01 -3.73764082e-01 -8.59238889e-01 -2.72514787e-01 -3.73764082e-01
 -8.59238889e-01 -2.72514787e-01 -3.73764082e-01  1.24274742e+00 -4.58270829e-01
  1.57644665e+00  1.24274742e+00 -4.58270829e-01  1.57644665e+00  1.24274742e+00
 -4.58270829e-01  1.57644665e+00  1.24274742e+00 -4.58270829e-01  1.57644665e+00
  1.24274742e+00 -4.58270829e-01  1.57644665e+00  1.24274742e+00 -4.58270829e-01
  1.57644665e+00  1.24274742e+00 -4.58270829e-01  1.57644665e+00  1.24274742e+00
 -4.58270829e-01  1.57644665e+00  3.19388090e+00  1.37181175e+00  9.31041784e-01
  3.19388090e+00  1.37181175e+00  9.31041784e-01  3.19388090e+00  1.37181175e+00
  9.31041784e-01  3.19388090e+00  1.37181175e+00  9.31041784e-01  3.19388090e+00
  1.37181175e+00  9.31041784e-01  3.19388090e+00  1.37181175e+00  9.31041784e-01
  3.19388090e+00  1.37181175e+00  9.31041784e-01  3.19388090e+00  1.37181175e+00
  9.31041784e-01 -4.08435688e-01  1.93387905e-01 -2.60459547e+00 -4.08435688e-01
  1.93387905e-01 -2.60459547e+00 -4.08435688e-01  1.93387905e-01 -2.60459547e+00
 -4.08435688e-01  1.93387905e-01 -2.60459547e+00 -4.08435688e-01  1.93387905e-01
 -2.60459547e+00 -4.08435688e-01  1.93387905e-01 -2.60459547e+00 -4.08435688e-01
  1.93387905e-01 -2.60459547e+00 -4.08435688e-01  1.93387905e-01 -2.60459547e+00
  1.86618299e+00 -2.44797577e+00  1.56494202e+00  1.86618299e+00 -2.44797577e+00
  1.56494202e+00  1.86618299e+00 -2.44797577e+00  1.56494202e+00  1.86618299e+00
 -2.44797577e+00  1.56494202e+00  5.12097448e-01 -7.07260180e-02  3.47514918e+00
  5.12097448e-01 -7.07260180e-02  3.47514918e+00  5.12097448e-01 -7.07260180e-02
  3.47514918e+00  5.12097448e-01 -7.07260180e-02  3.47514918e+00 -4.66435719e+00
 -5.99587036e-01 -7.49805900e-01 -4.66435719e+00 -5.99587036e-01 -7.49805900e-01
 -4.66435719e+00 -5.99587036e-01 -7.49805900e-01 -4.66435719e+00 -5.99587036e-01
 -7.49805900e-01 -3.63786445e+00 -7.24068677e-01  2.34314915e+00 -3.63786445e+00
 -7.24068677e-01  2.34314915e+00 -3.63786445e+00 -7.24068677e-01  2.34314915e+00
 -3.63786445e+00 -7.24068677e-01  2.34314915e+00  4.87579652e+00  8.42929160e-01
  1.69619673e+00  4.87579652e+00  8.42929160e-01  1.69619673e+00  4.87579652e+00
  8.42929160e-01  1.69619673e+00  4.87579652e+00  8.42929160e-01  1.69619673e+00
  3.39323195e+00  1.33950297e+00 -9.84541244e-01  3.39323195e+00  1.33950297e+00
 -9.84541244e-01  3.39323195e+00  1.33950297e+00 -9.84541244e-01  3.39323195e+00
  1.33950297e+00 -9.84541244e-01
Total Energy                               R     -2.639119680596150e+02
Alpha Orbital Energies                     R   N=         126
 -2.05178475e+01 -1.55861054e+01 -1.55355939e+01 -1.13564070e+01 -1.12699849e+01
 -1.37948340e+00 -1.21430156e+00 -1.17983151e+00 -9.51606261e-01 -7.89485473e-01
 -7.26653557e-01 -6.93137322e-01 -6.43845531e-01 -6.24339035e-01 -5.66131530e-01
 -5.55282803e-01 -5.38651120e-01 -4.30969160e-01 -4.18932898e-01 -3.95512349e-01
  1.39537373e-01  1.55776859e-01  1.88318646e-01  2.01037124e-01  2.22092534e-01
  2.35178773e-01  2.57876263e-01  3.66125352e-01  3.91871631e-01  4.43601992e-01
  4.85784401e-01  5.22550012e-01  5.47582980e-01  5.59563325e-01  5.94636351e-01
  6.24207622e-01  6.30884476e-01  6.91565752e-01  7.07754508e-01  7.61742020e-01
  7.75641316e-01  8.06282583e-01  8.33667220e-01  8.39962391e-01  8.64590032e-01
  9.05544375e-01  9.14010471e-01  9.52098767e-01  9.90613400e-01  1.02711327e+00
  1.03334413e+00  1.13066039e+00  1.15762072e+00  1.19539102e+00  1.27793816e+00
  1.32645947e+00  1.37984168e+00  1.44559902e+00  1.49882135e+00  1.55206205e+00
  1.64703781e+00  1.66833813e+00  1.73143178e+00  1.76607459e+00  1.78204146e+00
  1.79367005e+00  1.85050564e+00  1.87930715e+00  1.89581198e+00  1.90418162e+00
  1.93506537e+00  1.98463985e+00  2.03747706e+00  2.04873685e+00  2.08356620e+00
  2.12619584e+00  2.21652342e+00  2.23678577e+00  2.24561368e+00  2.32249787e+00
  2.41972880e+00  2.43281269e+00  2.56870947e+00  2.64227980e+00  2.68567376e+00
  2.69799647e+00  2.74763913e+00  2.77832866e+00  2.83618997e+00  2.85802690e+00
  2.92502303e+00  2.95999639e+00  2.98276306e+00  3.02390406e+00  3.09694696e+00
  3.11116614e+00  3.12965894e+00  3.18224782e+00  3.25865846e+00  3.30388436e+00
  3.34313960e+00  3.34775306e+00  3.44266332e+00  3.50313824e+00  3.58434651e+00
  3.73452041e+00  3.75062824e+00  3.87762645e+00  3.97556827e+00  4.10952008e+00
  4.13640165e+00  4.27384888e+00  4.49209043e+00  4.52271940e+00  5.22623729e+00
  5.23619649e+00  5.29238878e+00  5.41137457e+00  5.49414483e+00  5.65021755e+00
  6.20501930e+00  2.49141512e+01  2.49618601e+01  3.69933963e+01  3.70301168e+01
  5.16977701e+01
Alpha MO coefficients                      R   N=       15876
  2.68214265e-07  1.89627790e-06 -7.68275641e-06 -3.38459064e-06  6.87522587e-06
 -3.35145051e-05  2.10979089e-05  8.62027759e-06 -1.16676553e-05  3.90144586e-04
  2.42928718e-04  1.21279470e-05  2.85800034e-04  3.42460189e-06 -2.45756003e-05
  2.45807645e-06  1.28624467e-05  1.10843292e-05  4.99642538e-06 -7.34370283e-05
  1.01567719e-05  1.47683264e-05 -6.89478232e-05  3.16113381e-04  8.59555315e-05
  7.76136567e-05 -3.79935392e-04  1.23978717e-04  2.10203027e-04  1.93802003e-04
 -9.92613894e-04  1.82710832e-04 -6.42588901e-05 -5.66525222e-05 -5.33706752e-05
 -1.66142194e-06  1.27779016e-06  1.88147948e-07  1.06096455e-05  8.53508732e-07
  7.07248470e-06 -1.77124632e-05 -3.63293902e-05  5.58403142e-07 -1.52836333e-05
  4.24335092e-04 -2.96304451e-04  7.73265878e-05  9.59933800e-05 -6.17060529e-06
  1.76832327e-05  1.04774432e-06  2.13925263e-05  3.44560012e-06  3.38993837e-07
 -6.20925289e-07 -4.14917458e-07 -3.46752006e-06 -7.89682048e-07  1.35283749e-05
 -2.06440450e-06  1.44119304e-05  8.81377847e-06 -4.01412626e-05  9.24888340e-05
 -5.19665826e-05  3.55288655e-05 -1.04344694e-05 -4.67889151e-06 -5.37963647e-07
 -8.94636449e-06 -2.78013249e-06  5.51477073e-01  4.71686455e-01 -3.36995487e-04
 -3.58177763e-04  1.65925844e-03  5.49925959e-03  1.30899128e-04  1.32257211e-04
 -6.05030695e-04 -1.28925078e-03  1.60219479e-05  2.99103878e-05 -1.50435191e-04
 -2.22892216e-05  4.49246509e-05 -1.09011599e-05  1.30444997e-04  2.39773168e-05
 -7.42205802e-06  5.02524688e-05  8.32620695e-06  5.98984165e-06  9.76151055e-06
 -5.59969878e-06  1.32053843e-05 -9.60874010e-05 -6.05599202e-05 -8.04259000e-06
  1.40232057e-06 -1.48939534e-06 -2.61569839e-06  1.15013899e-04  6.11339544e-06
 -3.21808716e-07 -1.68360189e-05  1.73959435e-05  8.04267271e-06 -1.62495556e-04
  3.25597204e-05 -1.18215138e-05  1.31938062e-05  2.05303671e-05  1.47837287e-06
 -3.36024020e-05  7.92587995e-07 -3.47811510e-06 -7.89639727e-06  4.84861317e-06
 -2.93581956e-06  8.70443286e-06  3.18459527e-05 -1.13790424e-05  5.07490038e-06
  8.17848442e-06  5.57573984e-01  4.68193451e-01 -6.56798017e-05  6.30190916e-04
  1.22303042e-04  5.44005684e-03  1.11290122e-04 -1.85678815e-04 -9.51606691e-05
 -1.28483311e-03 -4.42715123e-04 -5.26675936e-05  2.07025332e-04 -1.96437128e-05
 -9.62818568e-06 -2.84435382e-06 -9.81566420e-06 -3.31018445e-06  1.49726931e-05
 -1.89118699e-05 -1.17334081e-04 -3.36490667e-05  3.78985711e-05  1.81123734e-04
 -8.31554005e-05  2.10495224e-05  3.96715225e-05  5.73440050e-04 -7.99713389e-04
 -1.90756523e-04  2.36753141e-04 -4.13458956e-05 -4.97310977e-05  1.44854412e-05
  2.58053686e-05 -7.25131823e-06  4.15206702e-07  2.58306977e-06  4.87265652e-06
  4.00521416e-07  4.66947327e-06 -2.57053383e-05  9.29572157e-06 -1.30737721e-05
 -1.00946230e-05  1.97549689e-04  1.05876176e-04 -5.89856123e-05 -1.73152494e-04
  5.82836930e-08  2.19651172e-06 -6.16864098e-06 -8.97767518e-06 -5.29537303e-06
  8.84049196e-06  9.61763821e-06 -2.54402129e-06  8.00062792e-07 -2.28625862e-06
 -1.33125472e-05  8.85385026e-06 -4.04006073e-06  1.33495476e-05 -6.96332787e-05
 -1.10678764e-04  4.95799962e-05 -2.50481978e-05 -1.71221110e-07 -1.02165822e-06
 -7.91269785e-07  4.63693939e-06  7.03713361e-06  3.50575346e-06  6.55309817e-06
  1.45308580e-05  1.16782659e-06 -2.92287750e-06 -2.55603000e-05 -1.97878606e-05
 -4.21323392e-06 -4.90340718e-06  1.18956574e-04  1.53259351e-04  2.06548404e-05
  3.23441149e-05  9.24014353e-07  4.19592251e-06  3.60120167e-07  3.49832392e-06
  3.12088219e-06  1.30329965e-05 -1.02814222e-04 -2.61564704e-05  7.49690531e-06
 -1.77182566e-05  8.16176056e-06 -6.02126919e-06  3.68216439e-05  3.30574733e-05
  9.51226596e-06  1.60596000e-06 -1.90481819e-06  2.41756308e-04 -1.24552199e-06
  5.21702804e-05  1.13500993e-07  2.54511431e-05 -2.33502913e-05  2.49126283e-04
 -1.81434262e-05  5.55774667e-05  3.06066707e-05  2.82283445e-05  9.44863968e-06
 -5.38894562e-06  7.26419996e-05  9.54449660e-07 -4.05874319e-06  9.41472895e-06
 -5.71687145e-06 -9.77721158e-06  4.68593371e-05  1.78271404e-05 -7.60925445e-06
 -8.30761652e-06  9.98090199e-06 -9.42395123e-06 -9.77689621e-06 -2.37223506e-06
 -4.75649269e-06  4.47670530e-07  1.16852638e-05  1.70317451e-05  1.59085813e-05
 -1.95878673e-06 -3.27198103e-05  1.33618317e-05 -3.53694325e-05  5.66540602e-05
 -4.05696377e-06 -2.69806891e-06  5.56793441e-07  8.32949198e-07  2.50838656e-06
  1.02863818e-06 -1.14656874e-06 -9.08938428e-06  1.93240825e-06 -4.56071695e-06
  8.54670294e-06  1.75443745e-05 -1.15127118e-05  1.51103747e-05 -2.89407060e-04
 -1.92086079e-04 -6.85389188e-06 -8.20234790e-05 -7.24526684e-06  2.66862830e-05
 -1.06470152e-06 -6.91044468e-07  3.04177742e-06  8.95988657e-06 -3.51252001e-05
  1.45863152e-05  4.31119497e-05 -6.97688458e-06  1.11439343e-04  3.27262813e-04
  1.85579172e-04 -9.52904630e-05  1.03610552e-03  1.75997601e-04  2.64028924e-04
 -2.30939443e-04 -8.56687228e-05 -8.28378684e-05 -4.79064773e-05  6.18498052e-05
  1.31533982e-04  5.57652310e-01  4.68253260e-01  4.05822053e-04 -1.79305671e-03
 -4.51781950e-04  5.05123259e-03 -1.72151797e-04  7.23587884e-04  1.44895367e-04
 -1.46187192e-03  2.13419187e-04  2.07106411e-04 -4.38499761e-05  8.00989411e-06
 -3.37767640e-06  9.89826036e-05 -8.80303696e-05 -1.21570703e-04  7.57964071e-07
 -2.65944465e-07 -3.00352544e-06  2.12890463e-06 -4.36285162e-07  7.74905430e-06
  1.28906894e-06 -1.24069008e-05  9.56274680e-07  1.09648918e-05 -4.44822645e-06
  8.71944721e-06  2.08366796e-05  4.72066878e-06 -8.68428241e-07 -1.36999805e-06
 -4.19034359e-06 -2.74951737e-08  1.08355783e-05 -9.84816350e-05 -1.40265957e-05
 -3.65168535e-05 -1.53367059e-05  1.99842490e-05  1.74780049e-05 -6.31984595e-05
  2.52346310e-05  1.60255550e-05 -1.47387663e-05 -1.88764859e-05 -1.27092110e-06
  3.35970977e-05 -1.54946184e-05  3.56300591e-06  1.42462743e-06  6.29071657e-06
  3.53868093e-06 -2.19929101e-05  2.79990442e-07 -2.98314180e-06  3.11848533e-06
  1.54350052e-07  2.47908096e-04  3.45285291e-04  3.22386297e-05 -1.27896505e-04
 -4.37086365e-05 -7.11435495e-05  2.41577772e-04  2.81804740e-04  8.64361604e-05
 -2.07552000e-06 -7.36136379e-05  9.56314078e-05 -1.37653577e-04 -2.15467817e-04
  1.33050572e-04  3.66266796e-05 -3.33929863e-05  4.86799956e-04  5.24596402e-04
  1.11201719e-04 -2.32699058e-04 -4.22484733e-04 -1.51599790e-04 -7.58061616e-05
  2.87273423e-04 -1.21578661e-04 -1.72692803e-04 -1.84692127e-05  7.57667739e-05
  7.37096877e-05  5.63518820e-01  4.66636272e-01 -6.25578847e-04 -1.64573884e-04
  4.19986909e-05  3.48673350e-03  4.87168677e-04  1.59998082e-04 -3.60221678e-04
  4.05137990e-04 -5.89575809e-04 -2.95604287e-05 -3.51877211e-04  4.35096858e-04
 -3.67274329e-05 -1.83778900e-04  2.04722379e-04  6.29994312e-05  2.02235361e-03
  1.62254401e-03 -9.67949811e-05  1.95912175e-05 -8.59187938e-05  2.82826743e-04
 -1.66354027e-04  8.55930609e-07 -1.90251033e-04 -8.45663488e-06 -2.80003610e-05
  1.65818959e-05 -1.08010038e-04  6.24463154e-06  1.19441779e-04 -1.64811920e-06
  2.76263790e-05 -2.72196008e-05  1.87756970e-06  3.66271859e-06  5.09612221e-06
  5.74894766e-06  7.46909779e-07 -2.54984718e-05 -4.07722510e-06 -2.24552931e-05
  1.18922337e-05  5.42112125e-05 -8.03126514e-05 -3.06219667e-06 -3.60617940e-06
 -1.01612655e-05 -3.36729258e-06 -1.03706879e-06 -3.19229517e-07  1.31052988e-05
 -1.72623958e-04 -2.63790128e-04 -4.71520448e-05 -5.83609739e-05  2.78414117e-04
  5.57081235e-04 -1.16276339e-04 -8.95030943e-05  4.15624863e-04 -5.88658210e-04
  1.79178700e-04  6.60405451e-05 -2.69552888e-04  1.46298325e-04 -7.29734918e-05
 -5.10923704e-05 -4.79169609e-05  3.92100248e-06 -1.64921751e-05  6.41531046e-05
  4.75937208e-05 -1.86887753e-05  7.60011186e-06 -7.54606058e-06 -4.33382210e-07
  1.14375020e-04  4.05471278e-05 -3.01871315e-06 -1.21042344e-05 -4.63130010e-05
  2.36001723e-05  1.27046632e-04 -8.33311922e-05  5.42694156e-05 -1.37708242e-05
  4.24419398e-05  2.43045444e-05 -3.75579852e-05 -3.70984329e-05  4.18899327e-05
  1.14987454e-05 -4.90835169e-05 -1.52781987e-06  4.42328184e-05  1.88927335e-06
 -4.73793101e-06  5.02680411e-06 -2.54587856e-06 -1.06078251e-05  2.74245103e-05
  7.46469448e-06 -9.49280136e-06 -6.72585073e-06  7.51712637e-06 -5.05572457e-06
 -9.07185548e-06  9.92189731e-06  2.17080560e-06 -2.98413590e-06  3.15260014e-05
 -4.11814451e-06  1.95149489e-06  1.33330376e-05  6.93003937e-05 -5.58392512e-05
  1.20521794e-05 -6.87052814e-05  8.89876807e-06  8.18117753e-06 -1.98317040e-06
 -8.46820658e-06 -4.97556232e-06  2.12251287e-03  1.81792386e-03 -9.48840690e-05
  9.42953640e-06 -9.53703284e-05 -2.38096140e-04 -2.53533720e-04  1.21341266e-06
 -2.12638403e-04 -8.01450584e-04 -2.69276824e-04  6.78819453e-06 -2.85280549e-04
 -1.61872388e-05 -1.46174637e-04 -1.47786191e-05 -4.99090300e-05  1.16183206e-05
 -5.63417687e-01 -4.66546579e-01 -1.65992358e-04 -2.38762375e-04  2.06274184e-04
 -4.27423012e-03  1.97284743e-04  2.31956052e-04 -1.63701893e-04  2.17074254e-03
 -2.74181956e-04  4.18773759e-05 -1.87076771e-04 -6.24927938e-05  2.60984034e-05
 -3.80198529e-05  4.50231328e-05  1.07265619e-04  8.96067416e-05  1.37544618e-04
  7.17534079e-05  7.66731762e-05 -2.52739478e-05 -2.47657530e-04  3.37087427e-04
  2.84734825e-04 -1.21293585e-04 -4.01390736e-04  1.60150180e-04  1.09084925e-04
 -5.46745960e-05  9.78788788e-05  5.68505850e-05  4.49948754e-05  1.82961076e-05
 -1.58020075e-04 -3.52506402e-06 -5.25854613e-06  9.02317966e-06  2.25144651e-06
  1.09673513e-05  1.16959429e-05  5.27389818e-06 -8.43684355e-06  1.58144782e-06
 -4.56268774e-06  4.36618757e-05  2.20968510e-05  1.30158155e-05 -4.52847275e-06
 -1.80960975e-06  1.87643501e-06 -6.62581117e-07  1.77696742e-06 -3.15345399e-04
 -2.62073322e-04 -2.43806205e-04 -2.22360727e-07 -3.35237367e-05  2.48856501e-05
 -3.22524834e-04 -2.58003277e-04 -2.84484465e-04  4.41510783e-06 -2.07932732e-05
  3.25757466e-05  7.82784644e-06 -1.07087220e-04 -3.30991368e-05 -2.48579687e-05
  1.84195138e-06 -8.33922690e-06  6.85390505e-06  7.63024955e-06  2.84935441e-05
  3.85218145e-06  1.72070814e-06  7.52912337e-06  1.05741732e-06 -4.13581674e-05
  2.60175462e-05  3.67770289e-05 -9.00215902e-06  2.19858481e-05  2.28567880e-07
 -4.71822973e-05 -3.16871432e-05  7.86753918e-06  1.49768237e-05 -5.04715208e-05
  3.01927164e-02  4.99160282e-02 -1.42703468e-02 -6.25819666e-03  8.98030070e-03
 -1.34200557e-01 -2.76596074e-02 -1.10715960e-02  1.67321904e-02 -7.28911562e-02
 -2.60628733e-03 -4.27916347e-03  1.96822790e-02  7.18811152e-04  4.54292680e-03
  1.77596062e-03 -3.75251517e-03 -2.27820661e-03  6.67317032e-02  1.08601723e-01
 -3.39616896e-03 -1.14719312e-02  6.42155820e-02 -2.82593640e-01 -1.79337576e-03
 -1.58564322e-02  9.02100203e-02 -7.08972979e-02 -1.02674844e-02  5.54946579e-03
 -4.39455093e-02 -2.50015625e-02  1.19788768e-02  1.06393841e-02 -4.64818675e-03
 -3.85035060e-03  1.31544228e-02  2.18157700e-02  5.67901680e-03 -2.21360348e-03
  8.87174871e-03 -5.88732053e-02  1.18095787e-02 -6.26222313e-03  2.32381615e-02
  2.25872212e-02 -1.56951414e-02  4.35904408e-03 -9.34284788e-05 -1.66642404e-03
 -6.44943915e-03  1.76991487e-03 -1.62239479e-03 -5.20331063e-04  7.65261505e-03
  1.26208427e-02  3.24157357e-03  3.20345246e-03  1.68616534e-03 -3.28841699e-02
  6.41628637e-03  6.94654369e-03  2.60206731e-03 -2.35397829e-02  5.25809868e-03
  2.08999645e-03 -5.63463680e-04  3.23411514e-04 -8.96063887e-05  1.37590523e-04
 -2.60904356e-04 -1.63932291e-03  9.58855806e-02  1.59783152e-01  1.15938215e-02
  1.15027956e-02 -5.40310319e-02 -4.46745655e-01  1.81273619e-02  1.82299693e-02
 -8.58096593e-02 -3.43618943e-01  1.05764390e-02  9.05109928e-03 -3.94409217e-02
 -1.35558191e-02  5.48709321e-03  5.30941640e-03 -1.91287815e-04 -1.25683351e-03
 -5.56966027e-03 -9.51622696e-03  3.07978148e-03  1.22918713e-03 -2.58366074e-03
 -1.13634156e-04 -4.76681324e-03 -1.54530850e-02  3.91395340e-04 -9.88860960e-04
  9.10540704e-04  3.73675711e-03 -1.90781528e-02 -1.25358649e-02  1.92040655e-04
 -5.07333433e-03  1.33062988e-04 -3.45642367e-03 -1.51331496e-02 -2.21328045e-02
  3.24718273e-03 -2.00092647e-03  5.00432758e-04  5.97459666e-03 -3.78531216e-03
 -3.33194213e-03  1.21685314e-03  8.89816477e-04 -4.43792217e-04  7.96207547e-04
 -7.20830515e-03 -6.92822517e-03 -7.66158512e-04  4.82474536e-04  3.33218873e-04
 -1.54576953e-03  9.84329889e-02  1.62839822e-01 -1.38695135e-02 -1.29784099e-02
 -6.73099637e-04 -4.31579124e-01 -2.28826903e-02 -2.12333836e-02 -2.05201902e-03
 -3.34173863e-01 -2.63267250e-02 -1.14166918e-02  1.95752087e-03 -2.14412258e-03
  8.21518400e-04  7.58469511e-04 -1.00959697e-02 -2.60094275e-03  2.21150601e-02
  3.69716243e-02  5.66416617e-02  2.02525307e-02 -6.41396146e-02 -9.98977399e-02
  9.33687361e-02  3.23198880e-02 -1.00064970e-01 -2.89291216e-02 -3.05549936e-02
 -2.94736914e-03 -8.68637083e-03  1.99008632e-02  6.23073885e-03 -1.71630980e-03
 -1.73278796e-02 -6.05350291e-03  1.41849372e-02  2.34963265e-02  6.95714887e-03
 -9.32476023e-04  9.75159545e-04 -6.29207430e-02  1.44779352e-02 -4.33660370e-03
  5.51779698e-03  5.28850702e-03  1.98453342e-03  4.56976100e-04 -1.29845167e-02
  2.71852454e-03 -2.66021766e-03 -5.42723522e-05 -4.59666436e-03 -1.59550414e-03
  8.38721241e-03  1.38965058e-02  1.30992230e-03  3.39140550e-03 -1.00748557e-03
 -3.67386508e-02  3.68388612e-03  6.40006707e-03 -1.49888514e-03 -3.48410631e-02
 -2.24873083e-03  6.39407564e-03 -1.58075536e-03  5.99724542e-04  2.64928272e-04
  3.90531938e-04 -3.36125347e-04 -9.36079356e-04 -4.58379952e-02 -7.65770731e-02
  4.16030188e-03 -1.99065211e-03  1.50087629e-02  2.15475723e-01  7.21756327e-03
 -2.56150484e-03  2.08806627e-02  1.76748885e-01  1.00223848e-02 -6.03792619e-04
  1.22964839e-02  4.66815638e-03  1.22857026e-03 -1.26605938e-03 -3.61900603e-05
 -2.18847980e-04 -7.18042284e-03 -1.65731808e-02  1.41792107e-03  1.47481174e-03
 -3.59763349e-03  8.14151155e-05 -1.09334955e-02 -1.65968078e-02  3.34404816e-03
 -6.88980564e-04  9.08351848e-04  3.55584728e-03 -6.94250005e-02 -7.08564346e-02
  7.06983845e-04 -1.43493647e-02  1.78524871e-03 -1.30244411e-02 -7.56648763e-02
 -7.45913978e-02  1.83505378e-04 -4.42447998e-03  4.64886310e-04  1.95402395e-02
 -6.46220839e-03 -1.91808675e-03 -3.67734779e-04  1.25007003e-03 -6.58208379e-05
  4.24106382e-04 -4.75078265e-03 -1.09955237e-03  2.71196376e-03 -4.73452987e-04
 -3.05119394e-04 -1.28956088e-03  1.92431915e-02  3.18465512e-02  6.73671606e-04
 -2.67059638e-03  3.62340211e-03 -8.44897274e-02  2.06349726e-03 -4.50877250e-03
  5.40233098e-03 -7.15972538e-02 -4.74974751e-03 -2.16676010e-03  1.71024651e-03
 -1.47944361e-03  6.81238844e-04  5.76507021e-04 -1.05092147e-03 -1.19109089e-04
 -7.74449908e-04 -1.65783612e-03  2.61021140e-02  1.45176821e-03  1.88766282e-02
  6.37776402e-03  4.90063115e-02  2.58078924e-03  3.45231342e-02  1.68733255e-02
 -1.33353004e-03 -1.32822853e-03  1.13902262e-02 -9.97918515e-04  1.04779687e-02
  1.75437071e-03  1.61745766e-03 -1.55111953e-03 -5.36923511e-02 -8.85337817e-02
  2.82674503e-02  2.44095700e-02 -1.10681829e-02  2.28011999e-01  5.36688651e-02
  5.08915480e-02 -2.67160972e-02  7.25295356e-02  2.77880362e-03 -4.09253249e-03
 -3.17338008e-03 -8.21199806e-03 -5.39971837e-03 -7.09505627e-03  3.61368514e-03
  1.69399600e-02 -9.51069668e-02 -1.57303048e-01 -3.11001895e-03 -3.15633961e-02
 -5.71480114e-03  4.18222906e-01 -9.47242632e-03 -5.59694960e-02 -7.58122604e-03
  3.08907076e-01 -1.19680903e-02 -2.85414176e-02 -1.15131211e-03 -4.88975081e-04
  1.23362694e-04 -2.68128139e-03  2.43898764e-03  5.30975880e-03  1.14522197e-02
  1.91569364e-02  8.47410656e-03  2.24891865e-03 -2.06596913e-03 -5.46155300e-02