Generated by Psi4
        SP                           RHF                         MINIX
Number of atoms                            I               26
Charge                                     I                0
Multiplicity                               I                1
Number of electrons                        I               96
Number of alpha electrons                  I               48
Number of beta electrons                   I               48
Number of basis functions                  I               78
Number of independent functions            I               78
Atomic numbers                             I   N=          26
           6           7           6           6           6           8
           6           6           6           6           6           1
           1           1           7           1           1           1
           1           1           1           7           1           1
           1           1
Nuclear charges                            R   N=          26
  6.00000000e+00  7.00000000e+00  6.00000000e+00  6.00000000e+00  6.00000000e+00
  8.00000000e+00  6.00000000e+00  6.00000000e+00  6.00000000e+00  6.00000000e+00
  6.00000000e+00  1.00000000e+00  1.00000000e+00  1.00000000e+00  7.00000000e+00
  1.00000000e+00  1.00000000e+00  1.00000000e+00  1.00000000e+00  1.00000000e+00
  1.00000000e+00  7.00000000e+00  1.00000000e+00  1.00000000e+00  1.00000000e+00
  1.00000000e+00
Current cartesian coordinates              R   N=          78
 -8.83275491e-01 -3.86875639e-01  3.04675304e-01  1.42502497e+00 -7.17766683e-01
  1.73293031e+00  3.76866331e+00  1.80231171e-01  8.35688345e-01  6.05353117e+00
 -1.24581653e-01  2.65360488e+00  1.17633701e+00 -1.86067304e+00  4.24362044e+00
  4.09123956e+00  1.22959609e+00 -1.22449108e+00 -3.24505520e+00 -3.66844542e-01
  1.51617872e+00 -5.48759320e+00  2.88701451e-01 -2.45319100e+00 -5.50403381e+00
 -5.67404846e-02  1.60300228e-01 -3.15189170e+00  1.87790076e-01 -3.68019018e+00
 -8.92913094e-01 -1.25715488e-01 -2.32657935e+00  2.92584546e+00 -2.77359974e+00
  4.84474232e+00 -2.66090938e-01 -3.34373011e+00  4.23436078e+00  6.97480413e-01
 -3.82151323e-01  5.60781373e+00  8.30665163e+00  1.22468280e+00  1.69721449e+00
  6.47210551e+00 -2.15206881e+00  2.73543002e+00  5.56995025e+00  5.69136808e-01
  4.54257511e+00 -3.41645336e+00 -5.39565510e-01  3.55311451e+00 -7.27395130e+00
 -6.69450057e-02  1.19813782e+00 -3.05551567e+00  3.41613783e-01 -5.72695254e+00
  8.31650968e-01 -2.33618850e-01 -3.43131325e+00 -7.71595824e+00  4.55942213e-01
 -3.92547663e+00 -7.36031179e+00  1.40968699e+00 -5.56027870e+00  8.74828063e+00
  5.71404479e-01 -6.15536193e-02  9.79159842e+00  9.19492032e-01  2.88755297e+00
 -9.36871271e+00 -2.47035905e-01 -3.44019496e+00
Integer atomic weights                     I   N=          26
          12          14          12          12          12          16
          12          12          12          12          12           1
           1           1          14           1           1           1
           1           1           1          14           1           1
           1           1
Real atomic weights                        R   N=          26
  1.20000000e+01  1.40030740e+01  1.20000000e+01  1.20000000e+01  1.20000000e+01
  1.59949146e+01  1.20000000e+01  1.20000000e+01  1.20000000e+01  1.20000000e+01
  1.20000000e+01  1.00782503e+00  1.00782503e+00  1.00782503e+00  1.40030740e+01
  1.00782503e+00  1.00782503e+00  1.00782503e+00  1.00782503e+00  1.00782503e+00
  1.00782503e+00  1.40030740e+01  1.00782503e+00  1.00782503e+00  1.00782503e+00
  1.00782503e+00
Number of primitive shells                 I              156
Number of contracted shells                I               52
Pure/Cartesian d shells                    I                0
Pure/Cartesian f shells                    I                0
Highest angular momentum                   I                1
Largest degree of contraction              I                3
Shell types                                I   N=          52
           0           0           1           0           0           1
           0           0           1           0           0           1
           0           0           1           0           0           1
           0           0           1           0           0           1
           0           0           1           0           0           1
           0           0           1           0           0           0
           0           0           1           0           0           0
           0           0           0           0           0           1
           0           0           0           0
Number of primitives per shell             I   N=          52
           3           3           3           3           3           3
           3           3           3           3           3           3
           3           3           3           3           3           3
           3           3           3           3           3           3
           3           3           3           3           3           3
           3           3           3           3           3           3
           3           3           3           3           3           3
           3           3           3           3           3           3
           3           3           3           3
Shell to atom map                          I   N=          52
           1           1           1           2           2           2
           3           3           3           4           4           4
           5           5           5           6           6           6
           7           7           7           8           8           8
           9           9           9          10          10          10
          11          11          11          12          13          14
          15          15          15          16          17          18
          19          20          21          22          22          22
          23          24          25          26
Primitive exponents                        R   N=         156
  1.53172260e+02  2.30730300e+01  4.92329000e+00  6.61661200e+00  5.25856000e-01
  1.69958000e-01  4.91292000e+00  9.97616000e-01  2.32685000e-01  2.18364490e+02
  3.25988900e+01  6.91739000e+00  8.91942600e+00  7.06141000e-01  2.25054000e-01
  6.55627200e+00  1.34907900e+00  3.12209000e-01  1.53172260e+02  2.30730300e+01
  4.92329000e+00  6.61661200e+00  5.25856000e-01  1.69958000e-01  4.91292000e+00
  9.97616000e-01  2.32685000e-01  1.53172260e+02  2.30730300e+01  4.92329000e+00
  6.61661200e+00  5.25856000e-01  1.69958000e-01  4.91292000e+00  9.97616000e-01
  2.32685000e-01  1.53172260e+02  2.30730300e+01  4.92329000e+00  6.61661200e+00
  5.25856000e-01  1.69958000e-01  4.91292000e+00  9.97616000e-01  2.32685000e-01
  2.81866580e+02  4.24160000e+01  9.09562000e+00  1.17893260e+01  9.12894000e-01
  2.86661000e-01  8.27414000e+00  1.71546300e+00  3.83013000e-01  1.53172260e+02
  2.30730300e+01  4.92329000e+00  6.61661200e+00  5.25856000e-01  1.69958000e-01
  4.91292000e+00  9.97616000e-01  2.32685000e-01  1.53172260e+02  2.30730300e+01
  4.92329000e+00  6.61661200e+00  5.25856000e-01  1.69958000e-01  4.91292000e+00
  9.97616000e-01  2.32685000e-01  1.53172260e+02  2.30730300e+01  4.92329000e+00
  6.61661200e+00  5.25856000e-01  1.69958000e-01  4.91292000e+00  9.97616000e-01
  2.32685000e-01  1.53172260e+02  2.30730300e+01  4.92329000e+00  6.61661200e+00
  5.25856000e-01  1.69958000e-01  4.91292000e+00  9.97616000e-01  2.32685000e-01
  1.53172260e+02  2.30730300e+01  4.92329000e+00  6.61661200e+00  5.25856000e-01
  1.69958000e-01  4.91292000e+00  9.97616000e-01  2.32685000e-01  7.03406300e+00
  1.06475600e+00  2.36559000e-01  7.03406300e+00  1.06475600e+00  2.36559000e-01
  7.03406300e+00  1.06475600e+00  2.36559000e-01  2.18364490e+02  3.25988900e+01
  6.91739000e+00  8.91942600e+00  7.06141000e-01  2.25054000e-01  6.55627200e+00
  1.34907900e+00  3.12209000e-01  7.03406300e+00  1.06475600e+00  2.36559000e-01
  7.03406300e+00  1.06475600e+00  2.36559000e-01  7.03406300e+00  1.06475600e+00
  2.36559000e-01  7.03406300e+00  1.06475600e+00  2.36559000e-01  7.03406300e+00
  1.06475600e+00  2.36559000e-01  7.03406300e+00  1.06475600e+00  2.36559000e-01
  2.18364490e+02  3.25988900e+01  6.91739000e+00  8.91942600e+00  7.06141000e-01
  2.25054000e-01  6.55627200e+00  1.34907900e+00  3.12209000e-01  7.03406300e+00
  1.06475600e+00  2.36559000e-01  7.03406300e+00  1.06475600e+00  2.36559000e-01
  7.03406300e+00  1.06475600e+00  2.36559000e-01  7.03406300e+00  1.06475600e+00
  2.36559000e-01
Contraction coefficients                   R   N=         156
  7.07400095e-02  3.95380053e-01  6.63311089e-01 -8.13799884e-02  5.74852918e-01
  5.02412928e-01  1.09930928e-01  4.62712695e-01  6.27513586e-01  6.78700100e-02
  3.90202057e-01  6.70083099e-01 -8.08899713e-02  5.67201799e-01  5.11091818e-01
  1.15918975e-01  4.69957900e-01  6.18447868e-01  7.07400095e-02  3.95380053e-01
  6.63311089e-01 -8.13799884e-02  5.74852918e-01  5.02412928e-01  1.09930928e-01
  4.62712695e-01  6.27513586e-01  7.07400095e-02  3.95380053e-01  6.63311089e-01
 -8.13799884e-02  5.74852918e-01  5.02412928e-01  1.09930928e-01  4.62712695e-01
  6.27513586e-01  7.07400095e-02  3.95380053e-01  6.63311089e-01 -8.13799884e-02
  5.74852918e-01  5.02412928e-01  1.09930928e-01  4.62712695e-01  6.27513586e-01
  6.90600291e-02  3.93159166e-01  6.65669281e-01 -8.08199297e-02  5.82089494e-01
  4.97159568e-01  1.24271003e-01  4.76594010e-01  6.13044013e-01  7.07400095e-02
  3.95380053e-01  6.63311089e-01 -8.13799884e-02  5.74852918e-01  5.02412928e-01
  1.09930928e-01  4.62712695e-01  6.27513586e-01  7.07400095e-02  3.95380053e-01
  6.63311089e-01 -8.13799884e-02  5.74852918e-01  5.02412928e-01  1.09930928e-01
  4.62712695e-01  6.27513586e-01  7.07400095e-02  3.95380053e-01  6.63311089e-01
 -8.13799884e-02  5.74852918e-01  5.02412928e-01  1.09930928e-01  4.62712695e-01
  6.27513586e-01  7.07400095e-02  3.95380053e-01  6.63311089e-01 -8.13799884e-02
  5.74852918e-01  5.02412928e-01  1.09930928e-01  4.62712695e-01  6.27513586e-01
  7.07400095e-02  3.95380053e-01  6.63311089e-01 -8.13799884e-02  5.74852918e-01
  5.02412928e-01  1.09930928e-01  4.62712695e-01  6.27513586e-01  7.04520124e-02
  4.07826072e-01  6.47752114e-01  7.04520124e-02  4.07826072e-01  6.47752114e-01
  7.04520124e-02  4.07826072e-01  6.47752114e-01  6.78700100e-02  3.90202057e-01
  6.70083099e-01 -8.08899713e-02  5.67201799e-01  5.11091818e-01  1.15918975e-01
  4.69957900e-01  6.18447868e-01  7.04520124e-02  4.07826072e-01  6.47752114e-01
  7.04520124e-02  4.07826072e-01  6.47752114e-01  7.04520124e-02  4.07826072e-01
  6.47752114e-01  7.04520124e-02  4.07826072e-01  6.47752114e-01  7.04520124e-02
  4.07826072e-01  6.47752114e-01  7.04520124e-02  4.07826072e-01  6.47752114e-01
  6.78700100e-02  3.90202057e-01  6.70083099e-01 -8.08899713e-02  5.67201799e-01
  5.11091818e-01  1.15918975e-01  4.69957900e-01  6.18447868e-01  7.04520124e-02
  4.07826072e-01  6.47752114e-01  7.04520124e-02  4.07826072e-01  6.47752114e-01
  7.04520124e-02  4.07826072e-01  6.47752114e-01  7.04520124e-02  4.07826072e-01
  6.47752114e-01
Coordinates of each shell                  R   N=         156
 -8.83275491e-01 -3.86875639e-01  3.04675304e-01 -8.83275491e-01 -3.86875639e-01
  3.04675304e-01 -8.83275491e-01 -3.86875639e-01  3.04675304e-01  1.42502497e+00
 -7.17766683e-01  1.73293031e+00  1.42502497e+00 -7.17766683e-01  1.73293031e+00
  1.42502497e+00 -7.17766683e-01  1.73293031e+00  3.76866331e+00  1.80231171e-01
  8.35688345e-01  3.76866331e+00  1.80231171e-01  8.35688345e-01  3.76866331e+00
  1.80231171e-01  8.35688345e-01  6.05353117e+00 -1.24581653e-01  2.65360488e+00
  6.05353117e+00 -1.24581653e-01  2.65360488e+00  6.05353117e+00 -1.24581653e-01
  2.65360488e+00  1.17633701e+00 -1.86067304e+00  4.24362044e+00  1.17633701e+00
 -1.86067304e+00  4.24362044e+00  1.17633701e+00 -1.86067304e+00  4.24362044e+00
  4.09123956e+00  1.22959609e+00 -1.22449108e+00  4.09123956e+00  1.22959609e+00
 -1.22449108e+00  4.09123956e+00  1.22959609e+00 -1.22449108e+00 -3.24505520e+00
 -3.66844542e-01  1.51617872e+00 -3.24505520e+00 -3.66844542e-01  1.51617872e+00
 -3.24505520e+00 -3.66844542e-01  1.51617872e+00 -5.48759320e+00  2.88701451e-01
 -2.45319100e+00 -5.48759320e+00  2.88701451e-01 -2.45319100e+00 -5.48759320e+00
  2.88701451e-01 -2.45319100e+00 -5.50403381e+00 -5.67404846e-02  1.60300228e-01
 -5.50403381e+00 -5.67404846e-02  1.60300228e-01 -5.50403381e+00 -5.67404846e-02
  1.60300228e-01 -3.15189170e+00  1.87790076e-01 -3.68019018e+00 -3.15189170e+00
  1.87790076e-01 -3.68019018e+00 -3.15189170e+00  1.87790076e-01 -3.68019018e+00
 -8.92913094e-01 -1.25715488e-01 -2.32657935e+00 -8.92913094e-01 -1.25715488e-01
 -2.32657935e+00 -8.92913094e-01 -1.25715488e-01 -2.32657935e+00  2.92584546e+00
 -2.77359974e+00  4.84474232e+00 -2.66090938e-01 -3.34373011e+00  4.23436078e+00
  6.97480413e-01 -3.82151323e-01  5.60781373e+00  8.30665163e+00  1.22468280e+00
  1.69721449e+00  8.30665163e+00  1.22468280e+00  1.69721449e+00  8.30665163e+00
  1.22468280e+00  1.69721449e+00  6.47210551e+00 -2.15206881e+00  2.73543002e+00
  5.56995025e+00  5.69136808e-01  4.54257511e+00 -3.41645336e+00 -5.39565510e-01
  3.55311451e+00 -7.27395130e+00 -6.69450057e-02  1.19813782e+00 -3.05551567e+00
  3.41613783e-01 -5.72695254e+00  8.31650968e-01 -2.33618850e-01 -3.43131325e+00
 -7.71595824e+00  4.55942213e-01 -3.92547663e+00 -7.71595824e+00  4.55942213e-01
 -3.92547663e+00 -7.71595824e+00  4.55942213e-01 -3.92547663e+00 -7.36031179e+00
  1.40968699e+00 -5.56027870e+00  8.74828063e+00  5.71404479e-01 -6.15536193e-02
  9.79159842e+00  9.19492032e-01  2.88755297e+00 -9.36871271e+00 -2.47035905e-01
 -3.44019496e+00
Total Energy                               R     -5.825358673916302e+02
Alpha Orbital Energies                     R   N=          78
 -2.02916963e+01 -1.54443748e+01 -1.53755969e+01 -1.53622194e+01 -1.13151938e+01
 -1.12205681e+01 -1.12158255e+01 -1.12125874e+01 -1.12091098e+01 -1.11661631e+01
 -1.11625032e+01 -1.11568030e+01 -1.11538941e+01 -1.36762349e+00 -1.23619650e+00
 -1.19039185e+00 -1.15999692e+00 -1.11030242e+00 -1.00804920e+00 -9.92566478e-01
 -9.58679280e-01 -9.22540333e-01 -8.28270997e-01 -8.07408760e-01 -7.42248213e-01
 -6.98019361e-01 -6.87418435e-01 -6.65676864e-01 -6.54841594e-01 -6.46883376e-01
 -6.20322954e-01 -6.11113095e-01 -5.98029730e-01 -5.80481867e-01 -5.66754296e-01
 -5.58945182e-01 -5.49573184e-01 -5.31272515e-01 -5.28978928e-01 -5.09231014e-01
 -5.07899119e-01 -4.80690246e-01 -4.38715685e-01 -3.91839819e-01 -3.70302560e-01
 -3.66565603e-01 -3.38438731e-01 -2.70850703e-01  1.90772628e-01  1.97023625e-01
  2.52471915e-01  4.36916113e-01  4.58040351e-01  5.19601798e-01  5.37802959e-01
  5.59151374e-01  5.61325511e-01  6.25047976e-01  6.39939124e-01  6.55952805e-01
  6.65326645e-01  6.68039803e-01  6.82064070e-01  6.91780159e-01  6.94217541e-01
  7.00582797e-01  7.18522607e-01  7.42725639e-01  7.62062997e-01  7.69821269e-01
  7.99360529e-01  8.53239033e-01  8.81708106e-01  8.89769786e-01  9.18745211e-01
  9.53928484e-01  1.06993225e+00  1.11371946e+00
Alpha MO coefficients                      R   N=        6084
  4.66087791e-06  3.61096034e-05  7.86253740e-05 -6.72800658e-05  1.59877265e-04
  2.37541237e-05  3.06542740e-04  6.44039799e-04 -4.19677807e-04  1.14194244e-03
 -8.03448197e-04  1.48191433e-02  1.99407982e-03  6.56350577e-03 -1.28756250e-02
  8.88291089e-06  2.29625523e-04 -8.07801734e-04 -5.46011670e-04  6.64443001e-04
 -2.18934719e-05 -1.34613137e-04  3.42517859e-04  1.05060692e-04  2.21353964e-05
 -9.90379200e-01 -4.91613686e-02  1.60256453e-03  4.96653705e-03 -9.61780013e-03
  1.36216552e-06 -2.00389738e-05 -1.66608976e-05 -2.01649369e-06 -1.26251792e-05
  7.62501356e-07 -1.39831834e-05 -9.76620458e-06  8.83321231e-06  3.52403630e-07
 -2.42072667e-07 -7.32898539e-07  2.96285532e-06 -1.49461036e-06 -3.42913975e-06
 -3.40085758e-06  1.26749017e-04  3.96698005e-05 -6.75519499e-05  3.96557828e-05
  2.08726624e-06 -3.12325332e-04  4.38400251e-05  2.15454450e-04  3.75476125e-04
  1.05374510e-05  1.42275495e-04 -3.91037380e-07 -1.93011545e-06  8.28557954e-05
 -1.64116645e-04 -2.23072691e-05  8.85152530e-05 -1.47679194e-04 -1.26662101e-04
  1.54086674e-05  1.47206799e-06 -3.17261119e-06  1.07131137e-03 -7.06362879e-09
 -1.42999859e-06  9.63873869e-07 -4.10793969e-07 -5.35561117e-07  1.23231763e-06
  2.98805033e-04  3.47668027e-05  5.86945292e-07 -5.47330376e-04  9.28611668e-03
  8.03974729e-03 -1.07680323e-03  4.88105424e-03 -9.89018101e-01 -5.85755613e-02
 -3.02741382e-04 -7.31972394e-04  2.32524719e-04 -5.79914446e-04  1.05040529e-02
 -8.75217767e-03 -3.26105758e-03  3.20516131e-03 -1.03006700e-06  2.05888151e-04
  2.63917705e-04  2.39612699e-04 -4.85924181e-04 -5.71101825e-04  9.32781066e-03
  9.05900761e-04  3.46023738e-03 -7.74384199e-03  5.12978220e-06  1.97737987e-04
  9.97699764e-04  1.59000976e-04  6.39912126e-05  8.53932729e-06  3.50342214e-04
 -2.37605588e-04  2.00912943e-04 -7.98193364e-04 -4.65902130e-06 -6.85693966e-05
  5.57757590e-05 -5.06397138e-06  3.67480944e-05 -1.01121713e-05 -1.66699589e-04
  1.03453525e-04 -1.07560376e-05 -1.53581874e-04 -1.07704383e-05 -1.44414399e-04
 -7.77324120e-05  8.35777180e-06  1.79634494e-04  7.90255265e-06  3.46395427e-04
 -8.13568187e-04 -4.09188941e-05  1.87022673e-04 -1.13160624e-04 -8.08753029e-05
  1.49169251e-04  2.14041118e-04 -5.99524221e-05 -1.55552527e-04  4.85097230e-05
 -1.44093037e-04 -9.78921274e-05 -5.80999426e-05  4.29919849e-05  1.01365591e-04
  1.03232796e-04  1.23517963e-04  1.09681121e-04  4.30327032e-05  2.59954295e-05
 -1.48263390e-06  1.73471088e-05  3.90974576e-06  4.38821313e-05  7.36178773e-05
  3.41736928e-06 -5.02763004e-06 -7.62015894e-05 -5.21412455e-05  1.04915818e-05
 -3.37295408e-05 -1.16001901e-04  2.84097461e-05 -2.78234038e-05  2.55198593e-06
 -1.75553917e-05 -3.57595406e-07  5.52301201e-06 -5.85326986e-06 -1.91777020e-06
  1.59770792e-07 -4.21395285e-08  8.27955630e-07 -6.01188021e-07  1.00861160e-07
 -4.13689314e-07 -4.09403031e-07  4.85993518e-06 -2.37888776e-06  3.94721483e-06
 -5.64597520e-06  7.87332424e-08 -6.14248467e-07 -1.44019721e-07  7.92491950e-07
  1.02660432e-06 -1.27393711e-05 -1.16541659e-04  7.22954705e-05  1.00239777e-05
 -2.15701157e-04 -5.75648756e-04  1.03494354e-02 -8.70259053e-03  5.13225220e-04
 -5.43043318e-03  5.77623211e-06  3.57718367e-04  7.92699037e-04  1.25689017e-04
 -2.00924899e-04  2.19896225e-06  3.79471271e-04  1.62905821e-04 -1.65368871e-04
  7.54106070e-04 -1.23591780e-05 -1.20717701e-04 -1.46053617e-04  4.11604107e-05
  1.58881238e-04  1.65464450e-06  1.88438471e-06 -1.01527025e-06  2.50255532e-06
  2.04997844e-07 -1.45038874e-07 -4.78979559e-08 -3.22067093e-08 -1.64814139e-07
 -9.31503454e-08  1.13343295e-04  1.53176897e-04  1.36805947e-05  1.11869438e-04
 -9.88995956e-01 -5.90316072e-02 -1.14775059e-03 -8.28632379e-05 -5.21283040e-04
  1.24412779e-02  2.34705545e-08  2.81064348e-08  1.31590505e-02 -1.62974992e-06
  4.91391001e-05  3.29784647e-05 -5.94813557e-06  2.66955335e-05 -2.36939949e-04
 -6.78780334e-05  1.37791816e-04 -3.57307895e-05  4.84224724e-05 -7.30513697e-06
  3.61883014e-05 -1.18988817e-04 -1.13730859e-04  3.69846090e-04 -5.74727378e-04
  9.64844263e-03  7.46265094e-03  4.08141020e-03 -3.05669317e-03 -9.44529274e-06
 -2.29505408e-05  1.60266693e-04  1.62353994e-04 -8.25470337e-05 -1.71387499e-05
  9.80468723e-05  2.77118723e-05  6.49268755e-05  8.46715569e-05  1.24027385e-07
 -3.58244666e-06  6.43276240e-07 -4.26110643e-08 -1.72214069e-06 -1.33382083e-08
 -4.08829420e-07  1.21740484e-08  1.35282034e-08  6.44214146e-08 -1.06167314e-07
  1.14572100e-06  1.59311637e-06 -2.46731332e-08 -1.08169846e-07 -9.91622994e-08
  1.81641910e-06  7.78969270e-07 -6.76310498e-07  1.57566178e-06 -3.17218937e-09
 -1.05979241e-06  8.91328460e-09  1.62868262e-06  5.52054284e-06  2.71790205e-04
  9.01858912e-05 -1.66516501e-05 -9.89151566e-01 -5.73370431e-02 -1.64919630e-03
  7.54061813e-03 -3.64823762e-04 -9.19170874e-05 -6.65690855e-05  4.77867908e-06
  3.84763239e-07  3.81118024e-07  1.04194229e-05 -2.50751908e-06 -3.04963475e-08
  1.15038814e-07  4.61442023e-10  8.09540118e-08  7.78534834e-08  1.29590130e-02
  1.29886169e-02  6.36827706e-08  2.09044249e-03  8.11997879e-04  1.15799298e-03
  1.96397644e-04  1.31716375e-04 -9.65758369e-04  8.84196329e-03  5.82187217e-03
  2.31295615e-03 -2.46439596e-03 -9.89232528e-01 -5.42020295e-02  4.27587272e-05
 -1.85449241e-04 -3.07097003e-05  9.94558398e-03  9.74928624e-03 -5.97482411e-03
  1.07015745e-03 -5.07562905e-03  1.71275505e-03  8.93517887e-04  3.99274393e-04
  4.26934663e-04 -7.07463160e-04 -6.60906074e-04  1.03926005e-02 -7.21068251e-04
 -1.82808161e-03  3.60486620e-03  1.52100199e-04  2.36506273e-04  1.05906655e-04
 -6.91366303e-05 -1.09539057e-04  2.84295095e-06 -2.18255624e-05 -9.03659762e-07
  3.21663817e-07  5.45196252e-06  1.64731657e-05 -1.19577308e-06  1.98614084e-05
  7.88312858e-06 -7.51052363e-06  9.94373451e-05  2.31318218e-04  8.70958404e-05
 -5.04168132e-05  1.08372997e-04  4.61573963e-04 -1.01315807e-05  4.61854399e-04
  4.86345002e-05  3.54045130e-04  2.80132582e-05  9.71281767e-05  1.13331585e-06
 -3.65490131e-05 -9.50491960e-05 -2.17384872e-04  1.09259027e-04 -5.24003496e-07
  6.03259847e-04  4.18934011e-04 -3.32330977e-06  1.06282668e-05  9.80388028e-06
  5.03572259e-04 -7.86801510e-07  4.20798078e-06  5.55625883e-06  3.08856129e-07
  1.84579186e-06  2.01726951e-06  3.75852708e-04  2.70881072e-04  1.47193065e-06
  1.02010615e-02  7.26095370e-04 -2.23342810e-04  3.46948739e-05 -1.37592183e-04
  2.14945022e-06 -1.25059378e-05  6.42195036e-06 -2.50545464e-06  6.45305520e-06
  2.32826052e-05 -6.57509808e-06  5.20513017e-06 -3.26119474e-06  5.76147534e-06
 -1.35593597e-05 -2.45638946e-06  9.73911504e-07  2.83876768e-07  6.47421241e-07
 -1.79431655e-04 -1.23111396e-05  6.26200375e-06 -4.07038025e-06  5.86292910e-06
  9.13305640e-07 -2.13908818e-06  6.24558842e-06  2.29510113e-07  7.59795908e-06
  1.88743099e-03  3.38340259e-04 -5.04611509e-04  4.41830561e-05  1.65614867e-05
 -9.88448317e-01 -6.11611855e-02 -2.33589766e-03  1.18168023e-03 -1.00875092e-03
  1.22274178e-02  1.31052025e-02 -1.71289699e-04  1.12759928e-03 -9.14235928e-03
  1.18202954e-02  1.32239827e-02 -8.26950281e-03  2.60548085e-04  4.15562883e-03
  1.68298392e-03  2.91089370e-04 -1.88187166e-04  8.10572644e-05 -4.56886701e-04
 -6.72434209e-07 -8.28991099e-06 -9.90366680e-07  2.20122748e-09  8.46659281e-08
  4.14285786e-08 -5.98508888e-08  3.31720920e-08  2.59618704e-07  2.47162897e-07
  8.84503000e-05  3.00715745e-04  2.73946432e-04  8.51515491e-05 -9.80708421e-04
  8.71910457e-03  5.41469389e-03 -5.88015361e-04  3.76525383e-03  1.24483731e-03
 -5.40165339e-08 -4.07353975e-08  9.76083761e-04  9.86414764e-01  6.05856324e-02
 -2.48959382e-03  1.18829547e-04 -1.39051974e-03  9.01078160e-04 -7.53475726e-03
  5.41923555e-03 -9.07903593e-04  3.80915394e-03  2.17104123e-03 -7.65825521e-04
  1.00089933e-03 -1.95594001e-05  1.81649861e-04 -3.55099939e-03 -4.07509394e-04
  9.65691957e-05  1.60834385e-05  1.01756394e-04 -6.16393333e-02 -4.55873302e-03
  3.45502043e-04 -3.45371370e-04  9.06963081e-04  8.03930741e-07  9.17488826e-05
  3.05850999e-05 -7.57126813e-05  8.48614130e-05 -1.61146757e-02 -1.32320537e-02
 -8.16387814e-03  7.47882953e-05  4.08251729e-03  1.01315452e-02  5.12064382e-04
 -1.80654507e-04  1.13209055e-05 -1.17994387e-04 -1.83093779e-03 -4.89354574e-04
 -1.11050039e-04  4.21105605e-05 -2.74802774e-04 -1.82455434e-03 -5.44696451e-04
 -3.17288401e-04  1.58027852e-05 -9.30526475e-06 -1.48422883e-02 -1.31849692e-02
 -1.99356371e-04  9.58015389e-04 -9.10917855e-03  6.05098961e-04  4.58757914e-04
  7.50392680e-04 -1.13387772e-06  2.62215596e-05 -2.16741254e-06 -1.16994397e-05
  1.01968100e-05  6.01409720e-05  7.81154461e-05 -1.76248940e-04 -6.09048495e-05
 -6.62900942e-05 -2.55013976e-04  1.75106677e-05 -1.63405516e-04 -1.01848699e-04
  7.26156913e-06 -6.89708065e-05 -1.45855354e-05 -3.30797344e-06 -3.02617917e-06
 -1.49000924e-05  6.17270625e-02  3.15471412e-03 -8.18554382e-04  3.09041945e-04
 -1.01902681e-03  1.10511534e-03 -9.15008826e-03  8.94503850e-04  3.00710367e-03
 -6.20617120e-03  1.78575620e-03 -4.65510357e-04  1.00214817e-03  3.77671677e-04
 -4.96268262e-04 -2.41845571e-02 -1.69551880e-03  5.90149329e-04  2.76565374e-04
 -1.78985830e-05  9.86128505e-01  6.19521505e-02  1.29605882e-04 -2.37103197e-04
  4.35379231e-04  2.33558713e-05 -2.16647963e-04 -3.99298778e-05  5.33137795e-05
 -1.08466585e-04 -2.57413762e-03 -9.08038301e-04 -1.18527481e-03  1.24721792e-04
  1.56556524e-07  4.42522255e-04  4.38354373e-05 -1.32624212e-05 -8.49156679e-07
 -3.23725242e-06 -5.08713510e-04 -3.21929314e-04 -1.79347483e-04  7.74085456e-06
 -6.84508580e-05 -1.79785538e-04 -3.91735300e-05 -2.69050759e-05  9.48073553e-06
 -2.05388403e-05 -1.54724863e-03 -1.12171481e-03  9.58166901e-06  3.20319724e-05
 -7.63293593e-04 -1.26730243e-02 -1.25992926e-02 -1.26906524e-02 -4.90842834e-06
  3.55030474e-05 -2.96215828e-05  8.91664982e-06  2.43934453e-05  5.30715007e-04
 -1.61918316e-04 -5.99480183e-04 -1.11018338e-05 -1.37896102e-05 -1.37090148e-05
  1.76123325e-06 -1.26408931e-05 -8.31243870e-06  1.27849387e-06 -8.25950881e-06
 -2.01352769e-06  9.59005383e-06  9.76408951e-06 -1.58988273e-06  5.06303854e-03
  2.69270431e-04 -2.56816323e-04 -6.17336576e-05  5.01114541e-05  8.05377071e-05
 -5.03093414e-04 -1.05366786e-04 -7.87173410e-05  2.31831832e-04  1.16895816e-02
 -9.60377439e-03 -6.61160486e-03  6.52768023e-04 -4.96175469e-03  9.88006115e-01
  6.14437860e-02 -5.87525706e-04 -7.96323997e-04  7.14609568e-05  2.40008291e-02
  1.37257232e-03 -4.87838012e-04 -4.43543351e-04  3.11468568e-04  3.50597445e-05
 -2.47399553e-04  3.39914107e-04  4.14092053e-06  2.09681529e-04 -2.87745334e-04
 -1.62925462e-04 -1.06849567e-04  2.31139259e-05  5.36144023e-05  3.18587921e-05
  5.36603676e-06 -8.17087182e-07 -3.85454828e-07 -1.00220293e-06 -2.38168172e-05
 -6.63469101e-06 -4.70891605e-06 -2.07984055e-06 -2.40400856e-06 -8.50830337e-05
 -5.49555664e-05 -2.37547593e-05  1.13069567e-05 -2.25636036e-05 -3.71516080e-04
 -6.23971917e-05 -1.02666838e-04 -2.53001775e-06 -1.04747220e-04 -1.01972904e-03
 -5.24516220e-04 -2.09218062e-04  1.04237116e-03 -8.28978399e-03  5.72405449e-03
  2.85005947e-03 -2.38475375e-03 -1.25973428e-02 -1.24378608e-02 -3.01384975e-05
 -2.02555342e-06 -1.92511336e-06 -3.99914081e-05  2.02203099e-07 -1.28560597e-06
 -1.48968298e-06  9.33373294e-08 -5.36141873e-07 -4.85314749e-07 -1.27889837e-03
 -1.32869373e-03 -3.81427583e-07  1.66609918e-02 -1.06304696e-02  8.01504088e-03
 -4.33681297e-05 -4.70154225e-03  4.53421890e-05 -2.91103115e-04  1.57391694e-06
 -9.19698054e-05  4.24413613e-04  1.98524081e-04 -2.01080637e-05  1.34738979e-04
 -2.12055578e-05  1.53104884e-04  1.58189678e-04 -5.51113755e-05  3.60948018e-05
 -8.06938598e-06  2.96286370e-05  1.58271191e-03 -3.53996564e-05  3.82395407e-04
 -3.47869685e-04  3.39959920e-04 -1.37033520e-06  5.24572423e-05  1.07523423e-05
 -4.79872059e-06  2.46487781e-05  9.83169058e-01  6.20476520e-02 -9.99206691e-04
  4.88735505e-04 -2.57824036e-03  7.57655953e-04  8.41275225e-04  2.52029257e-04
 -8.19950839e-05  3.78086543e-04 -9.11228969e-02 -1.80224847e-02 -8.01565576e-03
  1.06522116e-03 -4.60328659e-03 -3.25998721e-03  1.59320763e-04  3.33940117e-04
 -3.71444722e-06 -2.40341300e-04 -4.34809555e-02 -3.32494670e-03  2.63883590e-05
  9.16642347e-05 -7.33717972e-04 -2.18081484e-04 -4.68471518e-04  6.11917659e-05
  1.79684840e-07  3.66118474e-07  4.89142171e-07  4.16846828e-07  1.91606179e-08
  2.68479932e-06 -3.77366980e-06 -1.16164193e-02  6.26509206e-04 -1.04724213e-04
  3.55903309e-04  1.59131188e-05 -9.19548190e-06  1.33837094e-05  2.40725266e-05
 -1.53827477e-04 -3.34802118e-05 -4.62684784e-07 -1.69764366e-06 -2.26687925e-07
  1.67176783e-02 -1.18314220e-02  2.14094310e-04 -8.71732508e-04  8.94813051e-03
  4.83317945e-05 -3.54003964e-04  3.74603943e-04  2.80571937e-05 -1.36589092e-04
  5.95292873e-04 -2.49346056e-04  3.66418966e-04 -4.59014236e-06  3.42559771e-04
  2.88246398e-04 -1.11594957e-04  7.23263863e-05 -1.61696331e-05  5.55408274e-05
  7.13473720e-04 -7.75493380e-06  2.29356542e-04 -9.94813075e-05  1.18681435e-04
  1.01359602e-05  4.44878587e-05  1.92410700e-04 -1.23762397e-04  2.07038014e-05
  4.12107218e-02  2.13456916e-03 -7.77201316e-04  4.75875415e-05  9.80567700e-05
  4.08945818e-04  1.11630507e-03  5.37049286e-04 -7.77717360e-05  1.03355873e-04
 -1.91976410e-02 -1.87486062e-03 -7.50732499e-04  5.81714271e-05  4.66588048e-06
 -9.96284642e-02 -1.85779551e-02 -7.82652924e-03  1.13730553e-03 -4.98660132e-03
  9.82266640e-01  6.21349614e-02 -3.06072560e-03 -5.16852065e-05  3.99149643e-04
 -1.10730305e-04 -1.85972209e-05  2.01730980e-05  7.27983344e-07  3.61169459e-07
  4.86777582e-06  5.52265811e-07  9.53795786e-07 -6.91077067e-08 -4.46774633e-06
 -6.33009242e-04  5.10994766e-05  7.09710541e-04 -1.15312840e-02  1.58916551e-05
  1.92792622e-06 -1.72321186e-04  1.82382619e-06  4.77300432e-05 -4.55629938e-05
 -3.99570113e-06 -3.89614254e-06 -5.44706152e-05  3.48327527e-03 -1.45258559e-03
  1.04585184e-03  1.43309281e-05 -7.78074731e-04  2.08802006e-05 -3.91634459e-05
  1.29772463e-04 -1.64374617e-05  1.42255117e-05  4.41994360e-05 -4.03992667e-05
  3.87259805e-05  2.15356471e-05  7.95845393e-06  1.83367194e-05 -5.29216712e-06
  4.82812525e-06 -1.37219319e-06  2.35430198e-06  5.76328439e-04 -1.06221736e-05
  1.92759229e-04 -1.08891091e-04  1.02005532e-04 -1.00112352e-07  4.11942664e-06
  9.88904516e-07 -5.28271660e-06 -2.07930712e-06  9.25377465e-02 -6.61923690e-03
  7.81763016e-03 -1.04264457e-03  4.47684935e-03  1.29004820e-02 -1.09498859e-02
  8.09135491e-04  1.14194349e-03 -9.56194659e-03  9.82060716e-01  6.00613447e-02
  1.37885480e-03  1.84892041e-04 -1.60099710e-03 -6.55361756e-02 -4.87435221e-03