      -----------------------------------------------------------      
     |                   =====================                   |     
     |                           x T B                           |     
     |                   =====================                   |     
     |                         S. Grimme                         |     
     |          Mulliken Center for Theoretical Chemistry        |     
     |                    University of Bonn                     |     
      -----------------------------------------------------------      

   * xtb version 6.5.0 (97a52f5) compiled by 'conda@d2599ee0d4f4' on 2022-05-15

   xtb is free software: you can redistribute it and/or modify it under
   the terms of the GNU Lesser General Public License as published by
   the Free Software Foundation, either version 3 of the License, or
   (at your option) any later version.
   
   xtb is distributed in the hope that it will be useful,
   but WITHOUT ANY WARRANTY; without even the implied warranty of
   MERCHANTABILITY or FITNESS FOR A PARTICULAR PURPOSE.  See the
   GNU Lesser General Public License for more details.
   
   Cite this work as:
   * C. Bannwarth, E. Caldeweyher, S. Ehlert, A. Hansen, P. Pracht,
     J. Seibert, S. Spicher, S. Grimme, WIREs Comput. Mol. Sci., 2020, 11,
     e01493. DOI: 10.1002/wcms.1493
   
   for GFN2-xTB:
   * C. Bannwarth, S. Ehlert and S. Grimme., J. Chem. Theory Comput., 2019,
     15, 1652-1671. DOI: 10.1021/acs.jctc.8b01176
   for GFN1-xTB:
   * S. Grimme, C. Bannwarth, P. Shushkov, J. Chem. Theory Comput., 2017,
     13, 1989-2009. DOI: 10.1021/acs.jctc.7b00118
   for GFN0-xTB:
   * P. Pracht, E. Caldeweyher, S. Ehlert, S. Grimme, ChemRxiv, 2019, preprint.
     DOI: 10.26434/chemrxiv.8326202.v1
   for GFN-FF:
   * S. Spicher and S. Grimme, Angew. Chem. Int. Ed., 2020, 59, 15665-15673.
     DOI: 10.1002/anie.202004239
   
   for ALPB and GBSA implicit solvation:
   * S. Ehlert, M. Stahn, S. Spicher, S. Grimme, J. Chem. Theory Comput.,
     2021, 17, 4250-4261. DOI: 10.1021/acs.jctc.1c00471
   
   for DFT-D4:
   * E. Caldeweyher, C. Bannwarth and S. Grimme, J. Chem. Phys., 2017,
     147, 034112. DOI: 10.1063/1.4993215
   * E. Caldeweyher, S. Ehlert, A. Hansen, H. Neugebauer, S. Spicher,
     C. Bannwarth and S. Grimme, J. Chem. Phys., 2019, 150, 154122.
     DOI: 10.1063/1.5090222
   * E. Caldeweyher, J.-M. Mewes, S. Ehlert and S. Grimme, Phys. Chem. Chem. Phys.
     2020, 22, 8499-8512. DOI: 10.1039/D0CP00502A
   
   for sTDA-xTB:
   * S. Grimme and C. Bannwarth, J. Chem. Phys., 2016, 145, 054103.
     DOI: 10.1063/1.4959605
   
   in the mass-spec context:
   * V. Asgeirsson, C. Bauer and S. Grimme, Chem. Sci., 2017, 8, 4879.
     DOI: 10.1039/c7sc00601b
   * J. Koopman and S. Grimme, ACS Omega 2019, 4, 12, 15120-15133.
     DOI: 10.1021/acsomega.9b02011
   
   for metadynamics refer to:
   * S. Grimme, J. Chem. Theory Comput., 2019, 155, 2847-2862
     DOI: 10.1021/acs.jctc.9b00143
   
   for SPH calculations refer to:
   * S. Spicher and S. Grimme, J. Chem. Theory Comput., 2021, 17, 1701-1714
     DOI: 10.1021/acs.jctc.0c01306
   
   with help from (in alphabetical order)
   P. Atkinson, C. Bannwarth, F. Bohle, G. Brandenburg, E. Caldeweyher
   M. Checinski, S. Dohm, S. Ehlert, S. Ehrlich, I. Gerasimov, C. Hölzer
   A. Katbashev, J. Koopman, C. Lavigne, S. Lehtola, F. März, M. Müller,
   F. Musil, H. Neugebauer, J. Pisarek, C. Plett, P. Pracht, F. Pultar,
   J. Seibert, P. Shushkov, S. Spicher, M. Stahn, M. Steiner, T. Strunk,
   J. Stückrath, T. Rose, and J. Unsleber
   
 * started run on 2023/11/18 at 08:41:29.452     

           -------------------------------------------------
          |                Calculation Setup                |
           -------------------------------------------------

          program call               : /home/liuchw/anaconda3/envs/xtbenv/bin/xtb --gfn 2 --chrg 0 --uhf 0 7_11_Index_0-opt-2-3-283_preQMOPTprefit_xyzformat.xyz --opt --input xtb-opt-2-3-283_constr.txt
          hostname                   : node165.bme.utexas.edu
          coordinate file            : 7_11_Index_0-opt-2-3-283_preQMOPTprefit_xyzformat.xyz
          omp threads                :                    64

   ID    Z sym.   atoms
    1    7 N      1, 9
    2    6 C      2-6, 8, 10-14
    3    1 H      7, 15-17, 19-24
    4    8 O      18
constraining angle 1 2 3 4 to  282.9629317°, actual value:  -77.0370683°
constraining angle 24 1 2 3 to   27.9923881°, actual value:   27.9923881°
constraining angle 24 1 2 5 to  204.0027734°, actual value: -155.9972266°
constraining angle 7 1 2 3 to  173.0027199°, actual value:  173.0027199°
constraining angle 7 1 2 5 to  349.0131052°, actual value:  -10.9868948°
constraining angle 1 2 5 8 to  187.9961172°, actual value: -172.0038828°

           -------------------------------------------------
          |                 G F N 2 - x T B                 |
           -------------------------------------------------

        Reference                      10.1021/acs.jctc.8b01176
      * Hamiltonian:
        H0-scaling (s, p, d)           1.850000    2.230000    2.230000
        zeta-weighting                 0.500000
      * Dispersion:
        s8                             2.700000
        a1                             0.520000
        a2                             5.000000
        s9                             5.000000
      * Repulsion:
        kExp                           1.500000    1.000000
        rExp                           1.000000
      * Coulomb:
        alpha                          2.000000
        third order                    shell-resolved
        anisotropic                    true
        a3                             3.000000
        a5                             4.000000
        cn-shift                       1.200000
        cn-exp                         4.000000
        max-rad                        5.000000

q/qsh data taken from xtbrestart
CAMM data taken from xtbrestart

          ...................................................
          :                      SETUP                      :
          :.................................................:
          :  # basis functions                  66          :
          :  # atomic orbitals                  66          :
          :  # shells                           38          :
          :  # electrons                        70          :
          :  max. iterations                   250          :
          :  Hamiltonian                  GFN2-xTB          :
          :  restarted?                       true          :
          :  GBSA solvation                  false          :
          :  PC potential                    false          :
          :  electronic temp.          300.0000000     K    :
          :  accuracy                    1.0000000          :
          :  -> integral cutoff          0.2500000E+02      :
          :  -> integral neglect         0.1000000E-07      :
          :  -> SCF convergence          0.1000000E-05 Eh   :
          :  -> wf. convergence          0.1000000E-03 e    :
          :  Broyden damping             0.4000000          :
          ...................................................

 iter      E             dE          RMSdq      gap      omega  full diag
   1    -39.1016840 -0.391017E+02  0.182E+00    2.25       0.0  T
   2    -39.1020797 -0.395614E-03  0.107E+00    2.30       1.0  T
   3    -39.1009603  0.111940E-02  0.222E-01    2.24       1.0  T
   4    -39.1022256 -0.126531E-02  0.427E-02    2.29       1.0  T
   5    -39.1022645 -0.389566E-04  0.183E-02    2.28       1.1  T
   6    -39.1022664 -0.189266E-05  0.111E-02    2.29       1.8  T
   7    -39.1022680 -0.157532E-05  0.295E-03    2.28       6.9  T
   8    -39.1022681 -0.111110E-06  0.997E-04    2.28      20.5  T
   9    -39.1022681 -0.337347E-08  0.508E-04    2.28      40.2  T

   *** convergence criteria satisfied after 9 iterations ***

         #    Occupation            Energy/Eh            Energy/eV
      -------------------------------------------------------------
         1        2.0000           -0.6709285             -18.2569
       ...           ...                  ...                  ...
        29        2.0000           -0.4370228             -11.8920
        30        2.0000           -0.4319920             -11.7551
        31        2.0000           -0.4124948             -11.2246
        32        2.0000           -0.4084082             -11.1134
        33        2.0000           -0.3967034             -10.7949
        34        2.0000           -0.3757112             -10.2236
        35        2.0000           -0.3479455              -9.4681 (HOMO)
        36                         -0.2640113              -7.1841 (LUMO)
        37                         -0.2381825              -6.4813
        38                         -0.2371264              -6.4525
        39                         -0.1736150              -4.7243
        40                         -0.1217776              -3.3137
       ...                                ...                  ...
        66                          0.6768070              18.4169
      -------------------------------------------------------------
                  HL-Gap            0.0839343 Eh            2.2840 eV
             Fermi-level           -0.3059784 Eh           -8.3261 eV

 SCC (total)                   0 d,  0 h,  0 min,  1.392 sec
 SCC setup                      ...        0 min,  0.011 sec (  0.761%)
 Dispersion                     ...        0 min,  0.028 sec (  1.995%)
 classical contributions        ...        0 min,  0.007 sec (  0.470%)
 integral evaluation            ...        0 min,  0.035 sec (  2.548%)
 iterations                     ...        0 min,  1.119 sec ( 80.413%)
 molecular gradient             ...        0 min,  0.162 sec ( 11.613%)
 printout                       ...        0 min,  0.030 sec (  2.186%)

         :::::::::::::::::::::::::::::::::::::::::::::::::::::
         ::                     SUMMARY                     ::
         :::::::::::::::::::::::::::::::::::::::::::::::::::::
         :: total energy             -38.542099915828 Eh    ::
         :: gradient norm              0.074668119474 Eh/a0 ::
         :: HOMO-LUMO gap              2.283967276149 eV    ::
         ::.................................................::
         :: SCC energy               -39.102268099473 Eh    ::
         :: -> isotropic ES            0.050556300894 Eh    ::
         :: -> anisotropic ES          0.001727273615 Eh    ::
         :: -> anisotropic XC          0.020406837104 Eh    ::
         :: -> dispersion             -0.023342882267 Eh    ::
         :: repulsion energy           0.560072795073 Eh    ::
         :: add. restraining           0.000000000000 Eh    ::
         :: total charge              -0.000000000000 e     ::
         :::::::::::::::::::::::::::::::::::::::::::::::::::::

      ----------------------------------------------------------- 
     |                   =====================                   |
     |                        A N C O P T                        |
     |                   =====================                   |
     |               Approximate Normal Coordinate               |
     |                Rational Function Optimizer                |
      ----------------------------------------------------------- 

          ...................................................
          :                      SETUP                      :
          :.................................................:
          :   optimization level            normal          :
          :   max. optcycles                   200          :
          :   ANC micro-cycles                  20          :
          :   degrees of freedom                66          :
          :.................................................:
          :   RF solver                   davidson          :
          :   write xtbopt.log                true          :
          :   linear?                        false          :
          :   energy convergence         0.5000000E-05 Eh   :
          :   grad. convergence          0.1000000E-02 Eh/α :
          :   maximium RF displ.         1.0000000          :
          :   Hlow (freq-cutoff)         0.1000000E-01      :
          :   Hmax (freq-cutoff)         5.0000000          :
          :   S6 in model hess.         20.0000000          :
          ...................................................

generating ANC from model Hessian ...
Using Lindh-Hessian (1995)
 Shifting diagonal of input Hessian by    8.5054764082759474E-003
 Lowest  eigenvalues of input Hessian
    0.000000    0.000000    0.000000    0.000000    0.000000    0.000000
    0.010000    0.010933    0.012515    0.016486    0.018378    0.022615
    0.023890    0.027843    0.029558    0.030537    0.034331    0.039069
 Highest eigenvalues
    2.252857    2.713333    3.386583    6.844862    8.471378   22.667999


........................................................................
.............................. CYCLE    1 ..............................
........................................................................
   1    -39.1022681 -0.391023E+02  0.169E-04    2.28       0.0  T
   2    -39.1022681 -0.707914E-10  0.109E-04    2.28     186.4  T
   3    -39.1022681 -0.199734E-10  0.744E-05    2.28     274.3  T
     SCC iter.                  ...        0 min,  0.367 sec
     gradient                   ...        0 min,  0.156 sec
 * total energy  :   -38.5420999 Eh     change       -0.4004953E-08 Eh
   gradient norm :     0.0746676 Eh/α   predicted     0.0000000E+00 (-100.00%)
   displ. norm   :     0.2559714 α      lambda       -0.1214304E-01
   maximum displ.:     0.1150069 α      in ANC's #29, #32, #14, ...

........................................................................
.............................. CYCLE    2 ..............................
........................................................................
   1    -39.1637615 -0.391638E+02  0.217E-01    2.40       0.0  T
   2    -39.1639072 -0.145780E-03  0.132E-01    2.37       1.0  T
   3    -39.1639065  0.724965E-06  0.711E-02    2.39       1.0  T
   4    -39.1639427 -0.361752E-04  0.161E-02    2.38       1.3  T
   5    -39.1639480 -0.530836E-05  0.498E-03    2.38       4.1  T
   6    -39.1639482 -0.164229E-06  0.231E-03    2.38       8.8  T
   7    -39.1639482 -0.173150E-07  0.135E-03    2.38      15.1  T
   8    -39.1639482 -0.322610E-07  0.542E-04    2.38      37.7  T
   9    -39.1639482 -0.186796E-08  0.157E-04    2.38     130.0  T
     SCC iter.                  ...        0 min,  1.142 sec
     gradient                   ...        0 min,  0.157 sec
 * total energy  :   -38.5497083 Eh     change       -0.7608419E-02 Eh
   gradient norm :     0.0356729 Eh/α   predicted    -0.6470797E-02 ( -14.95%)
   displ. norm   :     0.1482813 α      lambda       -0.1597590E-02
   maximum displ.:     0.0628054 α      in ANC's #4, #14, #1, ...

........................................................................
.............................. CYCLE    3 ..............................
........................................................................
   1    -39.1847276 -0.391847E+02  0.835E-02    2.43       0.0  T
   2    -39.1847461 -0.185597E-04  0.506E-02    2.42       1.0  T
   3    -39.1847433  0.287846E-05  0.276E-02    2.43       1.0  T
   4    -39.1847506 -0.729883E-05  0.914E-03    2.42       2.2  T
   5    -39.1847524 -0.183019E-05  0.264E-03    2.42       7.7  T
   6    -39.1847525 -0.985201E-07  0.130E-03    2.42      15.7  T
   7    -39.1847525 -0.165016E-07  0.467E-04    2.42      43.7  T
   8    -39.1847525 -0.187539E-08  0.158E-04    2.42     128.9  T
     SCC iter.                  ...        0 min,  1.000 sec
     gradient                   ...        0 min,  0.162 sec
 * total energy  :   -38.5499337 Eh     change       -0.2253334E-03 Eh
   gradient norm :     0.1507907 Eh/α   predicted    -0.8163607E-03 ( 262.29%)
   displ. norm   :     0.1256782 α      lambda       -0.1762393E-02
   maximum displ.:     0.0589870 α      in ANC's #4, #1, #5, ...

........................................................................
.............................. CYCLE    4 ..............................
........................................................................
   1    -39.1962291 -0.391962E+02  0.605E-02    2.45       0.0  T
   2    -39.1962354 -0.628463E-05  0.390E-02    2.44       1.0  T
   3    -39.1962322  0.319191E-05  0.238E-02    2.45       1.0  T
   4    -39.1962405 -0.831718E-05  0.658E-03    2.45       3.1  T
   5    -39.1962414 -0.902829E-06  0.157E-03    2.45      13.0  T
   6    -39.1962414 -0.303506E-07  0.771E-04    2.45      26.5  T
   7    -39.1962414 -0.288919E-08  0.263E-04    2.45      77.7  T
     SCC iter.                  ...        0 min,  0.934 sec
     gradient                   ...        0 min,  0.156 sec
 * total energy  :   -38.5500430 Eh     change       -0.1093245E-03 Eh
   gradient norm :     0.1073017 Eh/α   predicted    -0.8953221E-03 ( 718.96%)
   displ. norm   :     0.0750517 α      lambda       -0.1022740E-02
   maximum displ.:     0.0376177 α      in ANC's #14, #29, #32, ...

........................................................................
.............................. CYCLE    5 ..............................
........................................................................
   1    -39.1819393 -0.391819E+02  0.545E-02    2.41       0.0  T
   2    -39.1819490 -0.967624E-05  0.341E-02    2.42       1.0  T
   3    -39.1819495 -0.528845E-06  0.202E-02    2.41       1.0  T
   4    -39.1819525 -0.297738E-05  0.686E-03    2.42       3.0  T
   5    -39.1819536 -0.108536E-05  0.182E-03    2.42      11.2  T
   6    -39.1819536 -0.506182E-07  0.839E-04    2.42      24.3  T
   7    -39.1819536 -0.591069E-08  0.311E-04    2.42      65.6  T
     SCC iter.                  ...        0 min,  0.891 sec
     gradient                   ...        0 min,  0.164 sec
 * total energy  :   -38.5505528 Eh     change       -0.5097950E-03 Eh
   gradient norm :     0.0098092 Eh/α   predicted    -0.5142680E-03 (   0.88%)
   displ. norm   :     0.0572462 α      lambda       -0.5327651E-04
   maximum displ.:     0.0462915 α      in ANC's #1, #4, #5, ...

........................................................................
.............................. CYCLE    6 ..............................
........................................................................
   1    -39.1830165 -0.391830E+02  0.178E-02    2.42       0.0  T
   2    -39.1830167 -0.233119E-06  0.106E-02    2.42       1.9  T
   3    -39.1830164  0.273100E-06  0.403E-03    2.42       5.1  T
   4    -39.1830167 -0.293674E-06  0.134E-03    2.42      15.2  T
   5    -39.1830168 -0.427322E-07  0.256E-04    2.42      79.8  T
   6    -39.1830168 -0.587754E-09  0.131E-04    2.42     156.2  T
     SCC iter.                  ...        0 min,  0.744 sec
     gradient                   ...        0 min,  0.168 sec
 * total energy  :   -38.5505948 Eh     change       -0.4197443E-04 Eh
   gradient norm :     0.0037795 Eh/α   predicted    -0.2669348E-04 ( -36.41%)
   displ. norm   :     0.0952437 α      lambda       -0.5721330E-04
   maximum displ.:     0.0781718 α      in ANC's #1, #4, #5, ...

........................................................................
.............................. CYCLE    7 ..............................
........................................................................
   1    -39.1832389 -0.391832E+02  0.287E-02    2.42       0.0  T
   2    -39.1832392 -0.336839E-06  0.170E-02    2.42       1.2  T
   3    -39.1832385  0.743612E-06  0.617E-03    2.42       3.3  T
   4    -39.1832393 -0.810584E-06  0.161E-03    2.42      12.7  T
   5    -39.1832394 -0.567096E-07  0.378E-04    2.42      54.0  T
   6    -39.1832394 -0.103017E-08  0.217E-04    2.42      94.2  T
     SCC iter.                  ...        0 min,  0.685 sec
     gradient                   ...        0 min,  0.162 sec
 * total energy  :   -38.5506372 Eh     change       -0.4240094E-04 Eh
   gradient norm :     0.0055450 Eh/α   predicted    -0.2876988E-04 ( -32.15%)
   displ. norm   :     0.0695427 α      lambda       -0.2580716E-04
   maximum displ.:     0.0630317 α      in ANC's #1, #4, #5, ...

........................................................................
.............................. CYCLE    8 ..............................
........................................................................
   1    -39.1830575 -0.391831E+02  0.232E-02    2.42       0.0  T
   2    -39.1830576 -0.935399E-07  0.136E-02    2.42       1.5  T
   3    -39.1830573  0.266945E-06  0.363E-03    2.42       5.6  T
   4    -39.1830576 -0.297310E-06  0.769E-04    2.42      26.5  T
   5    -39.1830576 -0.106390E-07  0.273E-04    2.42      74.9  T
     SCC iter.                  ...        0 min,  0.654 sec
     gradient                   ...        0 min,  0.173 sec
 * total energy  :   -38.5506578 Eh     change       -0.2063225E-04 Eh
   gradient norm :     0.0028651 Eh/α   predicted    -0.1295291E-04 ( -37.22%)
   displ. norm   :     0.0420109 α      lambda       -0.1412588E-04
   maximum displ.:     0.0403978 α      in ANC's #1, #3, #2, ...

........................................................................
.............................. CYCLE    9 ..............................
........................................................................
   1    -39.1830980 -0.391831E+02  0.178E-02    2.42       0.0  T
   2    -39.1830980 -0.192836E-07  0.104E-02    2.42       2.0  T
   3    -39.1830979  0.538245E-07  0.158E-03    2.42      12.9  T
   4    -39.1830980 -0.640441E-07  0.227E-04    2.42      90.1  T
   5    -39.1830980 -0.380567E-09  0.123E-04    2.42     166.4  T
     SCC iter.                  ...        0 min,  0.550 sec
     gradient                   ...        0 min,  0.151 sec
 * total energy  :   -38.5506704 Eh     change       -0.1258565E-04 Eh
   gradient norm :     0.0011025 Eh/α   predicted    -0.7076768E-05 ( -43.77%)
   displ. norm   :     0.0528351 α      lambda       -0.1208456E-04
   maximum displ.:     0.0498952 α      in ANC's #1, #3, #4, ...

........................................................................
.............................. CYCLE   10 ..............................
........................................................................
   1    -39.1831556 -0.391832E+02  0.273E-02    2.42       0.0  T
   2    -39.1831556 -0.295309E-07  0.160E-02    2.42       1.3  T
   3    -39.1831554  0.227147E-06  0.305E-03    2.42       6.7  T
   4    -39.1831556 -0.252819E-06  0.404E-04    2.42      50.5  T
   5    -39.1831556 -0.258468E-08  0.211E-04    2.42      96.7  T
     SCC iter.                  ...        0 min,  0.591 sec
     gradient                   ...        0 min,  0.180 sec
 * total energy  :   -38.5506854 Eh     change       -0.1503792E-04 Eh
   gradient norm :     0.0021859 Eh/α   predicted    -0.6051896E-05 ( -59.76%)
   displ. norm   :     0.0293144 α      lambda       -0.8231087E-05
   maximum displ.:     0.0283025 α      in ANC's #1, #2, #4, ...

........................................................................
.............................. CYCLE   11 ..............................
........................................................................
   1    -39.1832518 -0.391833E+02  0.145E-02    2.42       0.0  T
   2    -39.1832518 -0.617998E-08  0.852E-03    2.42       2.4  T
   3    -39.1832517  0.479890E-07  0.142E-03    2.42      14.4  T
   4    -39.1832518 -0.535942E-07  0.202E-04    2.42     101.2  T
   5    -39.1832518 -0.572420E-09  0.106E-04    2.42     193.2  T
     SCC iter.                  ...        0 min,  0.602 sec
     gradient                   ...        0 min,  0.153 sec
 * total energy  :   -38.5506928 Eh     change       -0.7333708E-05 Eh
   gradient norm :     0.0012871 Eh/α   predicted    -0.4119564E-05 ( -43.83%)
   displ. norm   :     0.0405174 α      lambda       -0.6586075E-05
   maximum displ.:     0.0393575 α      in ANC's #1, #2, #12, ...

........................................................................
.............................. CYCLE   12 ..............................
........................................................................
   1    -39.1833182 -0.391833E+02  0.188E-02    2.42       0.0  T
   2    -39.1833183 -0.127662E-07  0.110E-02    2.42       1.9  T
   3    -39.1833182  0.316022E-07  0.127E-03    2.42      16.1  T
   4    -39.1833183 -0.373844E-07  0.290E-04    2.42      70.4  T
   5    -39.1833183 -0.140447E-08  0.132E-04    2.42     155.0  T
     SCC iter.                  ...        0 min,  0.632 sec
     gradient                   ...        0 min,  0.157 sec
 * total energy  :   -38.5507014 Eh     change       -0.8684757E-05 Eh
   gradient norm :     0.0005449 Eh/α   predicted    -0.3300498E-05 ( -62.00%)
   displ. norm   :     0.0337654 α      lambda       -0.4588841E-05
   maximum displ.:     0.0328324 α      in ANC's #1, #2, #3, ...

........................................................................
.............................. CYCLE   13 ..............................
........................................................................
   1    -39.1832854 -0.391833E+02  0.141E-02    2.42       0.0  T
   2    -39.1832854 -0.952388E-08  0.830E-03    2.42       2.5  T
   3    -39.1832854  0.386715E-07  0.126E-03    2.42      16.2  T
   4    -39.1832854 -0.438177E-07  0.245E-04    2.42      83.5  T
   5    -39.1832854 -0.895795E-09  0.113E-04    2.42     181.4  T
     SCC iter.                  ...        0 min,  0.662 sec
     gradient                   ...        0 min,  0.155 sec
 * total energy  :   -38.5507077 Eh     change       -0.6210077E-05 Eh
   gradient norm :     0.0005094 Eh/α   predicted    -0.2297231E-05 ( -63.01%)
   displ. norm   :     0.0300094 α      lambda       -0.3586045E-05
   maximum displ.:     0.0290915 α      in ANC's #1, #4, #3, ...

........................................................................
.............................. CYCLE   14 ..............................
........................................................................
   1    -39.1833303 -0.391833E+02  0.120E-02    2.42       0.0  T
   2    -39.1833303 -0.637824E-08  0.706E-03    2.42       2.9  T
   3    -39.1833301  0.137379E-06  0.233E-03    2.42       8.8  T
   4    -39.1833303 -0.149807E-06  0.210E-04    2.42      97.2  T
   5    -39.1833303 -0.587008E-09  0.976E-05    2.42     209.2  T
     SCC iter.                  ...        0 min,  0.606 sec
     gradient                   ...        0 min,  0.154 sec
 * total energy  :   -38.5507124 Eh     change       -0.4734954E-05 Eh
   gradient norm :     0.0007420 Eh/α   predicted    -0.1796489E-05 ( -62.06%)
   displ. norm   :     0.0258280 α      lambda       -0.2709323E-05
   maximum displ.:     0.0252609 α      in ANC's #1, #4, #3, ...

   *** GEOMETRY OPTIMIZATION CONVERGED AFTER 14 ITERATIONS ***

------------------------------------------------------------------------
 total energy gain   :        -0.0086125 Eh       -5.4044 kcal/mol
 total RMSD          :         0.1468664 a0        0.0777 Å
 total power (kW/mol):        -1.6151457 (step)   -1.5510 (real)
------------------------------------------------------------------------

 ANCopt (total)                0 d,  0 h,  0 min, 14.579 sec
 optimizer setup                ...        0 min,  0.000 sec (  0.002%)
 model hessian                  ...        0 min,  0.008 sec (  0.057%)
 ANC generation                 ...        0 min,  0.002 sec (  0.012%)
 coordinate transformation      ...        0 min,  0.001 sec (  0.004%)
 single point calculation       ...        0 min, 14.044 sec ( 96.336%)
 optimization log               ...        0 min,  0.003 sec (  0.023%)
 hessian update                 ...        0 min,  0.496 sec (  3.402%)
 rational function              ...        0 min,  0.022 sec (  0.150%)

================
 final structure:
================
24
 xtb: 6.5.0 (97a52f5)
N            1.97155285198934       -0.17388815771559       -0.82529477598762
C            0.72090978351437       -0.06156648181702       -0.32695158704659
C           -0.18217908670327       -1.22573063006015       -0.46764396133722
C           -0.78571426743823       -1.49854637706836       -1.68989697161842
C            0.34679267860999        1.06428420748952        0.35499353745566
C           -0.45677810570277       -2.03693150983932        0.62731100696968
H            2.50563107621559        0.69570120381084       -0.79832201930037
C           -0.85011543447739        1.35798666083827        1.09908406014291
N            0.46929896901808        3.16409302601251        1.15698899977076
C            1.18853667513170        2.25608282575670        0.42961752037803
C           -0.73875961020814        2.61761551311023        1.56142829715139
C           -1.30579404876336       -3.12064981285467        0.49262540909273
C           -1.63953808480827       -2.57962688313880       -1.81898235731274
C           -1.89714038622775       -3.39435341017368       -0.72959997798643
H            0.00586945352110       -1.81639152884222        1.57753303275573
H           -0.58896179175554       -0.85775417279835       -2.53792537150418
H            0.79435296318192        4.08842541517681        1.38548237219387
O            2.29994435433318        2.45129772063964       -0.05982067225093
H           -1.50806465331164       -3.75314687523013        1.34438666868657
H           -2.10615695446037       -2.78470035700122       -2.77123460272793
H           -2.56088822501317       -4.23999996764999       -0.83228657349564
H           -1.67165294233546        0.68477614284346        1.24309730902815
H           -1.41860362944232        3.19404062817198        2.15902216104812
H            2.13184741513273       -0.79360419966072       -1.60277052410597

 Bond Distances (Angstroems)
 ---------------------------
N1-C2=1.3510         N1-H7=1.0209         N1-H24=1.0071        C2-N1=1.3510         C2-C3=1.4801         C2-C5=1.3684         
C3-C2=1.4801         C3-C4=1.3902         C3-C6=1.3901         C4-C3=1.3902         C4-C13=1.3836        C4-H16=1.0810        
C5-C2=1.3684         C5-C8=1.4396         C5-C10=1.4610        C6-C3=1.3901         C6-C12=1.3833        C6-H15=1.0796        
H7-N1=1.0209         C8-C5=1.4396         C8-C11=1.3464        C8-H22=1.0719        N9-C10=1.3678        N9-C11=1.3862        
N9-H17=1.0061        C10-C5=1.4610        C10-N9=1.3678        C10-O18=1.2300       C11-C8=1.3464        C11-N9=1.3862        
C11-H23=1.0731       C12-C6=1.3833        C12-C14=1.3851       C12-H19=1.0800       C13-C4=1.3836        C13-C14=1.3845       
C13-H20=1.0801       C14-C12=1.3851       C14-C13=1.3845       C14-H21=1.0799       H15-C6=1.0796        H16-C4=1.0810        
H17-N9=1.0061        O18-C10=1.2300       H19-C12=1.0800       H20-C13=1.0801       H21-C14=1.0799       H22-C8=1.0719        
H23-C11=1.0731       H24-N1=1.0071        
 C  H  Rav=1.0779 sigma=0.0035  Rmin=1.0719  Rmax=1.0810     7
 C  C  Rav=1.4011 sigma=0.0390  Rmin=1.3464  Rmax=1.4801    11
 N  H  Rav=1.0114 sigma=0.0067  Rmin=1.0061  Rmax=1.0209     3
 N  C  Rav=1.3683 sigma=0.0144  Rmin=1.3510  Rmax=1.3862     3
 O  C  Rav=1.2300 sigma=0.0000  Rmin=1.2300  Rmax=1.2300     1

 selected bond angles (degree)
 --------------------
H7-N1-C2=113.81                H24-N1-C2=118.90               H24-N1-H7=117.47               C3-C2-N1=117.67                
C5-C2-N1=120.35                C5-C2-C3=121.85                C4-C3-C2=120.19                C6-C3-C2=120.31                
C6-C3-C4=119.49                C13-C4-C3=120.22               H16-C4-C3=119.63               H16-C4-C13=120.15              
C8-C5-C2=130.75                C10-C5-C2=122.62               C10-C5-C8=106.63               C12-C6-C3=120.12               
H15-C6-C3=119.30               H15-C6-C12=120.58              C11-C8-C5=107.43               H22-C8-C5=125.35               
H22-C8-C11=127.22              C11-N9-C10=110.59              H17-N9-C10=124.11              H17-N9-C11=125.27              
N9-C10-C5=105.41               O18-C10-C5=129.03              O18-C10-N9=125.55              

 selected dihedral angles (degree)
 ---------------------------------
C3-C2-N1-H7=173.02            C3-C2-N1-H24= 27.98           C5-C2-N1-H7=349.01            C5-C2-N1-H24=203.97           
C4-C3-C2-N1=283.00            C4-C3-C2-C5=107.07            C6-C3-C2-N1=104.43            C6-C3-C2-C5=288.50            
C13-C4-C3-C2=180.59           C13-C4-C3-C6=359.17           H16-C4-C3-C2=  0.22           H16-C4-C3-C6=178.80           
C8-C5-C2-N1=187.96            C8-C5-C2-C3=  3.78            C10-C5-C2-N1=  8.33           C10-C5-C2-C3=184.16           
C12-C6-C3-C2=179.73           C12-C6-C3-C4=  1.15           H15-C6-C3-C2=359.19           H15-C6-C3-C4=180.61           
C11-C8-C5-C2=181.02           C11-C8-C5-C10=  0.69          H22-C8-C5-C2=  0.73           H22-C8-C5-C10=180.40          
N9-C10-C5-C2=178.53           N9-C10-C5-C8=358.83           O18-C10-C5-C2=359.63          O18-C10-C5-C8=179.93          
C5-C10-N9-C11=  1.25          C5-C10-N9-H17=179.47          O18-C10-N9-C11=180.19         O18-C10-N9-H17=358.42         
           -------------------------------------------------
          |                Final Singlepoint                |
           -------------------------------------------------

          ...................................................
          :                      SETUP                      :
          :.................................................:
          :  # basis functions                  66          :
          :  # atomic orbitals                  66          :
          :  # shells                           38          :
          :  # electrons                        70          :
          :  max. iterations                   250          :
          :  Hamiltonian                  GFN2-xTB          :
          :  restarted?                      false          :
          :  GBSA solvation                  false          :
          :  PC potential                    false          :
          :  electronic temp.          300.0000000     K    :
          :  accuracy                    1.0000000          :
          :  -> integral cutoff          0.2500000E+02      :
          :  -> integral neglect         0.1000000E-07      :
          :  -> SCF convergence          0.1000000E-05 Eh   :
          :  -> wf. convergence          0.1000000E-03 e    :
          :  Broyden damping             0.4000000          :
          ...................................................

 iter      E             dE          RMSdq      gap      omega  full diag
   1    -39.1833303 -0.391833E+02  0.459E-05    2.42       0.0  T
   2    -39.1833303 -0.456168E-11  0.287E-05    2.42     710.9  T
   3    -39.1833303 -0.331113E-11  0.194E-05    2.42    1053.2  T

   *** convergence criteria satisfied after 3 iterations ***

         #    Occupation            Energy/Eh            Energy/eV
      -------------------------------------------------------------
         1        2.0000           -0.6779021             -18.4467
       ...           ...                  ...                  ...
        29        2.0000           -0.4354165             -11.8483
        30        2.0000           -0.4315240             -11.7424
        31        2.0000           -0.4149690             -11.2919
        32        2.0000           -0.4121673             -11.2156
        33        2.0000           -0.3971169             -10.8061
        34        2.0000           -0.3760733             -10.2335
        35        2.0000           -0.3462984              -9.4233 (HOMO)
        36                         -0.2575282              -7.0077 (LUMO)
        37                         -0.2330176              -6.3407
        38                         -0.2304868              -6.2719
        39                         -0.1645001              -4.4763
        40                         -0.1097315              -2.9859
       ...                                ...                  ...
        66                          0.7445703              20.2608
      -------------------------------------------------------------
                  HL-Gap            0.0887702 Eh            2.4156 eV
             Fermi-level           -0.3019133 Eh           -8.2155 eV

 SCC (total)                   0 d,  0 h,  0 min,  0.609 sec
 SCC setup                      ...        0 min,  0.024 sec (  3.953%)
 Dispersion                     ...        0 min,  0.015 sec (  2.520%)
 classical contributions        ...        0 min,  0.020 sec (  3.361%)
 integral evaluation            ...        0 min,  0.035 sec (  5.811%)
 iterations                     ...        0 min,  0.351 sec ( 57.708%)
 molecular gradient             ...        0 min,  0.150 sec ( 24.644%)
 printout                       ...        0 min,  0.012 sec (  1.971%)

         :::::::::::::::::::::::::::::::::::::::::::::::::::::
         ::                     SUMMARY                     ::
         :::::::::::::::::::::::::::::::::::::::::::::::::::::
         :: total energy             -38.550712386935 Eh    ::
         :: gradient norm              0.000742076532 Eh/a0 ::
         :: HOMO-LUMO gap              2.415559751603 eV    ::
         ::.................................................::
         :: SCC energy               -39.183330283041 Eh    ::
         :: -> isotropic ES            0.049508204777 Eh    ::
         :: -> anisotropic ES          0.001415735670 Eh    ::
         :: -> anisotropic XC          0.018228573930 Eh    ::
         :: -> dispersion             -0.023797431823 Eh    ::
         :: repulsion energy           0.632513942892 Eh    ::
         :: add. restraining           0.000003635225 Eh    ::
         :: total charge               0.000000000000 e     ::
         :::::::::::::::::::::::::::::::::::::::::::::::::::::

           -------------------------------------------------
          |                Property Printout                |
           -------------------------------------------------

    * Orbital Energies and Occupations

         #    Occupation            Energy/Eh            Energy/eV
      -------------------------------------------------------------
         1        2.0000           -0.6779021             -18.4467
       ...           ...                  ...                  ...
        23        2.0000           -0.4837618             -13.1638
        24        2.0000           -0.4759986             -12.9526
        25        2.0000           -0.4736000             -12.8873
        26        2.0000           -0.4652870             -12.6611
        27        2.0000           -0.4525656             -12.3149
        28        2.0000           -0.4505598             -12.2604
        29        2.0000           -0.4354165             -11.8483
        30        2.0000           -0.4315240             -11.7424
        31        2.0000           -0.4149690             -11.2919
        32        2.0000           -0.4121673             -11.2156
        33        2.0000           -0.3971169             -10.8061
        34        2.0000           -0.3760733             -10.2335
        35        2.0000           -0.3462984              -9.4233 (HOMO)
        36                         -0.2575282              -7.0077 (LUMO)
        37                         -0.2330176              -6.3407
        38                         -0.2304868              -6.2719
        39                         -0.1645001              -4.4763
        40                         -0.1097315              -2.9859
        41                         -0.1014370              -2.7602
        42                          0.0316234               0.8605
        43                          0.0436934               1.1890
        44                          0.0867677               2.3611
        45                          0.1175032               3.1974
        46                          0.1341199               3.6496
       ...                                ...                  ...
        66                          0.7445703              20.2608
      -------------------------------------------------------------
                  HL-Gap            0.0887702 Eh            2.4156 eV
             Fermi-level           -0.3019133 Eh           -8.2155 eV

     #   Z          covCN         q      C6AA      α(0)
     1   7 N        2.645    -0.241    26.301     7.617
     2   6 C        2.885     0.094    25.913     8.345
     3   6 C        2.979     0.007    27.859     8.658
     4   6 C        2.924    -0.032    28.798     8.800
     5   6 C        3.093    -0.075    29.749     8.940
     6   6 C        2.924    -0.028    28.700     8.785
     7   1 H        0.860     0.226     0.981     1.551
     8   6 C        2.981    -0.070    29.735     8.945
     9   7 N        2.776    -0.148    24.200     7.306
    10   6 C        2.869     0.257    22.680     7.807
    11   6 C        2.989     0.001    27.987     8.678
    12   6 C        2.919    -0.027    28.680     8.782
    13   6 C        2.919    -0.028    28.705     8.786
    14   6 C        2.920    -0.029    28.720     8.788
    15   1 H        0.926     0.040     2.446     2.446
    16   1 H        0.926     0.031     2.566     2.505
    17   1 H        0.860     0.168     1.286     1.776
    18   8 O        0.857    -0.488    23.528     6.503
    19   1 H        0.926     0.037     2.495     2.470
    20   1 H        0.926     0.035     2.514     2.480
    21   1 H        0.926     0.035     2.518     2.481
    22   1 H        0.926     0.029     2.599     2.521
    23   1 H        0.926     0.033     2.549     2.497
    24   1 H        0.860     0.173     1.258     1.757

 Mol. C6AA /au·bohr⁶  :       7616.913654
 Mol. C8AA /au·bohr⁸  :     185765.766369
 Mol. α(0) /au        :        139.224262


Wiberg/Mayer (AO) data.
largest (>0.10) Wiberg bond orders for each atom

 ---------------------------------------------------------------------------
     #   Z sym  total        # sym  WBO       # sym  WBO       # sym  WBO
 ---------------------------------------------------------------------------
     1   7 N    3.392 --     2 C    1.286    24 H    0.947     7 H    0.895
     2   6 C    3.969 --     5 C    1.469     1 N    1.286     3 C    1.006
     3   6 C    3.989 --     4 C    1.404     6 C    1.399     2 C    1.006
                            14 C    0.110
     4   6 C    3.992 --    13 C    1.443     3 C    1.404    16 H    0.970
                            12 C    0.111
     5   6 C    3.968 --     2 C    1.469     8 C    1.154    10 C    1.071
     6   6 C    3.989 --    12 C    1.446     3 C    1.399    15 H    0.970
                            13 C    0.112
     7   1 H    0.948 --     1 N    0.895
     8   6 C    3.980 --    11 C    1.700     5 C    1.154    22 H    0.972
     9   7 N    3.510 --    10 C    1.177    11 C    1.125    17 H    0.943
                            18 O    0.144
    10   6 C    3.950 --    18 O    1.572     9 N    1.177     5 C    1.071
    11   6 C    3.950 --     8 C    1.700     9 N    1.125    23 H    0.970
    12   6 C    3.991 --     6 C    1.446    14 C    1.437    19 H    0.970
                             4 C    0.111
    13   6 C    3.992 --     4 C    1.443    14 C    1.440    20 H    0.970
                             6 C    0.112
    14   6 C    3.990 --    13 C    1.440    12 C    1.437    21 H    0.971
                             3 C    0.110
    15   1 H    0.998 --     6 C    0.970
    16   1 H    0.999 --     4 C    0.970
    17   1 H    0.971 --     9 N    0.943
    18   8 O    1.969 --    10 C    1.572     9 N    0.144
    19   1 H    0.998 --    12 C    0.970
    20   1 H    0.998 --    13 C    0.970
    21   1 H    0.998 --    14 C    0.971
    22   1 H    0.999 --     8 C    0.972
    23   1 H    0.998 --    11 C    0.970
    24   1 H    0.969 --     1 N    0.947
 ---------------------------------------------------------------------------

Topologies differ in total number of bonds
Writing topology from bond orders to xtbtopo.mol

molecular dipole:
                 x           y           z       tot (Debye)
 q only:       -0.666      -0.983      -0.159
   full:       -0.822      -0.758      -0.184       2.880
molecular quadrupole (traceless):
                xx          xy          yy          xz          yz          zz
 q only:       -5.077      -7.271       1.212      -1.943       4.678       3.865
  q+dip:      -10.239      -4.923       4.962      -1.708       7.134       5.277
   full:       -9.042      -6.972       3.927      -1.815       6.684       5.114

           -------------------------------------------------
          |                Geometry Summary                 |
           -------------------------------------------------

      molecular mass/u    :      186.2103137
   center of mass at/Å    :       -0.0038835      -0.0217662      -0.0148863
  moments of inertia/u·Å² :        0.3125748E+03   0.1198905E+04   0.1360429E+04
rotational constants/cm⁻¹ :        0.5393151E-01   0.1406086E-01   0.1239141E-01

 * 23 selected distances

     #   Z          #   Z                                           value/Å
     1   7 N        2   6 C                                       1.3509517
     3   6 C        4   6 C                                       1.3901748
     2   6 C        5   6 C                                       1.3684125
     3   6 C        6   6 C                                       1.3901001
     1   7 N        7   1 H                                       1.0208589
     5   6 C        8   6 C                                       1.4396254 (max)
     9   7 N       10   6 C                                       1.3677920
     8   6 C       11   6 C                                       1.3464128
     9   7 N       11   6 C                                       1.3862232
     6   6 C       12   6 C                                       1.3832621
     4   6 C       13   6 C                                       1.3836233
    12   6 C       14   6 C                                       1.3850774
    13   6 C       14   6 C                                       1.3845189
     6   6 C       15   1 H                                       1.0796308
     4   6 C       16   1 H                                       1.0809619
     9   7 N       17   1 H                                       1.0061113 (min)
    10   6 C       18   8 O                                       1.2299943
    12   6 C       19   1 H                                       1.0800293
    13   6 C       20   1 H                                       1.0800800
    14   6 C       21   1 H                                       1.0799185
     8   6 C       22   1 H                                       1.0718565
    11   6 C       23   1 H                                       1.0731134
     1   7 N       24   1 H                                       1.0070805

 * 5 distinct bonds (by element types)

   Z      Z             #   av. dist./Å        max./Å        min./Å
   1 H    6 C           7     1.0779415     1.0809619     1.0718565
   6 C    6 C           9     1.3856897     1.4396254     1.3464128
   1 H    7 N           3     1.0113502     1.0208589     1.0061113
   6 C    7 N           3     1.3683223     1.3862232     1.3509517
   6 C    8 O           1     1.2299943     1.2299943     1.2299943


optimized geometry written to: xtbopt.xyz


           -------------------------------------------------
          | TOTAL ENERGY              -38.550712386935 Eh   |
          | GRADIENT NORM               0.000742076532 Eh/α |
          | HOMO-LUMO GAP               2.415559751603 eV   |
           -------------------------------------------------
########################################################################
[WARNING] Runtime exception occurred
-1- restart_readRestart: Number of electron missmatch in restart file.
########################################################################

------------------------------------------------------------------------
 * finished run on 2023/11/18 at 08:41:46.207     
------------------------------------------------------------------------
 total:
 * wall-time:     0 d,  0 h,  0 min, 16.755 sec
 *  cpu-time:     0 d,  0 h, 12 min, 31.207 sec
 * ratio c/w:    44.834 speedup
 SCF:
 * wall-time:     0 d,  0 h,  0 min,  1.392 sec
 *  cpu-time:     0 d,  0 h,  1 min,  3.670 sec
 * ratio c/w:    45.741 speedup
 ANC optimizer:
 * wall-time:     0 d,  0 h,  0 min, 15.206 sec
 *  cpu-time:     0 d,  0 h, 11 min, 20.612 sec
 * ratio c/w:    44.759 speedup

