24
 energy: -38.550712386935 gnorm: 0.000742076532 xtb: 6.5.0 (97a52f5)
N            1.97155285198934       -0.17388815771559       -0.82529477598762
C            0.72090978351437       -0.06156648181702       -0.32695158704659
C           -0.18217908670327       -1.22573063006015       -0.46764396133722
C           -0.78571426743823       -1.49854637706836       -1.68989697161842
C            0.34679267860999        1.06428420748952        0.35499353745566
C           -0.45677810570277       -2.03693150983932        0.62731100696968
H            2.50563107621559        0.69570120381084       -0.79832201930037
C           -0.85011543447739        1.35798666083827        1.09908406014291
N            0.46929896901808        3.16409302601251        1.15698899977076
C            1.18853667513170        2.25608282575670        0.42961752037803
C           -0.73875961020814        2.61761551311023        1.56142829715139
C           -1.30579404876336       -3.12064981285467        0.49262540909273
C           -1.63953808480827       -2.57962688313880       -1.81898235731274
C           -1.89714038622775       -3.39435341017368       -0.72959997798643
H            0.00586945352110       -1.81639152884222        1.57753303275573
H           -0.58896179175554       -0.85775417279835       -2.53792537150418
H            0.79435296318192        4.08842541517681        1.38548237219387
O            2.29994435433318        2.45129772063964       -0.05982067225093
H           -1.50806465331164       -3.75314687523013        1.34438666868657
H           -2.10615695446037       -2.78470035700122       -2.77123460272793
H           -2.56088822501317       -4.23999996764999       -0.83228657349564
H           -1.67165294233546        0.68477614284346        1.24309730902815
H           -1.41860362944232        3.19404062817198        2.15902216104812
H            2.13184741513273       -0.79360419966072       -1.60277052410597
