      -----------------------------------------------------------      
     |                   =====================                   |     
     |                           x T B                           |     
     |                   =====================                   |     
     |                         S. Grimme                         |     
     |          Mulliken Center for Theoretical Chemistry        |     
     |                    University of Bonn                     |     
      -----------------------------------------------------------      

   * xtb version 6.5.0 (97a52f5) compiled by 'conda@d2599ee0d4f4' on 2022-05-15

   xtb is free software: you can redistribute it and/or modify it under
   the terms of the GNU Lesser General Public License as published by
   the Free Software Foundation, either version 3 of the License, or
   (at your option) any later version.
   
   xtb is distributed in the hope that it will be useful,
   but WITHOUT ANY WARRANTY; without even the implied warranty of
   MERCHANTABILITY or FITNESS FOR A PARTICULAR PURPOSE.  See the
   GNU Lesser General Public License for more details.
   
   Cite this work as:
   * C. Bannwarth, E. Caldeweyher, S. Ehlert, A. Hansen, P. Pracht,
     J. Seibert, S. Spicher, S. Grimme, WIREs Comput. Mol. Sci., 2020, 11,
     e01493. DOI: 10.1002/wcms.1493
   
   for GFN2-xTB:
   * C. Bannwarth, S. Ehlert and S. Grimme., J. Chem. Theory Comput., 2019,
     15, 1652-1671. DOI: 10.1021/acs.jctc.8b01176
   for GFN1-xTB:
   * S. Grimme, C. Bannwarth, P. Shushkov, J. Chem. Theory Comput., 2017,
     13, 1989-2009. DOI: 10.1021/acs.jctc.7b00118
   for GFN0-xTB:
   * P. Pracht, E. Caldeweyher, S. Ehlert, S. Grimme, ChemRxiv, 2019, preprint.
     DOI: 10.26434/chemrxiv.8326202.v1
   for GFN-FF:
   * S. Spicher and S. Grimme, Angew. Chem. Int. Ed., 2020, 59, 15665-15673.
     DOI: 10.1002/anie.202004239
   
   for ALPB and GBSA implicit solvation:
   * S. Ehlert, M. Stahn, S. Spicher, S. Grimme, J. Chem. Theory Comput.,
     2021, 17, 4250-4261. DOI: 10.1021/acs.jctc.1c00471
   
   for DFT-D4:
   * E. Caldeweyher, C. Bannwarth and S. Grimme, J. Chem. Phys., 2017,
     147, 034112. DOI: 10.1063/1.4993215
   * E. Caldeweyher, S. Ehlert, A. Hansen, H. Neugebauer, S. Spicher,
     C. Bannwarth and S. Grimme, J. Chem. Phys., 2019, 150, 154122.
     DOI: 10.1063/1.5090222
   * E. Caldeweyher, J.-M. Mewes, S. Ehlert and S. Grimme, Phys. Chem. Chem. Phys.
     2020, 22, 8499-8512. DOI: 10.1039/D0CP00502A
   
   for sTDA-xTB:
   * S. Grimme and C. Bannwarth, J. Chem. Phys., 2016, 145, 054103.
     DOI: 10.1063/1.4959605
   
   in the mass-spec context:
   * V. Asgeirsson, C. Bauer and S. Grimme, Chem. Sci., 2017, 8, 4879.
     DOI: 10.1039/c7sc00601b
   * J. Koopman and S. Grimme, ACS Omega 2019, 4, 12, 15120-15133.
     DOI: 10.1021/acsomega.9b02011
   
   for metadynamics refer to:
   * S. Grimme, J. Chem. Theory Comput., 2019, 155, 2847-2862
     DOI: 10.1021/acs.jctc.9b00143
   
   for SPH calculations refer to:
   * S. Spicher and S. Grimme, J. Chem. Theory Comput., 2021, 17, 1701-1714
     DOI: 10.1021/acs.jctc.0c01306
   
   with help from (in alphabetical order)
   P. Atkinson, C. Bannwarth, F. Bohle, G. Brandenburg, E. Caldeweyher
   M. Checinski, S. Dohm, S. Ehlert, S. Ehrlich, I. Gerasimov, C. Hölzer
   A. Katbashev, J. Koopman, C. Lavigne, S. Lehtola, F. März, M. Müller,
   F. Musil, H. Neugebauer, J. Pisarek, C. Plett, P. Pracht, F. Pultar,
   J. Seibert, P. Shushkov, S. Spicher, M. Stahn, M. Steiner, T. Strunk,
   J. Stückrath, T. Rose, and J. Unsleber
   
 * started run on 2023/11/18 at 08:41:47.684     

           -------------------------------------------------
          |                Calculation Setup                |
           -------------------------------------------------

          program call               : /home/liuchw/anaconda3/envs/xtbenv/bin/xtb --gfn 2 --chrg 0 --uhf 0 7_11_Index_0-opt-2-3-313_preQMOPTprefit_xyzformat.xyz --opt --input xtb-opt-2-3-313_constr.txt
          hostname                   : node165.bme.utexas.edu
          coordinate file            : 7_11_Index_0-opt-2-3-313_preQMOPTprefit_xyzformat.xyz
          omp threads                :                    64

   ID    Z sym.   atoms
    1    7 N      1, 9
    2    6 C      2-6, 8, 10-14
    3    1 H      7, 15-17, 19-24
    4    8 O      18
constraining angle 1 2 3 4 to  312.8340881°, actual value:  -47.1659119°
constraining angle 24 1 2 3 to   27.9607609°, actual value:   27.9607609°
constraining angle 24 1 2 5 to  204.0215779°, actual value: -155.9784221°
constraining angle 7 1 2 3 to  172.9805315°, actual value:  172.9805315°
constraining angle 7 1 2 5 to  349.0413484°, actual value:  -10.9586516°
constraining angle 1 2 5 8 to  187.9665985°, actual value: -172.0334015°

           -------------------------------------------------
          |                 G F N 2 - x T B                 |
           -------------------------------------------------

        Reference                      10.1021/acs.jctc.8b01176
      * Hamiltonian:
        H0-scaling (s, p, d)           1.850000    2.230000    2.230000
        zeta-weighting                 0.500000
      * Dispersion:
        s8                             2.700000
        a1                             0.520000
        a2                             5.000000
        s9                             5.000000
      * Repulsion:
        kExp                           1.500000    1.000000
        rExp                           1.000000
      * Coulomb:
        alpha                          2.000000
        third order                    shell-resolved
        anisotropic                    true
        a3                             3.000000
        a5                             4.000000
        cn-shift                       1.200000
        cn-exp                         4.000000
        max-rad                        5.000000

q/qsh data taken from xtbrestart
CAMM data taken from xtbrestart

          ...................................................
          :                      SETUP                      :
          :.................................................:
          :  # basis functions                  66          :
          :  # atomic orbitals                  66          :
          :  # shells                           38          :
          :  # electrons                        70          :
          :  max. iterations                   250          :
          :  Hamiltonian                  GFN2-xTB          :
          :  restarted?                       true          :
          :  GBSA solvation                  false          :
          :  PC potential                    false          :
          :  electronic temp.          300.0000000     K    :
          :  accuracy                    1.0000000          :
          :  -> integral cutoff          0.2500000E+02      :
          :  -> integral neglect         0.1000000E-07      :
          :  -> SCF convergence          0.1000000E-05 Eh   :
          :  -> wf. convergence          0.1000000E-03 e    :
          :  Broyden damping             0.4000000          :
          ...................................................

 iter      E             dE          RMSdq      gap      omega  full diag
   1    -39.0968978 -0.390969E+02  0.141E+00    2.01       0.0  T
   2    -39.0971900 -0.292155E-03  0.838E-01    2.06       1.0  T
   3    -39.0932724  0.391755E-02  0.392E-01    1.96       1.0  T
   4    -39.0974987 -0.422621E-02  0.611E-02    2.04       1.0  T
   5    -39.0975938 -0.951657E-04  0.162E-02    2.04       1.3  T
   6    -39.0975954 -0.156863E-05  0.963E-03    2.04       2.1  T
   7    -39.0975961 -0.676126E-06  0.296E-03    2.04       6.9  T
   8    -39.0975962 -0.951290E-07  0.939E-04    2.04      21.7  T
   9    -39.0975962 -0.535685E-08  0.418E-04    2.04      48.8  T

   *** convergence criteria satisfied after 9 iterations ***

         #    Occupation            Energy/Eh            Energy/eV
      -------------------------------------------------------------
         1        2.0000           -0.6710302             -18.2597
       ...           ...                  ...                  ...
        29        2.0000           -0.4383530             -11.9282
        30        2.0000           -0.4320260             -11.7560
        31        2.0000           -0.4126625             -11.2291
        32        2.0000           -0.4097408             -11.1496
        33        2.0000           -0.3956079             -10.7650
        34        2.0000           -0.3759543             -10.2302
        35        2.0000           -0.3475701              -9.4579 (HOMO)
        36                         -0.2727203              -7.4211 (LUMO)
        37                         -0.2376985              -6.4681
        38                         -0.2278346              -6.1997
        39                         -0.1736765              -4.7260
        40                         -0.1268464              -3.4517
       ...                                ...                  ...
        66                          0.6727454              18.3063
      -------------------------------------------------------------
                  HL-Gap            0.0748498 Eh            2.0368 eV
             Fermi-level           -0.3101452 Eh           -8.4395 eV

 SCC (total)                   0 d,  0 h,  0 min,  1.446 sec
 SCC setup                      ...        0 min,  0.006 sec (  0.389%)
 Dispersion                     ...        0 min,  0.022 sec (  1.518%)
 classical contributions        ...        0 min,  0.012 sec (  0.845%)
 integral evaluation            ...        0 min,  0.041 sec (  2.835%)
 iterations                     ...        0 min,  1.168 sec ( 80.824%)
 molecular gradient             ...        0 min,  0.171 sec ( 11.821%)
 printout                       ...        0 min,  0.025 sec (  1.744%)

         :::::::::::::::::::::::::::::::::::::::::::::::::::::
         ::                     SUMMARY                     ::
         :::::::::::::::::::::::::::::::::::::::::::::::::::::
         :: total energy             -38.541981734633 Eh    ::
         :: gradient norm              0.072740052689 Eh/a0 ::
         :: HOMO-LUMO gap              2.036765822942 eV    ::
         ::.................................................::
         :: SCC energy               -39.097596172847 Eh    ::
         :: -> isotropic ES            0.050380091952 Eh    ::
         :: -> anisotropic ES          0.001766575677 Eh    ::
         :: -> anisotropic XC          0.020226391428 Eh    ::
         :: -> dispersion             -0.023339958699 Eh    ::
         :: repulsion energy           0.555572081692 Eh    ::
         :: add. restraining           0.000000000000 Eh    ::
         :: total charge              -0.000000000000 e     ::
         :::::::::::::::::::::::::::::::::::::::::::::::::::::

      ----------------------------------------------------------- 
     |                   =====================                   |
     |                        A N C O P T                        |
     |                   =====================                   |
     |               Approximate Normal Coordinate               |
     |                Rational Function Optimizer                |
      ----------------------------------------------------------- 

          ...................................................
          :                      SETUP                      :
          :.................................................:
          :   optimization level            normal          :
          :   max. optcycles                   200          :
          :   ANC micro-cycles                  20          :
          :   degrees of freedom                66          :
          :.................................................:
          :   RF solver                   davidson          :
          :   write xtbopt.log                true          :
          :   linear?                        false          :
          :   energy convergence         0.5000000E-05 Eh   :
          :   grad. convergence          0.1000000E-02 Eh/α :
          :   maximium RF displ.         1.0000000          :
          :   Hlow (freq-cutoff)         0.1000000E-01      :
          :   Hmax (freq-cutoff)         5.0000000          :
          :   S6 in model hess.         20.0000000          :
          ...................................................

generating ANC from model Hessian ...
Using Lindh-Hessian (1995)
 Shifting diagonal of input Hessian by    8.2820919084471700E-003
 Lowest  eigenvalues of input Hessian
    0.000000    0.000000    0.000000    0.000000    0.000000    0.000000
    0.010000    0.010720    0.011918    0.015915    0.017866    0.022148
    0.024035    0.027646    0.029435    0.030577    0.034116    0.039304
 Highest eigenvalues
    2.215453    2.297914    3.321488    7.081692    8.965249   23.453347


........................................................................
.............................. CYCLE    1 ..............................
........................................................................
   1    -39.0975962 -0.390976E+02  0.191E-04    2.04       0.0  T
   2    -39.0975962 -0.119663E-09  0.134E-04    2.04     152.6  T
   3    -39.0975962 -0.181963E-09  0.807E-05    2.04     252.9  T
     SCC iter.                  ...        0 min,  0.344 sec
     gradient                   ...        0 min,  0.152 sec
 * total energy  :   -38.5419817 Eh     change       -0.1967130E-08 Eh
   gradient norm :     0.0727396 Eh/α   predicted     0.0000000E+00 (-100.00%)
   displ. norm   :     0.2931225 α      lambda       -0.1342535E-01
   maximum displ.:     0.1286401 α      in ANC's #29, #15, #32, ...

........................................................................
.............................. CYCLE    2 ..............................
........................................................................
   1    -39.1606696 -0.391607E+02  0.230E-01    2.12       0.0  T
   2    -39.1608116 -0.142003E-03  0.144E-01    2.10       1.0  T
   3    -39.1607935  0.180646E-04  0.813E-02    2.12       1.0  T
   4    -39.1608571 -0.635985E-04  0.244E-02    2.10       1.0  T
   5    -39.1608718 -0.146356E-04  0.707E-03    2.11       2.9  T
   6    -39.1608725 -0.700619E-06  0.376E-03    2.10       5.4  T
   7    -39.1608726 -0.161720E-06  0.138E-03    2.11      14.8  T
   8    -39.1608727 -0.137528E-07  0.508E-04    2.11      40.1  T
   9    -39.1608727 -0.708638E-09  0.150E-04    2.11     136.4  T
     SCC iter.                  ...        0 min,  1.184 sec
     gradient                   ...        0 min,  0.170 sec
 * total energy  :   -38.5505092 Eh     change       -0.8527513E-02 Eh
   gradient norm :     0.0254862 Eh/α   predicted    -0.7291777E-02 ( -14.49%)
   displ. norm   :     0.1919758 α      lambda       -0.1838745E-02
   maximum displ.:     0.0918216 α      in ANC's #7, #4, #14, ...

........................................................................
.............................. CYCLE    3 ..............................
........................................................................
   1    -39.1831506 -0.391832E+02  0.961E-02    2.14       0.0  T
   2    -39.1831669 -0.163534E-04  0.628E-02    2.13       1.0  T
   3    -39.1831572  0.969352E-05  0.380E-02    2.14       1.0  T
   4    -39.1831800 -0.227145E-04  0.111E-02    2.13       1.8  T
   5    -39.1831826 -0.260405E-05  0.271E-03    2.14       7.5  T
   6    -39.1831826 -0.860348E-07  0.135E-03    2.14      15.1  T
   7    -39.1831827 -0.135666E-07  0.477E-04    2.14      42.8  T
   8    -39.1831827 -0.226799E-08  0.151E-04    2.14     134.8  T
     SCC iter.                  ...        0 min,  0.964 sec
     gradient                   ...        0 min,  0.173 sec
 * total energy  :   -38.5512750 Eh     change       -0.7657551E-03 Eh
   gradient norm :     0.0898674 Eh/α   predicted    -0.9559528E-03 (  24.84%)
   displ. norm   :     0.1608901 α      lambda       -0.1262237E-02
   maximum displ.:     0.0863653 α      in ANC's #7, #1, #4, ...

........................................................................
.............................. CYCLE    4 ..............................
........................................................................
   1    -39.1943182 -0.391943E+02  0.723E-02    2.15       0.0  T
   2    -39.1943221 -0.388785E-05  0.479E-02    2.14       1.0  T
   3    -39.1943121  0.100042E-04  0.309E-02    2.15       1.0  T
   4    -39.1943313 -0.192376E-04  0.550E-03    2.15       3.7  T
   5    -39.1943319 -0.598829E-06  0.151E-03    2.15      13.5  T
   6    -39.1943319 -0.234506E-07  0.768E-04    2.15      26.6  T
   7    -39.1943319 -0.261975E-08  0.231E-04    2.15      88.2  T
     SCC iter.                  ...        0 min,  0.837 sec
     gradient                   ...        0 min,  0.178 sec
 * total energy  :   -38.5504507 Eh     change        0.8243200E-03 Eh
   gradient norm :     0.2073999 Eh/α   predicted    -0.6475318E-03 (-178.55%)
   displ. norm   :     0.0793195 α      lambda       -0.2210147E-02
   maximum displ.:     0.0355290 α      in ANC's #7, #14, #11, ...

........................................................................
.............................. CYCLE    5 ..............................
........................................................................
   1    -39.1827696 -0.391828E+02  0.491E-02    2.12       0.0  T
   2    -39.1827750 -0.545922E-05  0.338E-02    2.13       1.0  T
   3    -39.1827780 -0.295038E-05  0.202E-02    2.13       1.0  T
   4    -39.1827819 -0.390328E-05  0.652E-03    2.13       3.1  T
   5    -39.1827828 -0.900975E-06  0.149E-03    2.13      13.7  T
   6    -39.1827828 -0.302761E-07  0.686E-04    2.13      29.8  T
   7    -39.1827828 -0.270768E-08  0.249E-04    2.13      81.9  T
     SCC iter.                  ...        0 min,  0.910 sec
     gradient                   ...        0 min,  0.217 sec
 * total energy  :   -38.5515705 Eh     change       -0.1119857E-02 Eh
   gradient norm :     0.0077202 Eh/α   predicted    -0.1112633E-02 (  -0.65%)
   displ. norm   :     0.0510706 α      lambda       -0.4643826E-04
   maximum displ.:     0.0436360 α      in ANC's #1, #2, #7, ...

........................................................................
.............................. CYCLE    6 ..............................
........................................................................
   1    -39.1820081 -0.391820E+02  0.212E-02    2.13       0.0  T
   2    -39.1820082 -0.517999E-07  0.124E-02    2.13       1.6  T
   3    -39.1820080  0.144288E-06  0.246E-03    2.13       8.3  T
   4    -39.1820082 -0.169630E-06  0.432E-04    2.13      47.2  T
   5    -39.1820082 -0.182899E-08  0.254E-04    2.13      80.4  T
     SCC iter.                  ...        0 min,  0.608 sec
     gradient                   ...        0 min,  0.156 sec
 * total energy  :   -38.5516036 Eh     change       -0.3302518E-04 Eh
   gradient norm :     0.0051210 Eh/α   predicted    -0.2329096E-04 ( -29.48%)
   displ. norm   :     0.0764034 α      lambda       -0.4178624E-04
   maximum displ.:     0.0615986 α      in ANC's #1, #2, #7, ...

........................................................................
.............................. CYCLE    7 ..............................
........................................................................
   1    -39.1815089 -0.391815E+02  0.316E-02    2.13       0.0  T
   2    -39.1815091 -0.130461E-06  0.185E-02    2.13       1.1  T
   3    -39.1815089  0.203613E-06  0.330E-03    2.13       6.2  T
   4    -39.1815091 -0.241964E-06  0.800E-04    2.13      25.5  T
   5    -39.1815091 -0.944377E-08  0.334E-04    2.13      61.0  T
     SCC iter.                  ...        0 min,  0.640 sec
     gradient                   ...        0 min,  0.152 sec
 * total energy  :   -38.5516343 Eh     change       -0.3069337E-04 Eh
   gradient norm :     0.0033438 Eh/α   predicted    -0.2104430E-04 ( -31.44%)
   displ. norm   :     0.0601987 α      lambda       -0.1978455E-04
   maximum displ.:     0.0495501 α      in ANC's #1, #2, #7, ...

........................................................................
.............................. CYCLE    8 ..............................
........................................................................
   1    -39.1817570 -0.391818E+02  0.259E-02    2.13       0.0  T
   2    -39.1817571 -0.693994E-07  0.152E-02    2.13       1.3  T
   3    -39.1817570  0.101903E-06  0.239E-03    2.13       8.5  T
   4    -39.1817571 -0.121660E-06  0.584E-04    2.13      34.9  T
   5    -39.1817571 -0.571651E-08  0.233E-04    2.13      87.6  T
     SCC iter.                  ...        0 min,  0.642 sec
     gradient                   ...        0 min,  0.151 sec
 * total energy  :   -38.5516496 Eh     change       -0.1532345E-04 Eh
   gradient norm :     0.0013041 Eh/α   predicted    -0.9930991E-05 ( -35.19%)
   displ. norm   :     0.0680784 α      lambda       -0.1089611E-04
   maximum displ.:     0.0548990 α      in ANC's #1, #2, #4, ...

........................................................................
.............................. CYCLE    9 ..............................
........................................................................
   1    -39.1821390 -0.391821E+02  0.305E-02    2.13       0.0  T
   2    -39.1821390 -0.545701E-07  0.178E-02    2.13       1.1  T
   3    -39.1821389  0.971327E-07  0.222E-03    2.13       9.2  T
   4    -39.1821391 -0.122402E-06  0.402E-04    2.13      50.8  T
   5    -39.1821391 -0.127052E-08  0.209E-04    2.13      97.8  T
     SCC iter.                  ...        0 min,  0.571 sec
     gradient                   ...        0 min,  0.171 sec
 * total energy  :   -38.5516614 Eh     change       -0.1185446E-04 Eh
   gradient norm :     0.0012138 Eh/α   predicted    -0.5461409E-05 ( -53.93%)
   displ. norm   :     0.0429950 α      lambda       -0.5111728E-05
   maximum displ.:     0.0340437 α      in ANC's #1, #2, #3, ...

........................................................................
.............................. CYCLE   10 ..............................
........................................................................
   1    -39.1821553 -0.391822E+02  0.190E-02    2.13       0.0  T
   2    -39.1821553 -0.179298E-07  0.112E-02    2.13       1.8  T
   3    -39.1821552  0.116305E-06  0.216E-03    2.13       9.4  T
   4    -39.1821553 -0.129903E-06  0.303E-04    2.13      67.3  T
   5    -39.1821553 -0.155833E-08  0.156E-04    2.13     131.1  T
     SCC iter.                  ...        0 min,  0.570 sec
     gradient                   ...        0 min,  0.166 sec
 * total energy  :   -38.5516669 Eh     change       -0.5438346E-05 Eh
   gradient norm :     0.0013365 Eh/α   predicted    -0.2562510E-05 ( -52.88%)
   displ. norm   :     0.0312496 α      lambda       -0.2913587E-05
   maximum displ.:     0.0255075 α      in ANC's #1, #2, #3, ...

........................................................................
.............................. CYCLE   11 ..............................
........................................................................
   1    -39.1822338 -0.391822E+02  0.131E-02    2.13       0.0  T
   2    -39.1822338 -0.934980E-08  0.769E-03    2.13       2.7  T
   3    -39.1822338  0.799842E-08  0.728E-04    2.13      28.0  T
   4    -39.1822338 -0.113440E-07  0.213E-04    2.13      96.0  T
     SCC iter.                  ...        0 min,  0.491 sec
     gradient                   ...        0 min,  0.160 sec
 * total energy  :   -38.5516695 Eh     change       -0.2648689E-05 Eh
   gradient norm :     0.0010817 Eh/α   predicted    -0.1462688E-05 ( -44.78%)
   displ. norm   :     0.0145681 α      lambda       -0.8566062E-06
   maximum displ.:     0.0130512 α      in ANC's #1, #3, #2, ...

........................................................................
.............................. CYCLE   12 ..............................
........................................................................
   1    -39.1822357 -0.391822E+02  0.593E-03    2.13       0.0  T
   2    -39.1822357 -0.539755E-08  0.348E-03    2.13       5.9  T
   3    -39.1822357  0.961136E-08  0.691E-04    2.13      29.6  T
   4    -39.1822357 -0.113530E-07  0.110E-04    2.13     184.8  T
     SCC iter.                  ...        0 min,  0.567 sec
     gradient                   ...        0 min,  0.162 sec
 * total energy  :   -38.5516704 Eh     change       -0.8846253E-06 Eh
   gradient norm :     0.0002879 Eh/α   predicted    -0.4343614E-06 ( -50.90%)
   displ. norm   :     0.0084289 α      lambda       -0.3275209E-06
   maximum displ.:     0.0076436 α      in ANC's #1, #2, #4, ...

   *** GEOMETRY OPTIMIZATION CONVERGED AFTER 12 ITERATIONS ***

------------------------------------------------------------------------
 total energy gain   :        -0.0096887 Eh       -6.0797 kcal/mol
 total RMSD          :         0.1452797 a0        0.0769 Å
 total power (kW/mol):        -2.1198011 (step)   -2.0555 (real)
------------------------------------------------------------------------

 ANCopt (total)                0 d,  0 h,  0 min, 12.375 sec
 optimizer setup                ...        0 min,  0.000 sec (  0.004%)
 model hessian                  ...        0 min,  0.006 sec (  0.046%)
 ANC generation                 ...        0 min,  0.002 sec (  0.013%)
 coordinate transformation      ...        0 min,  0.000 sec (  0.004%)
 single point calculation       ...        0 min, 12.021 sec ( 97.135%)
 optimization log               ...        0 min,  0.003 sec (  0.022%)
 hessian update                 ...        0 min,  0.329 sec (  2.656%)
 rational function              ...        0 min,  0.013 sec (  0.105%)

================
 final structure:
================
24
 xtb: 6.5.0 (97a52f5)
N            1.76936724332487       -0.02268649001148       -1.10712458857407
C            0.60010297350739        0.00894793887795       -0.43006488893569
C           -0.27030135329774       -1.17503344814094       -0.53087402360995
C           -0.53728424410047       -1.74703345019756       -1.77356297359401
C            0.31355682373665        1.08662763212916        0.37443762655842
C           -0.78129342813522       -1.78596490187198        0.61224399978482
H            2.27863982498886        0.86301502402951       -1.09452731037860
C           -0.75272817040793        1.33011954453962        1.31020638780222
N            0.58597268632110        3.12116429908908        1.31068784802960
C            1.17011369683801        2.27113635321640        0.41304752736570
C           -0.55782049603258        2.55195319613791        1.84333125327648
C           -1.56333936959707       -2.92127638560972        0.50958839150838
C           -1.32732223407309       -2.87705683418186       -1.87336232690834
C           -1.84375240973297       -3.46716982457839       -0.73215720226169
H           -0.53536911720196       -1.38354781272608        1.58229071412803
H           -0.15865162006375       -1.28281248390075       -2.67397980665244
H            0.95471817727464        4.02484127681732        1.55441188191684
O            2.19977151226686        2.50815475773043       -0.21908536364470
H           -1.95047407330474       -3.38743706370433        1.40372833834691
H           -1.53755648132995       -3.30080258070161       -2.84444776705299
H           -2.45700762981289       -4.35248403216413       -0.81019111601117
H           -1.57573630679182        0.67475407025190        1.51199570522683
H           -1.13617409106813        3.08171286662381        2.57570194361410
H            1.83695508669120       -0.58170868165291       -1.94145425993515

 Bond Distances (Angstroems)
 ---------------------------
N1-C2=1.3515         N1-H7=1.0218         N1-H24=1.0066        C2-N1=1.3515         C2-C3=1.4729         C2-C5=1.3750         
C3-C2=1.4729         C3-C4=1.3938         C3-C6=1.3932         C4-C3=1.3938         C4-C13=1.3824        C4-H16=1.0815        
C5-C2=1.3750         C5-C8=1.4394         C5-C10=1.4623        C6-C3=1.3932         C6-C12=1.3824        C6-H15=1.0786        
H7-N1=1.0218         C8-C5=1.4394         C8-C11=1.3473        C8-H22=1.0712        N9-C10=1.3673        N9-C11=1.3842        
N9-H17=1.0060        C10-C5=1.4623        C10-N9=1.3673        C10-O18=1.2312       C11-C8=1.3473        C11-N9=1.3842        
C11-H23=1.0731       C12-C6=1.3824        C12-C14=1.3851       C12-H19=1.0801       C13-C4=1.3824        C13-C14=1.3847       
C13-H20=1.0802       C14-C12=1.3851       C14-C13=1.3847       C14-H21=1.0798       H15-C6=1.0786        H16-C4=1.0815        
H17-N9=1.0060        O18-C10=1.2312       H19-C12=1.0801       H20-C13=1.0802       H21-C14=1.0798       H22-C8=1.0712        
H23-C11=1.0731       H24-N1=1.0066        
 C  H  Rav=1.0778 sigma=0.0037  Rmin=1.0712  Rmax=1.0815     7
 C  C  Rav=1.4017 sigma=0.0373  Rmin=1.3473  Rmax=1.4729    11
 N  H  Rav=1.0114 sigma=0.0073  Rmin=1.0060  Rmax=1.0218     3
 N  C  Rav=1.3677 sigma=0.0133  Rmin=1.3515  Rmax=1.3842     3
 O  C  Rav=1.2312 sigma=0.0000  Rmin=1.2312  Rmax=1.2312     1

 selected bond angles (degree)
 --------------------
H7-N1-C2=113.88                H24-N1-C2=119.10               H24-N1-H7=117.27               C3-C2-N1=117.27                
C5-C2-N1=119.45                C5-C2-C3=123.15                C4-C3-C2=120.27                C6-C3-C2=120.87                
C6-C3-C4=118.77                C13-C4-C3=120.62               H16-C4-C3=119.94               H16-C4-C13=119.40              
C8-C5-C2=131.86                C10-C5-C2=121.89               C10-C5-C8=106.24               C12-C6-C3=120.44               
H15-C6-C3=119.39               H15-C6-C12=120.14              C11-C8-C5=107.67               H22-C8-C5=126.02               
H22-C8-C11=126.26              C11-N9-C10=110.49              H17-N9-C10=124.12              H17-N9-C11=125.38              
N9-C10-C5=105.70               O18-C10-C5=129.22              O18-C10-N9=125.08              

 selected dihedral angles (degree)
 ---------------------------------
C3-C2-N1-H7=172.98            C3-C2-N1-H24= 27.92           C5-C2-N1-H7=349.06            C5-C2-N1-H24=204.00           
C4-C3-C2-N1=312.79            C4-C3-C2-C5=136.87            C6-C3-C2-N1=129.28            C6-C3-C2-C5=313.36            
C13-C4-C3-C2=178.45           C13-C4-C3-C6=  1.89           H16-C4-C3-C2=355.93           H16-C4-C3-C6=179.36           
C8-C5-C2-N1=187.89            C8-C5-C2-C3=  3.72            C10-C5-C2-N1=  6.66           C10-C5-C2-C3=182.49           
C12-C6-C3-C2=182.02           C12-C6-C3-C4=358.56           H15-C6-C3-C2=  0.07           H15-C6-C3-C4=176.61           
C11-C8-C5-C2=179.60           C11-C8-C5-C10=  0.68          H22-C8-C5-C2=357.11           H22-C8-C5-C10=178.19          
N9-C10-C5-C2=180.15           N9-C10-C5-C8=359.20           O18-C10-C5-C2=  0.90          O18-C10-C5-C8=179.95          
C5-C10-N9-C11=  0.65          C5-C10-N9-H17=179.61          O18-C10-N9-C11=179.93         O18-C10-N9-H17=358.90         
           -------------------------------------------------
          |                Final Singlepoint                |
           -------------------------------------------------

          ...................................................
          :                      SETUP                      :
          :.................................................:
          :  # basis functions                  66          :
          :  # atomic orbitals                  66          :
          :  # shells                           38          :
          :  # electrons                        70          :
          :  max. iterations                   250          :
          :  Hamiltonian                  GFN2-xTB          :
          :  restarted?                      false          :
          :  GBSA solvation                  false          :
          :  PC potential                    false          :
          :  electronic temp.          300.0000000     K    :
          :  accuracy                    1.0000000          :
          :  -> integral cutoff          0.2500000E+02      :
          :  -> integral neglect         0.1000000E-07      :
          :  -> SCF convergence          0.1000000E-05 Eh   :
          :  -> wf. convergence          0.1000000E-03 e    :
          :  Broyden damping             0.4000000          :
          ...................................................

 iter      E             dE          RMSdq      gap      omega  full diag
   1    -39.1822357 -0.391822E+02  0.502E-05    2.13       0.0  T
   2    -39.1822357 -0.619593E-11  0.301E-05    2.13     677.1  T
   3    -39.1822357 -0.105160E-11  0.201E-05    2.13    1014.8  T

   *** convergence criteria satisfied after 3 iterations ***

         #    Occupation            Energy/Eh            Energy/eV
      -------------------------------------------------------------
         1        2.0000           -0.6780301             -18.4501
       ...           ...                  ...                  ...
        29        2.0000           -0.4371965             -11.8967
        30        2.0000           -0.4311196             -11.7314
        31        2.0000           -0.4154515             -11.3050
        32        2.0000           -0.4134149             -11.2496
        33        2.0000           -0.3962899             -10.7836
        34        2.0000           -0.3762437             -10.2381
        35        2.0000           -0.3456699              -9.4062 (HOMO)
        36                         -0.2675682              -7.2809 (LUMO)
        37                         -0.2333409              -6.3495
        38                         -0.2185967              -5.9483
        39                         -0.1647882              -4.4841
        40                         -0.1150949              -3.1319
       ...                                ...                  ...
        66                          0.7414211              20.1751
      -------------------------------------------------------------
                  HL-Gap            0.0781017 Eh            2.1253 eV
             Fermi-level           -0.3066190 Eh           -8.3435 eV

 SCC (total)                   0 d,  0 h,  0 min,  0.678 sec
 SCC setup                      ...        0 min,  0.042 sec (  6.256%)
 Dispersion                     ...        0 min,  0.025 sec (  3.754%)
 classical contributions        ...        0 min,  0.011 sec (  1.598%)
 integral evaluation            ...        0 min,  0.035 sec (  5.157%)
 iterations                     ...        0 min,  0.367 sec ( 54.206%)
 molecular gradient             ...        0 min,  0.172 sec ( 25.348%)
 printout                       ...        0 min,  0.025 sec (  3.639%)

         :::::::::::::::::::::::::::::::::::::::::::::::::::::
         ::                     SUMMARY                     ::
         :::::::::::::::::::::::::::::::::::::::::::::::::::::
         :: total energy             -38.551670409886 Eh    ::
         :: gradient norm              0.000288305406 Eh/a0 ::
         :: HOMO-LUMO gap              2.125255034187 eV    ::
         ::.................................................::
         :: SCC energy               -39.182235717039 Eh    ::
         :: -> isotropic ES            0.049388805623 Eh    ::
         :: -> anisotropic ES          0.001397898441 Eh    ::
         :: -> anisotropic XC          0.017934640970 Eh    ::
         :: -> dispersion             -0.023820786783 Eh    ::
         :: repulsion energy           0.630511593693 Eh    ::
         :: add. restraining           0.000008808510 Eh    ::
         :: total charge               0.000000000000 e     ::
         :::::::::::::::::::::::::::::::::::::::::::::::::::::

           -------------------------------------------------
          |                Property Printout                |
           -------------------------------------------------

    * Orbital Energies and Occupations

         #    Occupation            Energy/Eh            Energy/eV
      -------------------------------------------------------------
         1        2.0000           -0.6780301             -18.4501
       ...           ...                  ...                  ...
        23        2.0000           -0.4841419             -13.1742
        24        2.0000           -0.4748747             -12.9220
        25        2.0000           -0.4730359             -12.8720
        26        2.0000           -0.4654842             -12.6665
        27        2.0000           -0.4526517             -12.3173
        28        2.0000           -0.4509181             -12.2701
        29        2.0000           -0.4371965             -11.8967
        30        2.0000           -0.4311196             -11.7314
        31        2.0000           -0.4154515             -11.3050
        32        2.0000           -0.4134149             -11.2496
        33        2.0000           -0.3962899             -10.7836
        34        2.0000           -0.3762437             -10.2381
        35        2.0000           -0.3456699              -9.4062 (HOMO)
        36                         -0.2675682              -7.2809 (LUMO)
        37                         -0.2333409              -6.3495
        38                         -0.2185967              -5.9483
        39                         -0.1647882              -4.4841
        40                         -0.1150949              -3.1319
        41                         -0.0916967              -2.4952
        42                          0.0310279               0.8443
        43                          0.0414087               1.1268
        44                          0.0916633               2.4943
        45                          0.1141253               3.1055
        46                          0.1344866               3.6596
       ...                                ...                  ...
        66                          0.7414211              20.1751
      -------------------------------------------------------------
                  HL-Gap            0.0781017 Eh            2.1253 eV
             Fermi-level           -0.3066190 Eh           -8.3435 eV

     #   Z          covCN         q      C6AA      α(0)
     1   7 N        2.647    -0.246    26.412     7.633
     2   6 C        2.884     0.093    25.934     8.349
     3   6 C        2.976     0.007    27.860     8.658
     4   6 C        2.925    -0.032    28.795     8.800
     5   6 C        3.086    -0.074    29.744     8.940
     6   6 C        2.924    -0.028    28.713     8.787
     7   1 H        0.860     0.228     0.975     1.547
     8   6 C        2.983    -0.072    29.777     8.951
     9   7 N        2.775    -0.147    24.183     7.304
    10   6 C        2.875     0.256    22.700     7.810
    11   6 C        2.989     0.001    28.001     8.680
    12   6 C        2.919    -0.027    28.681     8.782
    13   6 C        2.918    -0.028    28.710     8.787
    14   6 C        2.920    -0.028    28.694     8.784
    15   1 H        0.926     0.046     2.375     2.410
    16   1 H        0.925     0.030     2.593     2.518
    17   1 H        0.860     0.168     1.284     1.775
    18   8 O        0.857    -0.488    23.531     6.504
    19   1 H        0.926     0.036     2.496     2.471
    20   1 H        0.926     0.035     2.522     2.484
    21   1 H        0.926     0.035     2.513     2.479
    22   1 H        0.926     0.032     2.564     2.504
    23   1 H        0.926     0.032     2.551     2.498
    24   1 H        0.860     0.173     1.256     1.756

 Mol. C6AA /au·bohr⁶  :       7615.168989
 Mol. C8AA /au·bohr⁸  :     185758.631190
 Mol. α(0) /au        :        139.209898


Wiberg/Mayer (AO) data.
largest (>0.10) Wiberg bond orders for each atom

 ---------------------------------------------------------------------------
     #   Z sym  total        # sym  WBO       # sym  WBO       # sym  WBO
 ---------------------------------------------------------------------------
     1   7 N    3.391 --     2 C    1.286    24 H    0.943     7 H    0.889
     2   6 C    3.969 --     5 C    1.446     1 N    1.286     3 C    1.038
     3   6 C    3.989 --     4 C    1.389     6 C    1.385     2 C    1.038
                            14 C    0.105
     4   6 C    3.983 --    13 C    1.450     3 C    1.389    16 H    0.967
                            12 C    0.108
     5   6 C    3.968 --     2 C    1.446     8 C    1.162    10 C    1.076
     6   6 C    3.986 --    12 C    1.452     3 C    1.385    15 H    0.967
                            13 C    0.109
     7   1 H    0.947 --     1 N    0.889
     8   6 C    3.979 --    11 C    1.691     5 C    1.162    22 H    0.970
     9   7 N    3.512 --    10 C    1.178    11 C    1.128    17 H    0.943
                            18 O    0.141
    10   6 C    3.949 --    18 O    1.566     9 N    1.178     5 C    1.076
    11   6 C    3.943 --     8 C    1.691     9 N    1.128    23 H    0.970
    12   6 C    3.992 --     6 C    1.452    14 C    1.434    19 H    0.970
                             4 C    0.108
    13   6 C    3.992 --     4 C    1.450    14 C    1.435    20 H    0.971
                             6 C    0.109
    14   6 C    3.984 --    13 C    1.435    12 C    1.434    21 H    0.971
                             3 C    0.105
    15   1 H    0.998 --     6 C    0.967
    16   1 H    0.999 --     4 C    0.967
    17   1 H    0.971 --     9 N    0.943
    18   8 O    1.963 --    10 C    1.566     9 N    0.141
    19   1 H    0.998 --    12 C    0.970
    20   1 H    0.998 --    13 C    0.971
    21   1 H    0.998 --    14 C    0.971
    22   1 H    0.999 --     8 C    0.970
    23   1 H    0.998 --    11 C    0.970
    24   1 H    0.969 --     1 N    0.943
 ---------------------------------------------------------------------------

Topologies differ in total number of bonds
Writing topology from bond orders to xtbtopo.mol

molecular dipole:
                 x           y           z       tot (Debye)
 q only:       -0.701      -0.969      -0.090
   full:       -0.854      -0.752      -0.088       2.900
molecular quadrupole (traceless):
                xx          xy          yy          xz          yz          zz
 q only:       -5.595      -5.945       0.277      -1.857       5.893       5.319
  q+dip:      -11.341      -2.950       3.676      -2.444       9.762       7.664
   full:       -9.703      -5.301       2.799      -1.529       8.506       6.905

           -------------------------------------------------
          |                Geometry Summary                 |
           -------------------------------------------------

      molecular mass/u    :      186.2103137
   center of mass at/Å    :       -0.0149802      -0.0157351      -0.0253760
  moments of inertia/u·Å² :        0.3041168E+03   0.1185228E+04   0.1419313E+04
rotational constants/cm⁻¹ :        0.5543144E-01   0.1422311E-01   0.1187732E-01

 * 23 selected distances

     #   Z          #   Z                                           value/Å
     1   7 N        2   6 C                                       1.3515139
     3   6 C        4   6 C                                       1.3938221
     2   6 C        5   6 C                                       1.3750370
     3   6 C        6   6 C                                       1.3932226
     1   7 N        7   1 H                                       1.0217557
     5   6 C        8   6 C                                       1.4394150 (max)
     9   7 N       10   6 C                                       1.3673064
     8   6 C       11   6 C                                       1.3472524
     9   7 N       11   6 C                                       1.3841869
     6   6 C       12   6 C                                       1.3824133
     4   6 C       13   6 C                                       1.3824157
    12   6 C       14   6 C                                       1.3851222
    13   6 C       14   6 C                                       1.3846599
     6   6 C       15   1 H                                       1.0786144
     4   6 C       16   1 H                                       1.0814872
     9   7 N       17   1 H                                       1.0059855 (min)
    10   6 C       18   8 O                                       1.2312454
    12   6 C       19   1 H                                       1.0801229
    13   6 C       20   1 H                                       1.0801695
    14   6 C       21   1 H                                       1.0797929
     8   6 C       22   1 H                                       1.0712448
    11   6 C       23   1 H                                       1.0730821
     1   7 N       24   1 H                                       1.0065685

 * 5 distinct bonds (by element types)

   Z      Z             #   av. dist./Å        max./Å        min./Å
   1 H    6 C           7     1.0777877     1.0814872     1.0712448
   6 C    6 C           9     1.3870400     1.4394150     1.3472524
   1 H    7 N           3     1.0114366     1.0217557     1.0059855
   6 C    7 N           3     1.3676691     1.3841869     1.3515139
   6 C    8 O           1     1.2312454     1.2312454     1.2312454


optimized geometry written to: xtbopt.xyz


           -------------------------------------------------
          | TOTAL ENERGY              -38.551670409886 Eh   |
          | GRADIENT NORM               0.000288305406 Eh/α |
          | HOMO-LUMO GAP               2.125255034187 eV   |
           -------------------------------------------------
########################################################################
[WARNING] Runtime exception occurred
-1- restart_readRestart: Number of electron missmatch in restart file.
########################################################################

------------------------------------------------------------------------
 * finished run on 2023/11/18 at 08:42:02.358     
------------------------------------------------------------------------
 total:
 * wall-time:     0 d,  0 h,  0 min, 14.674 sec
 *  cpu-time:     0 d,  0 h, 10 min, 44.246 sec
 * ratio c/w:    43.904 speedup
 SCF:
 * wall-time:     0 d,  0 h,  0 min,  1.446 sec
 *  cpu-time:     0 d,  0 h,  1 min,  2.812 sec
 * ratio c/w:    43.444 speedup
 ANC optimizer:
 * wall-time:     0 d,  0 h,  0 min, 13.060 sec
 *  cpu-time:     0 d,  0 h,  9 min, 33.920 sec
 * ratio c/w:    43.946 speedup

