
    -----------------------------------------------------------------------
          Psi4: An Open-Source Ab Initio Electronic Structure Package
                               Psi4 1.6 release

                         Git: Rev {HEAD} 77475b5 


    D. G. A. Smith, L. A. Burns, A. C. Simmonett, R. M. Parrish,
    M. C. Schieber, R. Galvelis, P. Kraus, H. Kruse, R. Di Remigio,
    A. Alenaizan, A. M. James, S. Lehtola, J. P. Misiewicz, M. Scheurer,
    R. A. Shaw, J. B. Schriber, Y. Xie, Z. L. Glick, D. A. Sirianni,
    J. S. O'Brien, J. M. Waldrop, A. Kumar, E. G. Hohenstein,
    B. P. Pritchard, B. R. Brooks, H. F. Schaefer III, A. Yu. Sokolov,
    K. Patkowski, A. E. DePrince III, U. Bozkaya, R. A. King,
    F. A. Evangelista, J. M. Turney, T. D. Crawford, C. D. Sherrill,
    J. Chem. Phys. 152(18) 184108 (2020). https://doi.org/10.1063/5.0006002

                            Additional Code Authors
    E. T. Seidl, C. L. Janssen, E. F. Valeev, M. L. Leininger,
    J. F. Gonthier, R. M. Richard, H. R. McAlexander, M. Saitow, X. Wang,
    P. Verma, M. H. Lechner, and A. Jiang

             Previous Authors, Complete List of Code Contributors,
                       and Citations for Specific Modules
    https://github.com/psi4/psi4/blob/master/codemeta.json
    https://github.com/psi4/psi4/graphs/contributors
    http://psicode.org/psi4manual/master/introduction.html#citing-psifour

    -----------------------------------------------------------------------


    Psi4 started on: Saturday, 18 November 2023 08:45AM

    Process ID: 1134473
    Host:       node165.bme.utexas.edu
    PSIDATADIR: /home/liuchw/anaconda3/envs/poltype2022/share/psi4
    Memory:     500.0 MiB
    Threads:    1
    
  ==> Input File <==

--------------------------------------------------------------------------
molecule { 
0 1
 N    2.051604   -0.326189   -0.449053
 C    0.745633   -0.112371   -0.174724
 C   -0.191112   -1.242168   -0.367119
 C   -1.076403   -1.245509   -1.438623
 C    0.333025    1.085218    0.341121
 C   -0.150725   -2.334303    0.491931
 H    2.624476    0.517161   -0.405428
 C   -0.951612    1.490768    0.849132
 N    0.437718    3.239730    0.982813
 C    1.215881    2.242872    0.461535
 C   -0.848247    2.779960    1.222695
 C   -1.005705   -3.403935    0.295670
 C   -1.927293   -2.319009   -1.633549
 C   -1.894131   -3.398443   -0.766790
 H    0.545450   -2.332920    1.317475
 H   -1.101057   -0.399348   -2.109811
 H    0.770273    4.165711    1.192705
 O    2.400776    2.348046    0.149539
 H   -0.976252   -4.245781    0.971573
 H   -2.615387   -2.314353   -2.466023
 H   -2.559099   -4.235428   -0.920102
 H   -1.818741    0.863727    0.910519
 H   -1.583600    3.433709    1.650994
 H    2.298914   -1.019732   -1.135639
}
memory 20GB
set_num_threads(5)
psi4_io.set_default_path("/scratch/liuchw/Psi4-7_11_Index_0-farH_in17")
set freeze_core True
E, wfn = energy('wb97x-d/6-311+G*',return_wfn=True)
oeprop(wfn,"WIBERG_LOWDIN_INDICES")
clean()
--------------------------------------------------------------------------

  Memory set to  18.626 GiB by Python driver.
  Threads set to 5 by Python driver.

Scratch directory: /scratch/liuchw/Psi4-7_11_Index_0-farH_in17/

*** tstart() called on node165.bme.utexas.edu
*** at Sat Nov 18 08:45:23 2023

   => Loading Basis Set <=

    Name: 6-311+G*
    Role: ORBITAL
    Keyword: BASIS
    atoms 1, 9            entry N          line   151 file /home/liuchw/anaconda3/envs/poltype2022/share/psi4/basis/6-311pgs.gbs 
    atoms 2-6, 8, 10-14   entry C          line   130 file /home/liuchw/anaconda3/envs/poltype2022/share/psi4/basis/6-311pgs.gbs 
    atoms 7, 15-17, 19-24 entry H          line    47 file /home/liuchw/anaconda3/envs/poltype2022/share/psi4/basis/6-311pgs.gbs 
    atoms 18              entry O          line   172 file /home/liuchw/anaconda3/envs/poltype2022/share/psi4/basis/6-311pgs.gbs 

   => WB97X-D: Empirical Dispersion <=

    Chai and Head-Gordon Dispersion Correction
    Chai, J.-D.; Head-Gordon, M. (2010), J. Chem. Phys., 132: 6615-6620

        s6 =       1.000000


         ---------------------------------------------------------
                                   SCF
               by Justin Turney, Rob Parrish, Andy Simmonett
                          and Daniel G. A. Smith
                              RKS Reference
                        5 Threads,  19073 MiB Core
         ---------------------------------------------------------

  ==> Geometry <==

    Molecular point group: c1
    Full point group: C1

    Geometry (in Angstrom), charge = 0, multiplicity = 1:

       Center              X                  Y                   Z               Mass       
    ------------   -----------------  -----------------  -----------------  -----------------
         N            2.052675969616    -0.300723877972    -0.450342661328    14.003074004430
         C            0.746704969616    -0.086905877972    -0.176013661328    12.000000000000
         C           -0.190040030384    -1.216702877972    -0.368408661328    12.000000000000
         C           -1.075331030384    -1.220043877972    -1.439912661328    12.000000000000
         C            0.334096969616     1.110683122028     0.339831338672    12.000000000000
         C           -0.149653030384    -2.308837877972     0.490641338672    12.000000000000
         H            2.625547969616     0.542626122028    -0.406717661328     1.007825032230
         C           -0.950540030384     1.516233122028     0.847842338672    12.000000000000
         N            0.438789969616     3.265195122028     0.981523338672    14.003074004430
         C            1.216952969616     2.268337122028     0.460245338672    12.000000000000
         C           -0.847175030384     2.805425122028     1.221405338672    12.000000000000
         C           -1.004633030384    -3.378469877972     0.294380338672    12.000000000000
         C           -1.926221030384    -2.293543877972    -1.634838661328    12.000000000000
         C           -1.893059030384    -3.372977877972    -0.768079661328    12.000000000000
         H            0.546521969616    -2.307454877972     1.316185338672     1.007825032230
         H           -1.099985030384    -0.373882877972    -2.111100661328     1.007825032230
         H            0.771344969616     4.191176122028     1.191415338672     1.007825032230
         O            2.401847969616     2.373511122028     0.148249338672    15.994914619570
         H           -0.975180030384    -4.220315877972     0.970283338672     1.007825032230
         H           -2.614315030384    -2.288887877972    -2.467312661328     1.007825032230
         H           -2.558027030384    -4.209962877972    -0.921391661328     1.007825032230
         H           -1.817669030384     0.889192122028     0.909229338672     1.007825032230
         H           -1.582528030384     3.459174122028     1.649704338672     1.007825032230
         H            2.299985969616    -0.994266877972    -1.136928661328     1.007825032230

  Running in c1 symmetry.

  Rotational constants: A =      0.05433  B =      0.01393  C =      0.01240 [cm^-1]
  Rotational constants: A =   1628.67710  B =    417.53719  C =    371.84635 [MHz]
  Nuclear repulsion =  820.225652072230901

  Charge       = 0
  Multiplicity = 1
  Electrons    = 98
  Nalpha       = 49
  Nbeta        = 49

  ==> Algorithm <==

  SCF Algorithm Type is DF.
  DIIS enabled.
  MOM disabled.
  Fractional occupation disabled.
  Guess Type is SAD.
  Energy threshold   = 1.00e-06
  Density threshold  = 1.00e-06
  Integral threshold = 1.00e-12

  ==> Primary Basis <==

  Basis Set: 6-311+G*
    Blend: 6-311+G*
    Number of shells: 170
    Number of basis functions: 338
    Number of Cartesian functions: 352
    Spherical Harmonics?: true
    Max angular momentum: 2

  ==> DFT Potential <==

   => LibXC <=

    Version 5.1.5
    S. Lehtola, C. Steigemann, M. J. Oliveira, and M. A. Marques, SoftwareX 7, 1 (2018) (10.1016/j.softx.2017.11.002)

   => Composite Functional: WB97X-D <= 

    wB97X-D Hyb-GGA Exchange-Correlation Functional

    J.-D. Chai and M. Head-Gordon, Phys. Chem. Chem. Phys. 10, 6615 (2008) (10.1039/B810189B)

    Deriv               =              1
    GGA                 =           TRUE
    Meta                =          FALSE

    Exchange Hybrid     =           TRUE
    MP2 Hybrid          =          FALSE

   => Exchange-Correlation Functionals <=

    1.0000   wB97X-D range-separated functional

   => Exact (HF) Exchange <=

    0.7780            HF,LR [omega = 0.2000]
    0.2220               HF 

   => LibXC Density Thresholds  <==

    XC_HYB_GGA_XC_WB97X_D:  1.00E-14 

   => Molecular Quadrature <=

    Radial Scheme          =       TREUTLER
    Pruning Scheme         =           NONE
    Nuclear Scheme         =       TREUTLER

    Blocking Scheme        =         OCTREE
    BS radius alpha        =              1
    Pruning alpha          =              1
    Radial Points          =             75
    Spherical Points       =            302
    Total Points           =         502445
    Total Blocks           =           3673
    Max Points             =            256
    Max Functions          =            290
    Weights Tolerance      =       1.00E-15

   => Loading Basis Set <=

    Name: (6-311+G* AUX)
    Role: JKFIT
    Keyword: DF_BASIS_SCF
    atoms 1, 9            entry N          line   262 file /home/liuchw/anaconda3/envs/poltype2022/share/psi4/basis/heavy-aug-cc-pvtz-jkfit.gbs 
    atoms 2-6, 8, 10-14   entry C          line   200 file /home/liuchw/anaconda3/envs/poltype2022/share/psi4/basis/heavy-aug-cc-pvtz-jkfit.gbs 
    atoms 7, 15-17, 19-24 entry H          line   116 file /home/liuchw/anaconda3/envs/poltype2022/share/psi4/basis/heavy-aug-cc-pvtz-jkfit.gbs 
    atoms 18              entry O          line   324 file /home/liuchw/anaconda3/envs/poltype2022/share/psi4/basis/heavy-aug-cc-pvtz-jkfit.gbs 

  ==> Integral Setup <==

  DFHelper Memory: AOs need 3.988 GiB; user supplied 10.883 GiB. Using in-core AOs.

  ==> MemDFJK: Density-Fitted J/K Matrices <==

    J tasked:                   Yes
    K tasked:                   Yes
    wK tasked:                  Yes
    Omega:                2.000E-01
    OpenMP threads:               5
    Memory [MiB]:             11144
    Algorithm:                 Core
    Schwarz Cutoff:           1E-12
    Mask sparsity (%):      12.1792
    Fitting Condition:        1E-10

   => Auxiliary Basis Set <=

  Basis Set: (6-311+G* AUX)
    Blend: HEAVY-AUG-CC-PVTZ-JKFIT
    Number of shells: 520
    Number of basis functions: 1756
    Number of Cartesian functions: 2184
    Spherical Harmonics?: true
    Max angular momentum: 4

  Cached 100.0% of DFT collocation blocks in 3.087 [GiB].

  Minimum eigenvalue in the overlap matrix is 9.1097690438E-07.
  Reciprocal condition number of the overlap matrix is 6.1155491079E-08.
    Using symmetric orthogonalization.

  ==> Pre-Iterations <==

  SCF Guess: Superposition of Atomic Densities via on-the-fly atomic UHF (no occupation information).

   -------------------------
    Irrep   Nso     Nmo    
   -------------------------
     A        338     338 
   -------------------------
    Total     338     338
   -------------------------

  ==> Iterations <==

                           Total Energy        Delta E     RMS |[F,P]|

   @DF-RKS iter SAD:  -609.54542568102738   -6.09545e+02   0.00000e+00 
   @DF-RKS iter   1:  -609.22803855571067    3.17387e-01   3.37974e-03 ADIIS/DIIS
   @DF-RKS iter   2:  -609.50043271115965   -2.72394e-01   2.72214e-03 ADIIS/DIIS
   @DF-RKS iter   3:  -609.84982428396495   -3.49392e-01   3.96262e-04 ADIIS/DIIS
   @DF-RKS iter   4:  -609.85494417681093   -5.11989e-03   2.03900e-04 ADIIS/DIIS
   @DF-RKS iter   5:  -609.85667682702763   -1.73265e-03   4.61703e-05 DIIS
   @DF-RKS iter   6:  -609.85677878250351   -1.01955e-04   1.37639e-05 DIIS
   @DF-RKS iter   7:  -609.85679043162634   -1.16491e-05   3.21396e-06 DIIS
   @DF-RKS iter   8:  -609.85679151225258   -1.08063e-06   1.64589e-06 DIIS
   @DF-RKS iter   9:  -609.85679184079561   -3.28543e-07   7.36388e-07 DIIS
  Energy and wave function converged.


  ==> Post-Iterations <==

   Electrons on quadrature grid:
      Ntotal   =   97.9999728437 ; deviation = -2.716e-05 

    Orbital Energies [Eh]
    ---------------------

    Doubly Occupied:                                                      

       1A    -19.202971     2A    -14.460479     3A    -14.454380  
       4A    -10.372421     5A    -10.356692     6A    -10.313196  
       7A    -10.310843     8A    -10.302921     9A    -10.302522  
      10A    -10.301011    11A    -10.300463    12A    -10.300123  
      13A    -10.275076    14A    -10.271653    15A     -1.135956  
      16A     -1.055964    17A     -1.048237    18A     -0.979741  
      19A     -0.899861    20A     -0.872658    21A     -0.865981  
      22A     -0.817076    23A     -0.765922    24A     -0.720162  
      25A     -0.715734    26A     -0.684470    27A     -0.664929  
      28A     -0.630913    29A     -0.609247    30A     -0.592511  
      31A     -0.574963    32A     -0.562272    33A     -0.551204  
      34A     -0.527163    35A     -0.523707    36A     -0.514904  
      37A     -0.509904    38A     -0.496313    39A     -0.478437  
      40A     -0.474810    41A     -0.451349    42A     -0.445371  
      43A     -0.433949    44A     -0.410206    45A     -0.349731  
      46A     -0.346914    47A     -0.336838    48A     -0.333328  
      49A     -0.260135  

    Virtual:                                                              

      50A      0.021155    51A      0.043205    52A      0.045826  
      53A      0.054072    54A      0.064495    55A      0.071731  
      56A      0.075244    57A      0.083305    58A      0.090637  
      59A      0.096990    60A      0.098319    61A      0.107696  
      62A      0.115293    63A      0.117910    64A      0.125468  
      65A      0.126982    66A      0.136120    67A      0.140944  
      68A      0.150741    69A      0.154909    70A      0.158087  
      71A      0.165339    72A      0.170523    73A      0.175744  
      74A      0.183589    75A      0.185808    76A      0.188345  
      77A      0.197689    78A      0.204728    79A      0.206632  
      80A      0.210862    81A      0.213583    82A      0.214804  
      83A      0.216958    84A      0.221980    85A      0.231083  
      86A      0.240492    87A      0.245979    88A      0.249235  
      89A      0.253006    90A      0.253777    91A      0.259755  
      92A      0.261851    93A      0.263815    94A      0.268108  
      95A      0.268679    96A      0.271277    97A      0.277446  
      98A      0.282923    99A      0.287507   100A      0.292276  
     101A      0.298136   102A      0.299850   103A      0.302718  
     104A      0.308171   105A      0.309266   106A      0.315929  
     107A      0.319035   108A      0.326242   109A      0.328453  
     110A      0.331402   111A      0.339468   112A      0.347281  
     113A      0.351080   114A      0.360582   115A      0.370096  
     116A      0.380272   117A      0.388523   118A      0.391144  
     119A      0.394358   120A      0.404110   121A      0.409588  
     122A      0.412853   123A      0.423877   124A      0.425853  
     125A      0.431568   126A      0.438476   127A      0.451153  
     128A      0.464360   129A      0.487344   130A      0.499223  
     131A      0.518793   132A      0.541201   133A      0.553078  
     134A      0.569674   135A      0.595246   136A      0.601395  
     137A      0.611414   138A      0.616577   139A      0.621207  
     140A      0.628529   141A      0.639284   142A      0.644872  
     143A      0.647503   144A      0.650160   145A      0.660743  
     146A      0.674811   147A      0.681930   148A      0.695552  
     149A      0.707882   150A      0.715061   151A      0.722777  
     152A      0.729892   153A      0.742216   154A      0.752015  
     155A      0.763523   156A      0.770887   157A      0.774325  
     158A      0.780234   159A      0.784782   160A      0.801535  
     161A      0.806742   162A      0.816775   163A      0.821044  
     164A      0.834451   165A      0.839508   166A      0.851521  
     167A      0.853284   168A      0.866489   169A      0.869544  
     170A      0.893104   171A      0.904887   172A      0.914165  
     173A      0.929713   174A      0.930675   175A      0.934979  
     176A      0.941096   177A      0.943318   178A      0.953114  
     179A      0.966842   180A      0.976498   181A      0.983924  
     182A      1.008250   183A      1.013911   184A      1.025318  
     185A      1.037618   186A      1.052980   187A      1.060043  
     188A      1.082836   189A      1.094277   190A      1.098533  
     191A      1.114184   192A      1.129185   193A      1.151311  
     194A      1.171214   195A      1.197062   196A      1.220678  
     197A      1.241706   198A      1.250748   199A      1.255655  
     200A      1.265830   201A      1.281827   202A      1.285194  
     203A      1.327318   204A      1.327945   205A      1.336894  
     206A      1.356219   207A      1.378988   208A      1.387190  
     209A      1.402248   210A      1.448807   211A      1.459482  
     212A      1.497944   213A      1.538888   214A      1.566234  
     215A      1.597699   216A      1.605240   217A      1.628178  
     218A      1.631043   219A      1.673713   220A      1.720488  
     221A      1.738504   222A      1.745032   223A      1.791689  
     224A      1.839528   225A      1.848324   226A      1.863307  
     227A      1.866218   228A      1.875862   229A      1.886757  
     230A      1.923662   231A      1.926025   232A      1.945365  
     233A      1.959262   234A      1.976453   235A      1.981695  
     236A      2.005036   237A      2.024620   238A      2.041524  
     239A      2.053971   240A      2.074428   241A      2.081241  
     242A      2.085107   243A      2.098694   244A      2.133411  
     245A      2.152342   246A      2.206476   247A      2.247908  
     248A      2.267481   249A      2.315839   250A      2.336128  
     251A      2.341586   252A      2.348910   253A      2.367337  
     254A      2.396392   255A      2.410446   256A      2.433402  
     257A      2.457589   258A      2.485571   259A      2.504078  
     260A      2.509761   261A      2.521039   262A      2.540638  
     263A      2.609803   264A      2.645987   265A      2.676598  
     266A      2.717120   267A      2.753562   268A      2.769454  
     269A      2.803839   270A      2.809402   271A      2.839987  
     272A      2.854674   273A      2.878967   274A      2.890364  
     275A      2.900443   276A      2.917182   277A      2.966335  
     278A      2.975016   279A      3.005653   280A      3.012022  
     281A      3.046762   282A      3.060929   283A      3.105607  
     284A      3.117789   285A      3.135266   286A      3.161168  
     287A      3.193666   288A      3.237225   289A      3.258721  
     290A      3.287043   291A      3.349172   292A      3.411162  
     293A      3.412763   294A      3.421027   295A      3.431819  
     296A      3.455168   297A      3.462179   298A      3.468565  
     299A      3.541658   300A      3.568926   301A      3.570921  
     302A      3.607910   303A      3.656744   304A      3.668847  
     305A      3.692009   306A      3.726944   307A      3.796559  
     308A      3.871887   309A      3.987625   310A      4.009428  
     311A      4.019603   312A      4.067825   313A      4.121454  
     314A      4.191247   315A      4.326941   316A      4.364370  
     317A      4.513666   318A      4.653504   319A      4.894201  
     320A      4.906017   321A      5.159988   322A      5.199741  
     323A      5.398547   324A      5.924267   325A     23.487406  
     326A     23.719324   327A     23.948229   328A     23.985046  
     329A     24.034921   330A     24.066284   331A     24.172116  
     332A     24.199522   333A     24.273237   334A     24.308989  
     335A     24.344364   336A     35.668893   337A     35.672857  
     338A     50.219326  

    Final Occupation by Irrep:
              A 
    DOCC [    49 ]

  @DF-RKS Final Energy:  -609.85679184079561

   => Energetics <=

    Nuclear Repulsion Energy =            820.2256520722309006
    One-Electron Energy =               -2453.5104381587607350
    Two-Electron Energy =                1082.7753419014193241
    DFT Exchange-Correlation Energy =     -59.3332331817897725
    Empirical Dispersion Energy =          -0.0141144738950638
    VV10 Nonlocal Energy =                  0.0000000000000000
    Total Energy =                       -609.8567918407954949

Computation Completed


Properties will be evaluated at   0.000000,   0.000000,   0.000000 [a0]

Properties computed using the SCF density matrix


 Multipole Moments:

 ------------------------------------------------------------------------------------
     Multipole            Electronic (a.u.)      Nuclear  (a.u.)        Total (a.u.)
 ------------------------------------------------------------------------------------

 L = 1.  Multiply by 2.5417464519 to convert [e a0] to [Debye]
 Dipole X            :          3.1454738           -4.1245956           -0.9791218
 Dipole Y            :          4.2125127           -4.9776086           -0.7650959
 Dipole Z            :          0.7250718           -0.9445188           -0.2194470
 Magnitude           :                                                    1.2618273

 ------------------------------------------------------------------------------------

*** tstop() called on node165.bme.utexas.edu at Sat Nov 18 08:45:45 2023
Module time:
	user time   =      98.89 seconds =       1.65 minutes
	system time =       3.49 seconds =       0.06 minutes
	total time  =         22 seconds =       0.37 minutes
Total time:
	user time   =      98.89 seconds =       1.65 minutes
	system time =       3.49 seconds =       0.06 minutes
	total time  =         22 seconds =       0.37 minutes


Properties will be evaluated at   0.000000,   0.000000,   0.000000 [a0]
OEProp: No title given, name of density matrix used for the following properties is 'SCF density'


  Wiberg Bond Indices using Orthogonal Lowdin Orbitals:

  Irrep: 1 Size: 24 x 24

                 1                   2                   3                   4                   5

    1     0.00000000000000     1.47844627711161     0.11594152746789     0.02714122872719     0.19323400854392
    2     1.47844627711161     0.00000000000000     1.00780224511129     0.12417309448524     1.46492183429121
    3     0.11594152746789     1.00780224511129     0.00000000000000     1.42122078251358     0.11856049166675
    4     0.02714122872719     0.12417309448524     1.42122078251358     0.00000000000000     0.04023459089767
    5     0.19323400854392     1.46492183429121     0.11856049166675     0.04023459089767     0.00000000000000
    6     0.04368912754900     0.12385408011731     1.41817026687120     0.13130556237634     0.02999928009296
    7     0.78563880620102     0.04762452105918     0.00932559704068     0.00124159902441     0.01476402011313
    8     0.02284005388178     0.11390122941895     0.03603573572269     0.02124948036218     1.15613315611720
    9     0.00509835080514     0.01803074117010     0.00286879968032     0.00124706295376     0.13415300477284
   10     0.06494624404027     0.13480072416662     0.01526273503708     0.00449902635995     1.07260706354015
   11     0.02853724774952     0.07499785817380     0.00620525761452     0.00338984370692     0.16904215092118
   12     0.00449480267015     0.01697788628534     0.13705227302936     0.14632149251769     0.00401444066449
   13     0.00334884583700     0.01667398274077     0.13687286861407     1.51914752725894     0.00451621056760
   14     0.00451601016116     0.01115376192640     0.13822680286539     0.14053481753072     0.00440751386773
   15     0.00533832551312     0.01763657708873     0.05672227371970     0.00964705641489     0.00337838419792
   16     0.00153427049252     0.01793750095405     0.05683155179848     0.80965824449183     0.00657972285479
   17     0.00029439098868     0.00164256935366     0.00047970171261     0.00012084838685     0.01188981354873
   18     0.10382721183581     0.08091467634657     0.00485393330081     0.00221546675185     0.14468320082370
   19     0.00013344345342     0.00124215111810     0.01073710813847     0.00251685627750     0.00038037139072
   20     0.00027918265368     0.00125761271455     0.01073787238949     0.06082304517159     0.00025243072212
   21     0.00005344481769     0.00028066472476     0.00299142041334     0.01135556215977     0.00005942334655
   22     0.00020091370528     0.01116168193603     0.00918872467567     0.00572175674711     0.05021765383908
   23     0.00042681328193     0.00173147327169     0.00034040498414     0.00012067505139     0.01387926201644
   24     0.83679360852425     0.04992612569338     0.01455826842456     0.00288934538623     0.01229648244850

                 6                   7                   8                   9                  10

    1     0.04368912754900     0.78563880620102     0.02284005388178     0.00509835080514     0.06494624404027
    2     0.12385408011731     0.04762452105918     0.11390122941895     0.01803074117010     0.13480072416662
    3     1.41817026687120     0.00932559704068     0.03603573572269     0.00286879968032     0.01526273503708
    4     0.13130556237634     0.00124159902441     0.02124948036218     0.00124706295376     0.00449902635995
    5     0.02999928009296     0.01476402011313     1.15613315611720     0.13415300477284     1.07260706354015
    6     0.00000000000000     0.00142381318277     0.01115204637040     0.00080995847487     0.00379797702834
    7     0.00142381318277     0.00000000000000     0.00123840353733     0.00113237877060     0.01251848263687
    8     0.01115204637040     0.00123840353733     0.00000000000000     0.19927874521742     0.13588881349656
    9     0.00080995847487     0.00113237877060     0.19927874521742     0.00000000000000     1.33993569946590
   10     0.00379797702834     0.01251848263687     0.13588881349656     1.33993569946590     0.00000000000000
   11     0.00201355167519     0.00050716934030     1.80055149732632     1.27637295654197     0.14107931287933
   12     1.52240399022016     0.00017406273402     0.00180184725145     0.00019785471091     0.00063216348242
   13     0.14700702261009     0.00029060966204     0.00326562546488     0.00028179648708     0.00068082949309
   14     0.14051012691903     0.00037643268438     0.00150675346817     0.00015001221298     0.00081014889162
   15     0.81186534600878     0.00005492885189     0.00078290215237     0.00004297512386     0.00020270706415
   16     0.00964482660690     0.00002938980172     0.00318128683666     0.00010933058948     0.00048647175832
   17     0.00012439680132     0.00011880701249     0.01091433320528     0.80564078663810     0.04386309007143
   18     0.00205135218067     0.05166961103706     0.02308628010676     0.21837632894617     2.10018038966577
   19     0.06080508677556     0.00000640720473     0.00007162446478     0.00001396429012     0.00008040079034
   20     0.00251375007228     0.00001507506507     0.00007697844155     0.00001266446807     0.00004811034421
   21     0.01133508930082     0.00000943253894     0.00001656698107     0.00000422628071     0.00001486572947
   22     0.00262166038920     0.00005301985356     0.81514480352989     0.01108660842973     0.00985130434833
   23     0.00008541786167     0.00019280362682     0.05897694488128     0.05649510179253     0.01239854851266
   24     0.00411203339039     0.01188190238978     0.00124311462033     0.00020326171402     0.00248825556957

                11                  12                  13                  14                  15

    1     0.02853724774952     0.00449480267015     0.00334884583700     0.00451601016116     0.00533832551312
    2     0.07499785817380     0.01697788628534     0.01667398274077     0.01115376192640     0.01763657708873
    3     0.00620525761452     0.13705227302936     0.13687286861407     0.13822680286539     0.05672227371970
    4     0.00338984370692     0.14632149251769     1.51914752725894     0.14053481753072     0.00964705641489
    5     0.16904215092118     0.00401444066449     0.00451621056760     0.00440751386773     0.00337838419792
    6     0.00201355167519     1.52240399022016     0.14700702261009     0.14051012691903     0.81186534600878
    7     0.00050716934030     0.00017406273402     0.00029060966204     0.00037643268438     0.00005492885189
    8     1.80055149732632     0.00180184725145     0.00326562546488     0.00150675346817     0.00078290215237
    9     1.27637295654197     0.00019785471091     0.00028179648708     0.00015001221298     0.00004297512386
   10     0.14107931287933     0.00063216348242     0.00068082949309     0.00081014889162     0.00020270706415
   11     0.00000000000000     0.00037140965099     0.00046321999979     0.00048518668633     0.00004102732044
   12     0.00037140965099     0.00000000000000     0.13944495745925     1.51882100397860     0.05655064422908
   13     0.00046321999979     0.13944495745925     0.00000000000000     1.52181589035740     0.00230018161005
   14     0.00048518668633     1.51882100397860     1.52181589035740     0.00000000000000     0.01068331370858
   15     0.00004102732044     0.05655064422908     0.00230018161005     0.01068331370858     0.00000000000000
   16     0.00029385334030     0.00225839732952     0.05631383875675     0.01061905999494     0.00032944132391
   17     0.04268674296830     0.00002122410623     0.00001947664487     0.00004745469701     0.00000266804236
   18     0.02508050262580     0.00038182124426     0.00033963993388     0.00038526110801     0.00011318485985
   19     0.00005655812711     0.83151173845745     0.01131446758248     0.05969505258765     0.00530675269911
   20     0.00003053480986     0.01132225275026     0.83147955238356     0.05969985216307     0.00026801264453
   21     0.00000586134558     0.05968689491922     0.05971153946190     0.83345150208298     0.00023567435799
   22     0.05996999357358     0.00045527846171     0.00085890801960     0.00041944079296     0.00008835970067
   23     0.83326175622820     0.00001838699397     0.00001654041945     0.00000817509597     0.00000766713904
   24     0.00119204301508     0.00034609440044     0.00028728520673     0.00050555045401     0.00012965789203

                16                  17                  18                  19                  20

    1     0.00153427049252     0.00029439098868     0.10382721183581     0.00013344345342     0.00027918265368
    2     0.01793750095405     0.00164256935366     0.08091467634657     0.00124215111810     0.00125761271455
    3     0.05683155179848     0.00047970171261     0.00485393330081     0.01073710813847     0.01073787238949
    4     0.80965824449183     0.00012084838685     0.00221546675185     0.00251685627750     0.06082304517159
    5     0.00657972285479     0.01188981354873     0.14468320082370     0.00038037139072     0.00025243072212
    6     0.00964482660690     0.00012439680132     0.00205135218067     0.06080508677556     0.00251375007228
    7     0.00002938980172     0.00011880701249     0.05166961103706     0.00000640720473     0.00001507506507
    8     0.00318128683666     0.01091433320528     0.02308628010676     0.00007162446478     0.00007697844155
    9     0.00010933058948     0.80564078663810     0.21837632894617     0.00001396429012     0.00001266446807
   10     0.00048647175832     0.04386309007143     2.10018038966577     0.00008040079034     0.00004811034421
   11     0.00029385334030     0.04268674296830     0.02508050262580     0.00005655812711     0.00003053480986
   12     0.00225839732952     0.00002122410623     0.00038182124426     0.83151173845745     0.01132225275026
   13     0.05631383875675     0.00001947664487     0.00033963993388     0.01131446758248     0.83147955238356
   14     0.01061905999494     0.00004745469701     0.00038526110801     0.05969505258765     0.05969985216307
   15     0.00032944132391     0.00000266804236     0.00011318485985     0.00530675269911     0.00026801264453
   16     0.00000000000000     0.00000211306494     0.00020331826403     0.00027168798308     0.00530954101157
   17     0.00000211306494     0.00000000000000     0.01015234019896     0.00000056265916     0.00000046382055
   18     0.00020331826403     0.01015234019896     0.00000000000000     0.00005079615398     0.00003305997352
   19     0.00027168798308     0.00000056265916     0.00005079615398     0.00000000000000     0.00024056315477
   20     0.00530954101157     0.00000046382055     0.00003305997352     0.00024056315477     0.00000000000000
   21     0.00023538580249     0.00000054195365     0.00000442279351     0.00541311486400     0.00541487918988
   22     0.00043724848844     0.00042916180842     0.00201695394309     0.00000059710614     0.00000462827389
   23     0.00000599403871     0.00318006185874     0.00166955041485     0.00000133534039     0.00000233836431
   24     0.00005690645543     0.00001579141136     0.00138485935598     0.00002598836809     0.00002557192081

                21                  22                  23                  24

    1     0.00005344481769     0.00020091370528     0.00042681328193     0.83679360852425
    2     0.00028066472476     0.01116168193603     0.00173147327169     0.04992612569338
    3     0.00299142041334     0.00918872467567     0.00034040498414     0.01455826842456
    4     0.01135556215977     0.00572175674711     0.00012067505139     0.00288934538623
    5     0.00005942334655     0.05021765383908     0.01387926201644     0.01229648244850
    6     0.01133508930082     0.00262166038920     0.00008541786167     0.00411203339039
    7     0.00000943253894     0.00005301985356     0.00019280362682     0.01188190238978
    8     0.00001656698107     0.81514480352989     0.05897694488128     0.00124311462033
    9     0.00000422628071     0.01108660842973     0.05649510179253     0.00020326171402
   10     0.00001486572947     0.00985130434833     0.01239854851266     0.00248825556957
   11     0.00000586134558     0.05996999357358     0.83326175622820     0.00119204301508
   12     0.05968689491922     0.00045527846171     0.00001838699397     0.00034609440044
   13     0.05971153946190     0.00085890801960     0.00001654041945     0.00028728520673
   14     0.83345150208298     0.00041944079296     0.00000817509597     0.00050555045401
   15     0.00023567435799     0.00008835970067     0.00000766713904     0.00012965789203
   16     0.00023538580249     0.00043724848844     0.00000599403871     0.00005690645543
   17     0.00000054195365     0.00042916180842     0.00318006185874     0.00001579141136
   18     0.00000442279351     0.00201695394309     0.00166955041485     0.00138485935598
   19     0.00541311486400     0.00000059710614     0.00000133534039     0.00002598836809
   20     0.00541487918988     0.00000462827389     0.00000233836431     0.00002557192081
   21     0.00000000000000     0.00000274936569     0.00000053869838     0.00000774624751
   22     0.00000274936569     0.00000000000000     0.00251036859997     0.00008168294346
   23     0.00000053869838     0.00251036859997     0.00000000000000     0.00001838660080
   24     0.00000774624751     0.00008168294346     0.00001838660080     0.00000000000000



  Atomic Valences: 

 #  #
 Irrep: 1
      1:    3.726754136012047
      2:    4.817089269259352
      3:    4.730986642792082
      4:    4.486774965553604
      5:    4.650204511245375
      6:    4.481295762875234
      7:    0.940287273368776
      8:    4.418338222855286
      9:    4.071542609536693
     10:    5.097073364372439
     11:    4.466635535620413
     12:    4.455260917546972
     13:    4.456450816571270
     14:    4.458829124235101
     15:    0.981728061663047
     16:    0.982329382038866
     17:    0.931647340953712
     18:    2.773674161864866
     19:    0.989876628987140
     20:    0.989847972503203
     21:    0.990291547375883
     22:    0.982523498531498
     23:    0.985348545073322
     24:    0.940469962432749


    Psi4 stopped on: Saturday, 18 November 2023 08:45AM
    Psi4 wall time for execution: 0:00:22.03

*** Psi4 exiting successfully. Buy a developer a beer!
