
    -----------------------------------------------------------------------
          Psi4: An Open-Source Ab Initio Electronic Structure Package
                               Psi4 1.6 release

                         Git: Rev {HEAD} 77475b5 


    D. G. A. Smith, L. A. Burns, A. C. Simmonett, R. M. Parrish,
    M. C. Schieber, R. Galvelis, P. Kraus, H. Kruse, R. Di Remigio,
    A. Alenaizan, A. M. James, S. Lehtola, J. P. Misiewicz, M. Scheurer,
    R. A. Shaw, J. B. Schriber, Y. Xie, Z. L. Glick, D. A. Sirianni,
    J. S. O'Brien, J. M. Waldrop, A. Kumar, E. G. Hohenstein,
    B. P. Pritchard, B. R. Brooks, H. F. Schaefer III, A. Yu. Sokolov,
    K. Patkowski, A. E. DePrince III, U. Bozkaya, R. A. King,
    F. A. Evangelista, J. M. Turney, T. D. Crawford, C. D. Sherrill,
    J. Chem. Phys. 152(18) 184108 (2020). https://doi.org/10.1063/5.0006002

                            Additional Code Authors
    E. T. Seidl, C. L. Janssen, E. F. Valeev, M. L. Leininger,
    J. F. Gonthier, R. M. Richard, H. R. McAlexander, M. Saitow, X. Wang,
    P. Verma, M. H. Lechner, and A. Jiang

             Previous Authors, Complete List of Code Contributors,
                       and Citations for Specific Modules
    https://github.com/psi4/psi4/blob/master/codemeta.json
    https://github.com/psi4/psi4/graphs/contributors
    http://psicode.org/psi4manual/master/introduction.html#citing-psifour

    -----------------------------------------------------------------------


    Psi4 started on: Saturday, 18 November 2023 08:49AM

    Process ID: 1134948
    Host:       node165.bme.utexas.edu
    PSIDATADIR: /home/liuchw/anaconda3/envs/poltype2022/share/psi4
    Memory:     500.0 MiB
    Threads:    1
    
  ==> Input File <==

--------------------------------------------------------------------------
molecule { 
0 1
 N    1.293413   -0.520025    1.719552
 C    0.479628   -0.212072    0.685255
 C   -0.312293   -1.307359    0.081296
 C   -1.400667   -1.836421    0.765179
 C    0.340140    1.085814    0.276727
 C    0.002958   -1.789427   -1.183598
 H    1.892466    0.251213    2.015712
 C   -0.562203    1.675530   -0.677534
 N    0.749324    3.294663    0.137876
 C    1.165451    2.172103    0.799535
 C   -0.288481    2.992660   -0.730436
 C   -0.748566   -2.805602   -1.746756
 C   -2.153148   -2.848110    0.195935
 C   -1.826283   -3.336553   -1.058083
 H    0.839786   -1.366449   -1.720118
 H   -1.650669   -1.450111    1.742126
 H    1.126769    4.214157    0.293776
 O    2.066853    2.126629    1.634922
 H   -0.494274   -3.181565   -2.726827
 H   -2.998169   -3.254895    0.731609
 H   -2.413086   -4.128274   -1.499803
 H   -1.309941    1.144875   -1.232742
 H   -0.745465    3.767849   -1.315087
 H    1.670839   -1.451221    1.782329
}
memory 20GB
set_num_threads(5)
psi4_io.set_default_path("/scratch/liuchw/Psi4-7_11_Index_0-farH_in17")
set freeze_core True
E, wfn = energy('wb97x-d/6-311+G*',return_wfn=True)
oeprop(wfn,"WIBERG_LOWDIN_INDICES")
clean()
--------------------------------------------------------------------------

  Memory set to  18.626 GiB by Python driver.
  Threads set to 5 by Python driver.

Scratch directory: /scratch/liuchw/Psi4-7_11_Index_0-farH_in17/

*** tstart() called on node165.bme.utexas.edu
*** at Sat Nov 18 08:49:12 2023

   => Loading Basis Set <=

    Name: 6-311+G*
    Role: ORBITAL
    Keyword: BASIS
    atoms 1, 9            entry N          line   151 file /home/liuchw/anaconda3/envs/poltype2022/share/psi4/basis/6-311pgs.gbs 
    atoms 2-6, 8, 10-14   entry C          line   130 file /home/liuchw/anaconda3/envs/poltype2022/share/psi4/basis/6-311pgs.gbs 
    atoms 7, 15-17, 19-24 entry H          line    47 file /home/liuchw/anaconda3/envs/poltype2022/share/psi4/basis/6-311pgs.gbs 
    atoms 18              entry O          line   172 file /home/liuchw/anaconda3/envs/poltype2022/share/psi4/basis/6-311pgs.gbs 

   => WB97X-D: Empirical Dispersion <=

    Chai and Head-Gordon Dispersion Correction
    Chai, J.-D.; Head-Gordon, M. (2010), J. Chem. Phys., 132: 6615-6620

        s6 =       1.000000


         ---------------------------------------------------------
                                   SCF
               by Justin Turney, Rob Parrish, Andy Simmonett
                          and Daniel G. A. Smith
                              RKS Reference
                        5 Threads,  19073 MiB Core
         ---------------------------------------------------------

  ==> Geometry <==

    Molecular point group: c1
    Full point group: C1

    Geometry (in Angstrom), charge = 0, multiplicity = 1:

       Center              X                  Y                   Z               Mass       
    ------------   -----------------  -----------------  -----------------  -----------------
         N            1.326149132958    -0.481645475834     1.616873956128    14.003074004430
         C            0.512364132958    -0.173692475834     0.582576956128    12.000000000000
         C           -0.279556867042    -1.268979475834    -0.021382043872    12.000000000000
         C           -1.367930867042    -1.798041475834     0.662500956128    12.000000000000
         C            0.372876132958     1.124193524166     0.174048956128    12.000000000000
         C            0.035694132958    -1.751047475834    -1.286276043872    12.000000000000
         H            1.925202132958     0.289592524166     1.913033956128     1.007825032230
         C           -0.529466867042     1.713909524166    -0.780212043872    12.000000000000
         N            0.782060132958     3.333042524166     0.035197956128    14.003074004430
         C            1.198187132958     2.210482524166     0.696856956128    12.000000000000
         C           -0.255744867042     3.031039524166    -0.833114043872    12.000000000000
         C           -0.715829867042    -2.767222475834    -1.849434043872    12.000000000000
         C           -2.120411867042    -2.809730475834     0.093256956128    12.000000000000
         C           -1.793546867042    -3.298173475834    -1.160761043872    12.000000000000
         H            0.872522132958    -1.328069475834    -1.822796043872     1.007825032230
         H           -1.617932867042    -1.411731475834     1.639447956128     1.007825032230
         H            1.159505132958     4.252536524166     0.191097956128     1.007825032230
         O            2.099589132958     2.165008524166     1.532243956128    15.994914619570
         H           -0.461537867042    -3.143185475834    -2.829505043872     1.007825032230
         H           -2.965432867042    -3.216515475834     0.628930956128     1.007825032230
         H           -2.380349867042    -4.089894475834    -1.602481043872     1.007825032230
         H           -1.277204867042     1.183254524166    -1.335420043872     1.007825032230
         H           -0.712728867042     3.806228524166    -1.417765043872     1.007825032230
         H            1.703575132958    -1.412841475834     1.679650956128     1.007825032230

  Running in c1 symmetry.

  Rotational constants: A =      0.05388  B =      0.01403  C =      0.01247 [cm^-1]
  Rotational constants: A =   1615.31202  B =    420.53726  C =    373.81890 [MHz]
  Nuclear repulsion =  820.724574973459312

  Charge       = 0
  Multiplicity = 1
  Electrons    = 98
  Nalpha       = 49
  Nbeta        = 49

  ==> Algorithm <==

  SCF Algorithm Type is DF.
  DIIS enabled.
  MOM disabled.
  Fractional occupation disabled.
  Guess Type is SAD.
  Energy threshold   = 1.00e-06
  Density threshold  = 1.00e-06
  Integral threshold = 1.00e-12

  ==> Primary Basis <==

  Basis Set: 6-311+G*
    Blend: 6-311+G*
    Number of shells: 170
    Number of basis functions: 338
    Number of Cartesian functions: 352
    Spherical Harmonics?: true
    Max angular momentum: 2

  ==> DFT Potential <==

   => LibXC <=

    Version 5.1.5
    S. Lehtola, C. Steigemann, M. J. Oliveira, and M. A. Marques, SoftwareX 7, 1 (2018) (10.1016/j.softx.2017.11.002)

   => Composite Functional: WB97X-D <= 

    wB97X-D Hyb-GGA Exchange-Correlation Functional

    J.-D. Chai and M. Head-Gordon, Phys. Chem. Chem. Phys. 10, 6615 (2008) (10.1039/B810189B)

    Deriv               =              1
    GGA                 =           TRUE
    Meta                =          FALSE

    Exchange Hybrid     =           TRUE
    MP2 Hybrid          =          FALSE

   => Exchange-Correlation Functionals <=

    1.0000   wB97X-D range-separated functional

   => Exact (HF) Exchange <=

    0.7780            HF,LR [omega = 0.2000]
    0.2220               HF 

   => LibXC Density Thresholds  <==

    XC_HYB_GGA_XC_WB97X_D:  1.00E-14 

   => Molecular Quadrature <=

    Radial Scheme          =       TREUTLER
    Pruning Scheme         =           NONE
    Nuclear Scheme         =       TREUTLER

    Blocking Scheme        =         OCTREE
    BS radius alpha        =              1
    Pruning alpha          =              1
    Radial Points          =             75
    Spherical Points       =            302
    Total Points           =         502413
    Total Blocks           =           3642
    Max Points             =            256
    Max Functions          =            294
    Weights Tolerance      =       1.00E-15

   => Loading Basis Set <=

    Name: (6-311+G* AUX)
    Role: JKFIT
    Keyword: DF_BASIS_SCF
    atoms 1, 9            entry N          line   262 file /home/liuchw/anaconda3/envs/poltype2022/share/psi4/basis/heavy-aug-cc-pvtz-jkfit.gbs 
    atoms 2-6, 8, 10-14   entry C          line   200 file /home/liuchw/anaconda3/envs/poltype2022/share/psi4/basis/heavy-aug-cc-pvtz-jkfit.gbs 
    atoms 7, 15-17, 19-24 entry H          line   116 file /home/liuchw/anaconda3/envs/poltype2022/share/psi4/basis/heavy-aug-cc-pvtz-jkfit.gbs 
    atoms 18              entry O          line   324 file /home/liuchw/anaconda3/envs/poltype2022/share/psi4/basis/heavy-aug-cc-pvtz-jkfit.gbs 

  ==> Integral Setup <==

  DFHelper Memory: AOs need 3.989 GiB; user supplied 10.884 GiB. Using in-core AOs.

  ==> MemDFJK: Density-Fitted J/K Matrices <==

    J tasked:                   Yes
    K tasked:                   Yes
    wK tasked:                  Yes
    Omega:                2.000E-01
    OpenMP threads:               5
    Memory [MiB]:             11145
    Algorithm:                 Core
    Schwarz Cutoff:           1E-12
    Mask sparsity (%):      12.1494
    Fitting Condition:        1E-10

   => Auxiliary Basis Set <=

  Basis Set: (6-311+G* AUX)
    Blend: HEAVY-AUG-CC-PVTZ-JKFIT
    Number of shells: 520
    Number of basis functions: 1756
    Number of Cartesian functions: 2184
    Spherical Harmonics?: true
    Max angular momentum: 4

  Cached 100.0% of DFT collocation blocks in 3.086 [GiB].

  Minimum eigenvalue in the overlap matrix is 9.2683881484E-07.
  Reciprocal condition number of the overlap matrix is 6.2095510058E-08.
    Using symmetric orthogonalization.

  ==> Pre-Iterations <==

  SCF Guess: Superposition of Atomic Densities via on-the-fly atomic UHF (no occupation information).

   -------------------------
    Irrep   Nso     Nmo    
   -------------------------
     A        338     338 
   -------------------------
    Total     338     338
   -------------------------

  ==> Iterations <==

                           Total Energy        Delta E     RMS |[F,P]|

   @DF-RKS iter SAD:  -609.54636636454472   -6.09546e+02   0.00000e+00 
   @DF-RKS iter   1:  -609.22788705055427    3.18479e-01   3.38025e-03 ADIIS/DIIS
   @DF-RKS iter   2:  -609.49987889364797   -2.71992e-01   2.72369e-03 ADIIS/DIIS
   @DF-RKS iter   3:  -609.84985081793582   -3.49972e-01   3.95198e-04 ADIIS/DIIS
   @DF-RKS iter   4:  -609.85494683934746   -5.09602e-03   2.03699e-04 ADIIS/DIIS
   @DF-RKS iter   5:  -609.85667567296639   -1.72883e-03   4.62573e-05 DIIS
   @DF-RKS iter   6:  -609.85677781949687   -1.02147e-04   1.37972e-05 DIIS
   @DF-RKS iter   7:  -609.85678948182147   -1.16623e-05   3.24973e-06 DIIS
   @DF-RKS iter   8:  -609.85679056141316   -1.07959e-06   1.65320e-06 DIIS
   @DF-RKS iter   9:  -609.85679089285816   -3.31445e-07   7.32633e-07 DIIS
  Energy and wave function converged.


  ==> Post-Iterations <==

   Electrons on quadrature grid:
      Ntotal   =   97.9999718243 ; deviation = -2.818e-05 

    Orbital Energies [Eh]
    ---------------------

    Doubly Occupied:                                                      

       1A    -19.203026     2A    -14.460471     3A    -14.454276  
       4A    -10.372432     5A    -10.356781     6A    -10.313080  
       7A    -10.310859     8A    -10.302835     9A    -10.302504  
      10A    -10.300932    11A    -10.300381    12A    -10.300036  
      13A    -10.275140    14A    -10.271656    15A     -1.136050  
      16A     -1.055982    17A     -1.048051    18A     -0.979737  
      19A     -0.899909    20A     -0.872526    21A     -0.865897  
      22A     -0.817036    23A     -0.765790    24A     -0.720038  
      25A     -0.715671    26A     -0.684455    27A     -0.665099  
      28A     -0.630811    29A     -0.609244    30A     -0.592529  
      31A     -0.574653    32A     -0.562258    33A     -0.551182  
      34A     -0.527148    35A     -0.523661    36A     -0.514884  
      37A     -0.509901    38A     -0.496319    39A     -0.478443  
      40A     -0.474666    41A     -0.451435    42A     -0.445321  
      43A     -0.433800    44A     -0.410246    45A     -0.349789  
      46A     -0.346867    47A     -0.336753    48A     -0.333229  
      49A     -0.260139  

    Virtual:                                                              

      50A      0.021496    51A      0.043198    52A      0.045363  
      53A      0.054168    54A      0.064519    55A      0.071552  
      56A      0.075277    57A      0.083764    58A      0.090670  
      59A      0.097136    60A      0.098486    61A      0.107892  
      62A      0.115303    63A      0.117759    64A      0.125617  
      65A      0.126889    66A      0.135512    67A      0.140854  
      68A      0.150981    69A      0.155119    70A      0.158165  
      71A      0.165674    72A      0.170314    73A      0.176040  
      74A      0.183624    75A      0.185562    76A      0.188627  
      77A      0.198241    78A      0.205228    79A      0.206798  
      80A      0.211130    81A      0.213547    82A      0.214358  
      83A      0.216429    84A      0.222078    85A      0.231609  
      86A      0.240324    87A      0.245344    88A      0.249387  
      89A      0.253293    90A      0.253878    91A      0.260476  
      92A      0.261714    93A      0.263506    94A      0.268316  
      95A      0.269503    96A      0.271223    97A      0.276649  
      98A      0.282454    99A      0.288150   100A      0.292569  
     101A      0.297639   102A      0.300769   103A      0.302438  
     104A      0.307774   105A      0.309980   106A      0.314857  
     107A      0.318623   108A      0.325905   109A      0.328987  
     110A      0.331482   111A      0.340813   112A      0.346835  
     113A      0.351956   114A      0.361486   115A      0.370490  
     116A      0.378276   117A      0.388231   118A      0.390514  
     119A      0.394599   120A      0.404627   121A      0.408008  
     122A      0.413804   123A      0.424021   124A      0.426110  
     125A      0.432792   126A      0.439156   127A      0.451312  
     128A      0.463891   129A      0.486919   130A      0.499053  
     131A      0.518966   132A      0.540597   133A      0.553791  
     134A      0.570709   135A      0.595492   136A      0.600924  
     137A      0.612073   138A      0.617406   139A      0.620337  
     140A      0.627038   141A      0.639950   142A      0.645710  
     143A      0.647554   144A      0.649789   145A      0.659806  
     146A      0.674753   147A      0.679467   148A      0.695549  
     149A      0.704907   150A      0.716739   151A      0.724694  
     152A      0.729615   153A      0.741965   154A      0.753343  
     155A      0.764675   156A      0.770906   157A      0.773940  
     158A      0.780276   159A      0.786084   160A      0.798949  
     161A      0.808268   162A      0.816052   163A      0.820160  
     164A      0.833791   165A      0.841473   166A      0.850819  
     167A      0.853310   168A      0.867214   169A      0.870582  
     170A      0.893179   171A      0.905608   172A      0.914024  
     173A      0.929102   174A      0.930216   175A      0.935586  
     176A      0.941769   177A      0.942754   178A      0.953229  
     179A      0.966809   180A      0.975551   181A      0.978558  
     182A      1.007683   183A      1.013672   184A      1.022662  
     185A      1.037547   186A      1.054808   187A      1.066586  
     188A      1.085743   189A      1.095327   190A      1.100240  
     191A      1.115691   192A      1.123965   193A      1.150655  
     194A      1.170594   195A      1.196905   196A      1.222886  
     197A      1.242290   198A      1.251630   199A      1.255185  
     200A      1.264213   201A      1.282651   202A      1.285412  
     203A      1.325241   204A      1.327697   205A      1.336316  
     206A      1.355859   207A      1.379115   208A      1.388930  
     209A      1.401247   210A      1.449130   211A      1.460382  
     212A      1.499114   213A      1.534407   214A      1.565615  
     215A      1.597611   216A      1.605514   217A      1.627380  
     218A      1.629580   219A      1.675822   220A      1.720513  
     221A      1.737668   222A      1.743877   223A      1.793231  
     224A      1.838683   225A      1.847979   226A      1.865442  
     227A      1.867070   228A      1.873948   229A      1.886111  
     230A      1.923737   231A      1.924916   232A      1.946999  
     233A      1.954603   234A      1.978088   235A      1.982701  
     236A      2.005215   237A      2.025708   238A      2.043109  
     239A      2.053030   240A      2.074390   241A      2.081351  
     242A      2.085713   243A      2.098611   244A      2.132898  
     245A      2.151613   246A      2.206422   247A      2.247699  
     248A      2.267453   249A      2.317077   250A      2.336564  
     251A      2.340428   252A      2.348833   253A      2.368165  
     254A      2.396112   255A      2.412795   256A      2.433643  
     257A      2.453691   258A      2.485564   259A      2.505126  
     260A      2.509790   261A      2.522020   262A      2.542463  
     263A      2.611134   264A      2.646150   265A      2.676547  
     266A      2.716692   267A      2.751869   268A      2.768737  
     269A      2.803575   270A      2.808697   271A      2.837578  
     272A      2.855335   273A      2.878386   274A      2.891370  
     275A      2.900487   276A      2.918325   277A      2.966778  
     278A      2.975010   279A      3.002620   280A      3.011585  
     281A      3.047093   282A      3.060650   283A      3.107112  
     284A      3.118349   285A      3.134469   286A      3.160256  
     287A      3.194635   288A      3.236489   289A      3.258408  
     290A      3.286647   291A      3.350290   292A      3.410855  
     293A      3.413467   294A      3.420722   295A      3.430852  
     296A      3.452288   297A      3.466145   298A      3.468693  
     299A      3.540744   300A      3.569021   301A      3.570861  
     302A      3.607672   303A      3.656039   304A      3.668180  
     305A      3.693382   306A      3.726448   307A      3.796356  
     308A      3.870960   309A      3.987634   310A      4.009527  
     311A      4.019818   312A      4.068800   313A      4.121569  
     314A      4.191391   315A      4.326420   316A      4.365282  
     317A      4.513417   318A      4.653151   319A      4.893732  
     320A      4.906927   321A      5.159971   322A      5.199638  
     323A      5.398434   324A      5.923941   325A     23.491119  
     326A     23.721002   327A     23.947806   328A     23.985348  
     329A     24.033368   330A     24.066166   331A     24.172291  
     332A     24.199538   333A     24.273580   334A     24.308626  
     335A     24.343837   336A     35.668071   337A     35.671352  
     338A     50.219191  

    Final Occupation by Irrep:
              A 
    DOCC [    49 ]

  @DF-RKS Final Energy:  -609.85679089285816

   => Energetics <=

    Nuclear Repulsion Energy =            820.7245749734593119
    One-Electron Energy =               -2454.5116732786118519
    Two-Electron Energy =                1083.2775621823655001
    DFT Exchange-Correlation Energy =     -59.3331106629153879
    Empirical Dispersion Energy =          -0.0141441071556668
    VV10 Nonlocal Energy =                  0.0000000000000000
    Total Energy =                       -609.8567908928580437

Computation Completed


Properties will be evaluated at   0.000000,   0.000000,   0.000000 [a0]

Properties computed using the SCF density matrix


 Multipole Moments:

 ------------------------------------------------------------------------------------
     Multipole            Electronic (a.u.)      Nuclear  (a.u.)        Total (a.u.)
 ------------------------------------------------------------------------------------

 L = 1.  Multiply by 2.5417464519 to convert [e a0] to [Debye]
 Dipole X            :          2.8504076           -3.5156540           -0.6652464
 Dipole Y            :          3.9855236           -4.7514360           -0.7659124
 Dipole Z            :          2.0177301           -2.7684134           -0.7506834
 Magnitude           :                                                    1.2620222

 ------------------------------------------------------------------------------------

*** tstop() called on node165.bme.utexas.edu at Sat Nov 18 08:49:35 2023
Module time:
	user time   =     102.37 seconds =       1.71 minutes
	system time =       4.96 seconds =       0.08 minutes
	total time  =         23 seconds =       0.38 minutes
Total time:
	user time   =     102.37 seconds =       1.71 minutes
	system time =       4.96 seconds =       0.08 minutes
	total time  =         23 seconds =       0.38 minutes


Properties will be evaluated at   0.000000,   0.000000,   0.000000 [a0]
OEProp: No title given, name of density matrix used for the following properties is 'SCF density'


  Wiberg Bond Indices using Orthogonal Lowdin Orbitals:

  Irrep: 1 Size: 24 x 24

                 1                   2                   3                   4                   5

    1     0.00000000000000     1.47951096400306     0.11627776445141     0.04241268487233     0.19327682696706
    2     1.47951096400306     0.00000000000000     1.00745542657238     0.12419581974457     1.46407843080446
    3     0.11627776445141     1.00745542657238     0.00000000000000     1.41847320117129     0.11810193755782
    4     0.04241268487233     0.12419581974457     1.41847320117129     0.00000000000000     0.03063610256862
    5     0.19327682696706     1.46407843080446     0.11810193755782     0.03063610256862     0.00000000000000
    6     0.02667132153291     0.12400443124313     1.42133580169327     0.13135661739766     0.04042856968438
    7     0.78520143857838     0.04760308762035     0.00931588091830     0.00137257981615     0.01477012029846
    8     0.02281427228194     0.11366770241374     0.03585978211097     0.01172848632775     1.15597529142710
    9     0.00511402775675     0.01800329588026     0.00284558606091     0.00084485661119     0.13410108907540
   10     0.06520351186148     0.13485044088481     0.01526348854907     0.00387198404517     1.07274438318994
   11     0.02857906159447     0.07495416468600     0.00618925682354     0.00205817994747     0.16898668323353
   12     0.00322028712937     0.01665603758242     0.13698463143133     0.14702382160773     0.00464512933768
   13     0.00425002199954     0.01699256825882     0.13704164770687     1.52202120686542     0.00418229357163
   14     0.00447829354146     0.01119442113734     0.13828161284981     0.14057173239956     0.00440922042195
   15     0.00148459508754     0.01789839245229     0.05683751415178     0.00963454934139     0.00660942188302
   16     0.00505485773362     0.01768775869518     0.05672890402209     0.81183498734710     0.00353396168935
   17     0.00029463598431     0.00163916335701     0.00047942769695     0.00012534587295     0.01187155183489
   18     0.10445612641219     0.08097001916550     0.00485724894164     0.00205196019810     0.14460688815017
   19     0.00028113891441     0.00125499321307     0.01074013367758     0.00251402589068     0.00024789798797
   20     0.00013917650637     0.00124533117108     0.01073696049774     0.06080823674167     0.00037896231984
   21     0.00005381455830     0.00028103956976     0.00299518270162     0.01133973670498     0.00005849098718
   22     0.00019724557673     0.01107963925291     0.00913650531012     0.00281685662974     0.05015447729320
   23     0.00042667977110     0.00172793688277     0.00033823945371     0.00008758185485     0.01387398928880
   24     0.83723303016812     0.04998771031783     0.01457953449463     0.00388031320674     0.01229029710298

                 6                   7                   8                   9                  10

    1     0.02667132153291     0.78520143857838     0.02281427228194     0.00511402775675     0.06520351186148
    2     0.12400443124313     0.04760308762035     0.11366770241374     0.01800329588026     0.13485044088481
    3     1.42133580169327     0.00931588091830     0.03585978211097     0.00284558606091     0.01526348854907
    4     0.13135661739766     0.00137257981615     0.01172848632775     0.00084485661119     0.00387198404517
    5     0.04042856968438     0.01477012029846     1.15597529142710     0.13410108907540     1.07274438318994
    6     0.00000000000000     0.00123898226546     0.02177035914063     0.00127515692735     0.00452675301269
    7     0.00123898226546     0.00000000000000     0.00123916058928     0.00114124868375     0.01260405966330
    8     0.02177035914063     0.00123916058928     0.00000000000000     0.19931817182342     0.13589414075043
    9     0.00127515692735     0.00114124868375     0.19931817182342     0.00000000000000     1.33989573241648
   10     0.00452675301269     0.01260405966330     0.13589414075043     1.33989573241648     0.00000000000000
   11     0.00341768840240     0.00050901888927     1.80020037238565     1.27658914928173     0.14111728346608
   12     1.51916133418840     0.00029036345521     0.00355396350004     0.00030026481524     0.00069732838012
   13     0.14636828889557     0.00016945493477     0.00197800075050     0.00021319308190     0.00065018796566
   14     0.14055064087621     0.00035694511760     0.00153397845542     0.00015761760154     0.00083131049046
   15     0.80967603968309     0.00002991202964     0.00324311616639     0.00011097902418     0.00048121766805
   16     0.00963933119236     0.00005736000388     0.00086517247413     0.00004341471780     0.00020942660717
   17     0.00012300839165     0.00011908928531     0.01092520589134     0.80557741492560     0.04386970172449
   18     0.00218313148069     0.05215301942919     0.02307751978258     0.21834518293707     2.09950704166147
   19     0.06081395102654     0.00001601541068     0.00007873903652     0.00001251728998     0.00004633616508
   20     0.00251573957855     0.00000615788896     0.00007318431562     0.00001386816890     0.00007874219018
   21     0.01135520323677     0.00000950791860     0.00001648355957     0.00000423475481     0.00001442719662
   22     0.00596053145710     0.00005253756159     0.81471640751318     0.01107407745298     0.00983845959439
   23     0.00012440503764     0.00019340770118     0.05896701071175     0.05650611428052     0.01240221154621
   24     0.00278942137493     0.01189105847680     0.00124315039140     0.00020377493398     0.00250830231298

                11                  12                  13                  14                  15

    1     0.02857906159447     0.00322028712937     0.00425002199954     0.00447829354146     0.00148459508754
    2     0.07495416468600     0.01665603758242     0.01699256825882     0.01119442113734     0.01789839245229
    3     0.00618925682354     0.13698463143133     0.13704164770687     0.13828161284981     0.05683751415178
    4     0.00205817994747     0.14702382160773     1.52202120686542     0.14057173239956     0.00963454934139
    5     0.16898668323353     0.00464512933768     0.00418229357163     0.00440922042195     0.00660942188302
    6     0.00341768840240     1.51916133418840     0.14636828889557     0.14055064087621     0.80967603968309
    7     0.00050901888927     0.00029036345521     0.00016945493477     0.00035694511760     0.00002991202964
    8     1.80020037238565     0.00355396350004     0.00197800075050     0.00153397845542     0.00324311616639
    9     1.27658914928173     0.00030026481524     0.00021319308190     0.00015761760154     0.00011097902418
   10     0.14111728346608     0.00069732838012     0.00065018796566     0.00083131049046     0.00048121766805
   11     0.00000000000000     0.00047937901041     0.00038822315341     0.00046506825002     0.00029741892728
   12     0.00047937901041     0.00000000000000     0.13945854277169     1.52160693277927     0.05630954209298
   13     0.00038822315341     0.13945854277169     0.00000000000000     1.51907762434482     0.00225084520782
   14     0.00046506825002     1.52160693277927     1.51907762434482     0.00000000000000     0.01061929134306
   15     0.00029741892728     0.05630954209298     0.00225084520782     0.01061929134306     0.00000000000000
   16     0.00004482927058     0.00229688195938     0.05652693404723     0.01067565551373     0.00032958759807
   17     0.04268720567500     0.00001983706923     0.00002088582718     0.00004822188477     0.00000230132807
   18     0.02508199012666     0.00034640434780     0.00039339450630     0.00036774976247     0.00020370486568
   19     0.00002981627644     0.83147763396940     0.01132096199732     0.05969866970509     0.00530815708138
   20     0.00005769965001     0.01131758258346     0.83148878679253     0.05968975238481     0.00027097623258
   21     0.00000590931220     0.05970178462453     0.05969592471056     0.83344593410136     0.00023545436771
   22     0.05991143565093     0.00096879888459     0.00051656985035     0.00045295427169     0.00045228089762
   23     0.83325965310457     0.00001700623655     0.00001854884961     0.00000809536328     0.00000605416416
   24     0.00119325009108     0.00026627004544     0.00031416360119     0.00048629702284     0.00005467219965

                16                  17                  18                  19                  20

    1     0.00505485773362     0.00029463598431     0.10445612641219     0.00028113891441     0.00013917650637
    2     0.01768775869518     0.00163916335701     0.08097001916550     0.00125499321307     0.00124533117108
    3     0.05672890402209     0.00047942769695     0.00485724894164     0.01074013367758     0.01073696049774
    4     0.81183498734710     0.00012534587295     0.00205196019810     0.00251402589068     0.06080823674167
    5     0.00353396168935     0.01187155183489     0.14460688815017     0.00024789798797     0.00037896231984
    6     0.00963933119236     0.00012300839165     0.00218313148069     0.06081395102654     0.00251573957855
    7     0.00005736000388     0.00011908928531     0.05215301942919     0.00001601541068     0.00000615788896
    8     0.00086517247413     0.01092520589134     0.02307751978258     0.00007873903652     0.00007318431562
    9     0.00004341471780     0.80557741492560     0.21834518293707     0.00001251728998     0.00001386816890
   10     0.00020942660717     0.04386970172449     2.09950704166147     0.00004633616508     0.00007874219018
   11     0.00004482927058     0.04268720567500     0.02508199012666     0.00002981627644     0.00005769965001
   12     0.00229688195938     0.00001983706923     0.00034640434780     0.83147763396940     0.01131758258346
   13     0.05652693404723     0.00002088582718     0.00039339450630     0.01132096199732     0.83148878679253
   14     0.01067565551373     0.00004822188477     0.00036774976247     0.05969866970509     0.05968975238481
   15     0.00032958759807     0.00000230132807     0.00020370486568     0.00530815708138     0.00027097623258
   16     0.00000000000000     0.00000267061373     0.00011771705618     0.00026767129407     0.00530554715784
   17     0.00000267061373     0.00000000000000     0.01019445836313     0.00000047852931     0.00000050497785
   18     0.00011771705618     0.01019445836313     0.00000000000000     0.00003210291438     0.00005185770739
   19     0.00026767129407     0.00000047852931     0.00003210291438     0.00000000000000     0.00024044324388
   20     0.00530554715784     0.00000050497785     0.00005185770739     0.00024044324388     0.00000000000000
   21     0.00023569964242     0.00000056101377     0.00000441338554     0.00541557138451     0.00541339415664
   22     0.00010348712179     0.00043111329325     0.00201713443569     0.00000687854628     0.00000104731845
   23     0.00000755308615     0.00317075342497     0.00166780143387     0.00000241347237     0.00000135774474
   24     0.00011704545031     0.00001631335165     0.00139651278563     0.00002666707352     0.00002754603103

                21                  22                  23                  24

    1     0.00005381455830     0.00019724557673     0.00042667977110     0.83723303016812
    2     0.00028103956976     0.01107963925291     0.00172793688277     0.04998771031783
    3     0.00299518270162     0.00913650531012     0.00033823945371     0.01457953449463
    4     0.01133973670498     0.00281685662974     0.00008758185485     0.00388031320674
    5     0.00005849098718     0.05015447729320     0.01387398928880     0.01229029710298
    6     0.01135520323677     0.00596053145710     0.00012440503764     0.00278942137493
    7     0.00000950791860     0.00005253756159     0.00019340770118     0.01189105847680
    8     0.00001648355957     0.81471640751318     0.05896701071175     0.00124315039140
    9     0.00000423475481     0.01107407745298     0.05650611428052     0.00020377493398
   10     0.00001442719662     0.00983845959439     0.01240221154621     0.00250830231298
   11     0.00000590931220     0.05991143565093     0.83325965310457     0.00119325009108
   12     0.05970178462453     0.00096879888459     0.00001700623655     0.00026627004544
   13     0.05969592471056     0.00051656985035     0.00001854884961     0.00031416360119
   14     0.83344593410136     0.00045295427169     0.00000809536328     0.00048629702284
   15     0.00023545436771     0.00045228089762     0.00000605416416     0.00005467219965
   16     0.00023569964242     0.00010348712179     0.00000755308615     0.00011704545031
   17     0.00000056101377     0.00043111329325     0.00317075342497     0.00001631335165
   18     0.00000441338554     0.00201713443569     0.00166780143387     0.00139651278563
   19     0.00541557138451     0.00000687854628     0.00000241347237     0.00002666707352
   20     0.00541339415664     0.00000104731845     0.00000135774474     0.00002754603103
   21     0.00000000000000     0.00000227622040     0.00000054255221     0.00000839516829
   22     0.00000227622040     0.00000000000000     0.00251411244794     0.00008165349727
   23     0.00000054255221     0.00251411244794     0.00000000000000     0.00001830896469
   24     0.00000839516829     0.00008165349727     0.00001830896469     0.00000000000000



  Atomic Valences: 

 #  #
 Irrep: 1
      1:    3.726631777282842
      2:    4.816938774908749
      3:    4.730855668844841
      4:    4.481660867163106
      5:    4.649962016675418
      6:    4.487286707719383
      7:    0.940340406536116
      8:    4.418739671799357
      9:    4.071690968501758
     10:    5.097106471342340
     11:    4.466502737208720
     12:    4.456799757802279
     13:    4.455338269690702
     14:    4.459008019618569
     15:    0.982346023793416
     16:    0.981686454294164
     17:    0.931619850316416
     18:    2.774083379849305
     19:    0.989833214100466
     20:    0.989862855360113
     21:    0.990293981828346
     22:    0.982486480078208
     23:    0.985339777373628
     24:    0.940613688062986


    Psi4 stopped on: Saturday, 18 November 2023 08:49AM
    Psi4 wall time for execution: 0:00:23.84

*** Psi4 exiting successfully. Buy a developer a beer!
