24
 energy: -38.553449869228 gnorm: 0.000962629563 xtb: 6.5.0 (97a52f5)
N            2.06985894202603       -0.41897409814117       -0.06852821371875
C            0.74303291937611       -0.15772570495335       -0.02431099043676
C           -0.17929506802390       -1.27139744508320       -0.29002163110506
C           -1.29878801267059       -1.09741445037004       -1.10027497086906
C            0.30905590928212        1.09256459716737        0.34270965471545
C            0.08517295571652       -2.53225726382239        0.24125305180481
H            2.65672790612475        0.41232833696094        0.01225962771121
C           -1.01086786702435        1.59495559752737        0.61818164493395
N            0.43063957246491        3.29530123515825        0.80204942843295
C            1.22255870199689        2.22273931371623        0.49643812941006
C           -0.89646916004019        2.90886014642408        0.89282359635439
C           -0.76976936988165       -3.58921624572172       -0.00946690838463
C           -2.14610591097054       -2.15979719226301       -1.35519049398828
C           -1.88708775422374       -3.40574970930189       -0.80752899444954
H            0.95135015961019       -2.66942280681855        0.87199771049292
H           -1.48877604694346       -0.13018522662492       -1.54037576029988
H            0.77967240095675        4.22092995754149        0.98533575855005
O            2.44502737941592        2.25694332898266        0.35876390958226
H           -0.56389160943321       -4.55961458946493        0.41804059543130
H           -3.01042552851581       -2.01702044237844       -1.98711443723708
H           -2.55264443548654       -4.23293752710627       -1.00509830464541
H           -1.91084055558140        1.01321303232847        0.62763427434942
H           -1.65224846155766        3.62551093956267        1.15125137532798
H            2.39849892338137       -1.16422379331873       -0.65998707196269
