Generated by Psi4
        SP                        DF-MP2                      6-311G**
Number of atoms                            I               24
Charge                                     I                0
Multiplicity                               I                1
Number of electrons                        I               98
Number of alpha electrons                  I               49
Number of beta electrons                   I               49
Number of basis functions                  I              312
Number of independent functions            I              312
Atomic numbers                             I   N=          24
           1           7           6           6           6           6
           6           7           6           6           6           6
           6           6           1           1           1           8
           1           1           1           1           1           1
Nuclear charges                            R   N=          24
  1.00000000e+00  7.00000000e+00  6.00000000e+00  6.00000000e+00  6.00000000e+00
  6.00000000e+00  6.00000000e+00  7.00000000e+00  6.00000000e+00  6.00000000e+00
  6.00000000e+00  6.00000000e+00  6.00000000e+00  6.00000000e+00  1.00000000e+00
  1.00000000e+00  1.00000000e+00  8.00000000e+00  1.00000000e+00  1.00000000e+00
  1.00000000e+00  1.00000000e+00  1.00000000e+00  1.00000000e+00
Current cartesian coordinates              R   N=          72
  6.59873847e-01  1.04535664e+00 -1.70662270e+00  5.98025328e-01 -1.73313575e-01
 -1.91532604e-01  2.62891062e+00 -1.80978742e+00  2.51221794e-01  4.97508424e+00
 -1.20193451e+00 -8.13224842e-01 -1.52402605e+00  3.72095640e-02  1.20770378e+00
  2.37183028e+00 -4.02655302e+00  1.67455330e+00 -3.43757171e+00  1.65526453e+00
  5.49700629e-01 -5.47457965e+00  4.65316050e+00 -1.67988624e+00 -5.80307700e+00
  2.20455143e+00  1.78859411e+00 -3.25947025e+00  3.27453751e+00 -1.68844598e+00
 -6.98606263e+00  4.00533404e+00  3.87751328e-01  4.46800627e+00 -5.56703123e+00
  2.07728434e+00  7.04574879e+00 -2.77633112e+00 -4.30832313e-01  6.80949282e+00
 -4.95835420e+00  1.03064555e+00  5.40935120e-01 -4.58450832e+00  2.41501068e+00
  5.16324703e+00  5.22129014e-01 -1.91726946e+00 -5.89292613e+00  5.94242548e+00
 -3.02733274e+00 -1.51726492e+00  3.43681235e+00 -3.27312128e+00  4.25219727e+00
 -7.28292468e+00  3.18583024e+00  8.85563214e+00 -2.28268598e+00 -1.26703700e+00
 -6.52885184e+00  1.33613068e+00  3.49170091e+00 -8.79585631e+00  4.91194957e+00
  6.70776112e-01  8.42985379e+00 -6.18033830e+00  1.33874577e+00 -1.63472715e+00
 -1.11340685e+00  2.90802116e+00
Integer atomic weights                     I   N=          24
           1          14          12          12          12          12
          12          14          12          12          12          12
          12          12           1           1           1          16
           1           1           1           1           1           1
Real atomic weights                        R   N=          24
  1.00782503e+00  1.40030740e+01  1.20000000e+01  1.20000000e+01  1.20000000e+01
  1.20000000e+01  1.20000000e+01  1.40030740e+01  1.20000000e+01  1.20000000e+01
  1.20000000e+01  1.20000000e+01  1.20000000e+01  1.20000000e+01  1.00782503e+00
  1.00782503e+00  1.00782503e+00  1.59949146e+01  1.00782503e+00  1.00782503e+00
  1.00782503e+00  1.00782503e+00  1.00782503e+00  1.00782503e+00
Number of primitive shells                 I              298
Number of contracted shells                I              152
Pure/Cartesian d shells                    I                0
Pure/Cartesian f shells                    I                0
Highest angular momentum                   I                2
Largest degree of contraction              I                6
Shell types                                I   N=         152
           0           0           0           1           0           0
           1           0           1           0           1          -2
           0           0           1           0           1           0
           1          -2           0           0           1           0
           1           0           1          -2           0           0
           1           0           1           0           1          -2
           0           0           1           0           1           0
           1          -2           0           0           1           0
           1           0           1          -2           0           0
           1           0           1           0           1          -2
           0           0           1           0           1           0
           1          -2           0           0           1           0
           1           0           1          -2           0           0
           1           0           1           0           1          -2
           0           0           1           0           1           0
           1          -2           0           0           1           0
           1           0           1          -2           0           0
           1           0           1           0           1          -2
           0           0           0           1           0           0
           0           1           0           0           0           1
           0           0           1           0           1           0
           1          -2           0           0           0           1
           0           0           0           1           0           0
           0           1           0           0           0           1
           0           0           0           1           0           0
           0           1
Number of primitives per shell             I   N=         152
           3           1           1           1           6           3
           3           1           1           1           1           1
           6           3           3           1           1           1
           1           1           6           3           3           1
           1           1           1           1           6           3
           3           1           1           1           1           1
           6           3           3           1           1           1
           1           1           6           3           3           1
           1           1           1           1           6           3
           3           1           1           1           1           1
           6           3           3           1           1           1
           1           1           6           3           3           1
           1           1           1           1           6           3
           3           1           1           1           1           1
           6           3           3           1           1           1
           1           1           6           3           3           1
           1           1           1           1           6           3
           3           1           1           1           1           1
           3           1           1           1           3           1
           1           1           3           1           1           1
           6           3           3           1           1           1
           1           1           3           1           1           1
           3           1           1           1           3           1
           1           1           3           1           1           1
           3           1           1           1           3           1
           1           1
Shell to atom map                          I   N=         152
           1           1           1           1           2           2
           2           2           2           2           2           2
           3           3           3           3           3           3
           3           3           4           4           4           4
           4           4           4           4           5           5
           5           5           5           5           5           5
           6           6           6           6           6           6
           6           6           7           7           7           7
           7           7           7           7           8           8
           8           8           8           8           8           8
           9           9           9           9           9           9
           9           9          10          10          10          10
          10          10          10          10          11          11
          11          11          11          11          11          11
          12          12          12          12          12          12
          12          12          13          13          13          13
          13          13          13          13          14          14
          14          14          14          14          14          14
          15          15          15          15          16          16
          16          16          17          17          17          17
          18          18          18          18          18          18
          18          18          19          19          19          19
          20          20          20          20          21          21
          21          21          22          22          22          22
          23          23          23          23          24          24
          24          24
Primitive exponents                        R   N=         298
  3.38650000e+01  5.09479000e+00  1.15879000e+00  3.25840000e-01  1.02741000e-01
  7.50000000e-01  6.29348000e+03  9.49044000e+02  2.18776000e+02  6.36916000e+01
  1.88282000e+01  2.72023000e+00  3.06331000e+01  7.02614000e+00  2.11205000e+00
  3.06331000e+01  7.02614000e+00  2.11205000e+00  6.84009000e-01  6.84009000e-01
  2.00878000e-01  2.00878000e-01  9.13000000e-01  4.56324000e+03  6.82024000e+02
  1.54973000e+02  4.44553000e+01  1.30290000e+01  1.82773000e+00  2.09642000e+01
  4.80331000e+00  1.45933000e+00  2.09642000e+01  4.80331000e+00  1.45933000e+00
  4.83456000e-01  4.83456000e-01  1.45585000e-01  1.45585000e-01  6.26000000e-01
  4.56324000e+03  6.82024000e+02  1.54973000e+02  4.44553000e+01  1.30290000e+01
  1.82773000e+00  2.09642000e+01  4.80331000e+00  1.45933000e+00  2.09642000e+01
  4.80331000e+00  1.45933000e+00  4.83456000e-01  4.83456000e-01  1.45585000e-01
  1.45585000e-01  6.26000000e-01  4.56324000e+03  6.82024000e+02  1.54973000e+02
  4.44553000e+01  1.30290000e+01  1.82773000e+00  2.09642000e+01  4.80331000e+00
  1.45933000e+00  2.09642000e+01  4.80331000e+00  1.45933000e+00  4.83456000e-01
  4.83456000e-01  1.45585000e-01  1.45585000e-01  6.26000000e-01  4.56324000e+03
  6.82024000e+02  1.54973000e+02  4.44553000e+01  1.30290000e+01  1.82773000e+00
  2.09642000e+01  4.80331000e+00  1.45933000e+00  2.09642000e+01  4.80331000e+00
  1.45933000e+00  4.83456000e-01  4.83456000e-01  1.45585000e-01  1.45585000e-01
  6.26000000e-01  4.56324000e+03  6.82024000e+02  1.54973000e+02  4.44553000e+01
  1.30290000e+01  1.82773000e+00  2.09642000e+01  4.80331000e+00  1.45933000e+00
  2.09642000e+01  4.80331000e+00  1.45933000e+00  4.83456000e-01  4.83456000e-01
  1.45585000e-01  1.45585000e-01  6.26000000e-01  6.29348000e+03  9.49044000e+02
  2.18776000e+02  6.36916000e+01  1.88282000e+01  2.72023000e+00  3.06331000e+01
  7.02614000e+00  2.11205000e+00  3.06331000e+01  7.02614000e+00  2.11205000e+00
  6.84009000e-01  6.84009000e-01  2.00878000e-01  2.00878000e-01  9.13000000e-01
  4.56324000e+03  6.82024000e+02  1.54973000e+02  4.44553000e+01  1.30290000e+01
  1.82773000e+00  2.09642000e+01  4.80331000e+00  1.45933000e+00  2.09642000e+01
  4.80331000e+00  1.45933000e+00  4.83456000e-01  4.83456000e-01  1.45585000e-01
  1.45585000e-01  6.26000000e-01  4.56324000e+03  6.82024000e+02  1.54973000e+02
  4.44553000e+01  1.30290000e+01  1.82773000e+00  2.09642000e+01  4.80331000e+00
  1.45933000e+00  2.09642000e+01  4.80331000e+00  1.45933000e+00  4.83456000e-01
  4.83456000e-01  1.45585000e-01  1.45585000e-01  6.26000000e-01  4.56324000e+03
  6.82024000e+02  1.54973000e+02  4.44553000e+01  1.30290000e+01  1.82773000e+00
  2.09642000e+01  4.80331000e+00  1.45933000e+00  2.09642000e+01  4.80331000e+00
  1.45933000e+00  4.83456000e-01  4.83456000e-01  1.45585000e-01  1.45585000e-01
  6.26000000e-01  4.56324000e+03  6.82024000e+02  1.54973000e+02  4.44553000e+01
  1.30290000e+01  1.82773000e+00  2.09642000e+01  4.80331000e+00  1.45933000e+00
  2.09642000e+01  4.80331000e+00  1.45933000e+00  4.83456000e-01  4.83456000e-01
  1.45585000e-01  1.45585000e-01  6.26000000e-01  4.56324000e+03  6.82024000e+02
  1.54973000e+02  4.44553000e+01  1.30290000e+01  1.82773000e+00  2.09642000e+01
  4.80331000e+00  1.45933000e+00  2.09642000e+01  4.80331000e+00  1.45933000e+00
  4.83456000e-01  4.83456000e-01  1.45585000e-01  1.45585000e-01  6.26000000e-01
  4.56324000e+03  6.82024000e+02  1.54973000e+02  4.44553000e+01  1.30290000e+01
  1.82773000e+00  2.09642000e+01  4.80331000e+00  1.45933000e+00  2.09642000e+01
  4.80331000e+00  1.45933000e+00  4.83456000e-01  4.83456000e-01  1.45585000e-01
  1.45585000e-01  6.26000000e-01  3.38650000e+01  5.09479000e+00  1.15879000e+00
  3.25840000e-01  1.02741000e-01  7.50000000e-01  3.38650000e+01  5.09479000e+00
  1.15879000e+00  3.25840000e-01  1.02741000e-01  7.50000000e-01  3.38650000e+01
  5.09479000e+00  1.15879000e+00  3.25840000e-01  1.02741000e-01  7.50000000e-01
  8.58850000e+03  1.29723000e+03  2.99296000e+02  8.73771000e+01  2.56789000e+01
  3.74004000e+00  4.21175000e+01  9.62837000e+00  2.85332000e+00  4.21175000e+01
  9.62837000e+00  2.85332000e+00  9.05661000e-01  9.05661000e-01  2.55611000e-01
  2.55611000e-01  1.29200000e+00  3.38650000e+01  5.09479000e+00  1.15879000e+00
  3.25840000e-01  1.02741000e-01  7.50000000e-01  3.38650000e+01  5.09479000e+00
  1.15879000e+00  3.25840000e-01  1.02741000e-01  7.50000000e-01  3.38650000e+01
  5.09479000e+00  1.15879000e+00  3.25840000e-01  1.02741000e-01  7.50000000e-01
  3.38650000e+01  5.09479000e+00  1.15879000e+00  3.25840000e-01  1.02741000e-01
  7.50000000e-01  3.38650000e+01  5.09479000e+00  1.15879000e+00  3.25840000e-01
  1.02741000e-01  7.50000000e-01  3.38650000e+01  5.09479000e+00  1.15879000e+00
  3.25840000e-01  1.02741000e-01  7.50000000e-01
Contraction coefficients                   R   N=         298
  2.54938145e-02  1.90373109e-01  8.52161486e-01  1.00000000e+00  1.00000000e+00
  1.00000000e+00  1.96978815e-03  1.49612859e-02  7.35005308e-02  2.48936766e-01
  6.02459433e-01  2.56201759e-01  1.11906080e-01  9.21666655e-01 -2.56919183e-03
  3.83119186e-02  2.37403116e-01  8.17592398e-01  1.00000000e+00  1.00000000e+00
  1.00000000e+00  1.00000000e+00  1.00000000e+00  1.96665025e-03  1.52306019e-02
  7.61269097e-02  2.60801033e-01  6.16462078e-01  2.21006028e-01  1.14660081e-01
  9.19999648e-01 -3.03068213e-03  4.02486927e-02  2.37593957e-01  8.15853851e-01
  1.00000000e+00  1.00000000e+00  1.00000000e+00  1.00000000e+00  1.00000000e+00
  1.96665025e-03  1.52306019e-02  7.61269097e-02  2.60801033e-01  6.16462078e-01
  2.21006028e-01  1.14660081e-01  9.19999648e-01 -3.03068213e-03  4.02486927e-02
  2.37593957e-01  8.15853851e-01  1.00000000e+00  1.00000000e+00  1.00000000e+00
  1.00000000e+00  1.00000000e+00  1.96665025e-03  1.52306019e-02  7.61269097e-02
  2.60801033e-01  6.16462078e-01  2.21006028e-01  1.14660081e-01  9.19999648e-01
 -3.03068213e-03  4.02486927e-02  2.37593957e-01  8.15853851e-01  1.00000000e+00
  1.00000000e+00  1.00000000e+00  1.00000000e+00  1.00000000e+00  1.96665025e-03
  1.52306019e-02  7.61269097e-02  2.60801033e-01  6.16462078e-01  2.21006028e-01
  1.14660081e-01  9.19999648e-01 -3.03068213e-03  4.02486927e-02  2.37593957e-01
  8.15853851e-01  1.00000000e+00  1.00000000e+00  1.00000000e+00  1.00000000e+00
  1.00000000e+00  1.96665025e-03  1.52306019e-02  7.61269097e-02  2.60801033e-01
  6.16462078e-01  2.21006028e-01  1.14660081e-01  9.19999648e-01 -3.03068213e-03
  4.02486927e-02  2.37593957e-01  8.15853851e-01  1.00000000e+00  1.00000000e+00
  1.00000000e+00  1.00000000e+00  1.00000000e+00  1.96978815e-03  1.49612859e-02
  7.35005308e-02  2.48936766e-01  6.02459433e-01  2.56201759e-01  1.11906080e-01
  9.21666655e-01 -2.56919183e-03  3.83119186e-02  2.37403116e-01  8.17592398e-01
  1.00000000e+00  1.00000000e+00  1.00000000e+00  1.00000000e+00  1.00000000e+00
  1.96665025e-03  1.52306019e-02  7.61269097e-02  2.60801033e-01  6.16462078e-01
  2.21006028e-01  1.14660081e-01  9.19999648e-01 -3.03068213e-03  4.02486927e-02
  2.37593957e-01  8.15853851e-01  1.00000000e+00  1.00000000e+00  1.00000000e+00
  1.00000000e+00  1.00000000e+00  1.96665025e-03  1.52306019e-02  7.61269097e-02
  2.60801033e-01  6.16462078e-01  2.21006028e-01  1.14660081e-01  9.19999648e-01
 -3.03068213e-03  4.02486927e-02  2.37593957e-01  8.15853851e-01  1.00000000e+00
  1.00000000e+00  1.00000000e+00  1.00000000e+00  1.00000000e+00  1.96665025e-03
  1.52306019e-02  7.61269097e-02  2.60801033e-01  6.16462078e-01  2.21006028e-01
  1.14660081e-01  9.19999648e-01 -3.03068213e-03  4.02486927e-02  2.37593957e-01
  8.15853851e-01  1.00000000e+00  1.00000000e+00  1.00000000e+00  1.00000000e+00
  1.00000000e+00  1.96665025e-03  1.52306019e-02  7.61269097e-02  2.60801033e-01
  6.16462078e-01  2.21006028e-01  1.14660081e-01  9.19999648e-01 -3.03068213e-03
  4.02486927e-02  2.37593957e-01  8.15853851e-01  1.00000000e+00  1.00000000e+00
  1.00000000e+00  1.00000000e+00  1.00000000e+00  1.96665025e-03  1.52306019e-02
  7.61269097e-02  2.60801033e-01  6.16462078e-01  2.21006028e-01  1.14660081e-01
  9.19999648e-01 -3.03068213e-03  4.02486927e-02  2.37593957e-01  8.15853851e-01
  1.00000000e+00  1.00000000e+00  1.00000000e+00  1.00000000e+00  1.00000000e+00
  1.96665025e-03  1.52306019e-02  7.61269097e-02  2.60801033e-01  6.16462078e-01
  2.21006028e-01  1.14660081e-01  9.19999648e-01 -3.03068213e-03  4.02486927e-02
  2.37593957e-01  8.15853851e-01  1.00000000e+00  1.00000000e+00  1.00000000e+00
  1.00000000e+00  1.00000000e+00  2.54938145e-02  1.90373109e-01  8.52161486e-01
  1.00000000e+00  1.00000000e+00  1.00000000e+00  2.54938145e-02  1.90373109e-01
  8.52161486e-01  1.00000000e+00  1.00000000e+00  1.00000000e+00  2.54938145e-02
  1.90373109e-01  8.52161486e-01  1.00000000e+00  1.00000000e+00  1.00000000e+00
  1.89515008e-03  1.43859006e-02  7.07320031e-02  2.40001011e-01  5.94797026e-01
  2.80802012e-01  1.13889012e-01  9.20811101e-01 -3.27447036e-03  3.65113974e-02
  2.37152983e-01  8.19701941e-01  1.00000000e+00  1.00000000e+00  1.00000000e+00
  1.00000000e+00  1.00000000e+00  2.54938145e-02  1.90373109e-01  8.52161486e-01
  1.00000000e+00  1.00000000e+00  1.00000000e+00  2.54938145e-02  1.90373109e-01
  8.52161486e-01  1.00000000e+00  1.00000000e+00  1.00000000e+00  2.54938145e-02
  1.90373109e-01  8.52161486e-01  1.00000000e+00  1.00000000e+00  1.00000000e+00
  2.54938145e-02  1.90373109e-01  8.52161486e-01  1.00000000e+00  1.00000000e+00
  1.00000000e+00  2.54938145e-02  1.90373109e-01  8.52161486e-01  1.00000000e+00
  1.00000000e+00  1.00000000e+00  2.54938145e-02  1.90373109e-01  8.52161486e-01
  1.00000000e+00  1.00000000e+00  1.00000000e+00
Coordinates of each shell                  R   N=         456
  6.59873847e-01  1.04535664e+00 -1.70662270e+00  6.59873847e-01  1.04535664e+00
 -1.70662270e+00  6.59873847e-01  1.04535664e+00 -1.70662270e+00  6.59873847e-01
  1.04535664e+00 -1.70662270e+00  5.98025328e-01 -1.73313575e-01 -1.91532604e-01
  5.98025328e-01 -1.73313575e-01 -1.91532604e-01  5.98025328e-01 -1.73313575e-01
 -1.91532604e-01  5.98025328e-01 -1.73313575e-01 -1.91532604e-01  5.98025328e-01
 -1.73313575e-01 -1.91532604e-01  5.98025328e-01 -1.73313575e-01 -1.91532604e-01
  5.98025328e-01 -1.73313575e-01 -1.91532604e-01  5.98025328e-01 -1.73313575e-01
 -1.91532604e-01  2.62891062e+00 -1.80978742e+00  2.51221794e-01  2.62891062e+00
 -1.80978742e+00  2.51221794e-01  2.62891062e+00 -1.80978742e+00  2.51221794e-01
  2.62891062e+00 -1.80978742e+00  2.51221794e-01  2.62891062e+00 -1.80978742e+00
  2.51221794e-01  2.62891062e+00 -1.80978742e+00  2.51221794e-01  2.62891062e+00
 -1.80978742e+00  2.51221794e-01  2.62891062e+00 -1.80978742e+00  2.51221794e-01
  4.97508424e+00 -1.20193451e+00 -8.13224842e-01  4.97508424e+00 -1.20193451e+00
 -8.13224842e-01  4.97508424e+00 -1.20193451e+00 -8.13224842e-01  4.97508424e+00
 -1.20193451e+00 -8.13224842e-01  4.97508424e+00 -1.20193451e+00 -8.13224842e-01
  4.97508424e+00 -1.20193451e+00 -8.13224842e-01  4.97508424e+00 -1.20193451e+00
 -8.13224842e-01  4.97508424e+00 -1.20193451e+00 -8.13224842e-01 -1.52402605e+00
  3.72095640e-02  1.20770378e+00 -1.52402605e+00  3.72095640e-02  1.20770378e+00
 -1.52402605e+00  3.72095640e-02  1.20770378e+00 -1.52402605e+00  3.72095640e-02
  1.20770378e+00 -1.52402605e+00  3.72095640e-02  1.20770378e+00 -1.52402605e+00
  3.72095640e-02  1.20770378e+00 -1.52402605e+00  3.72095640e-02  1.20770378e+00
 -1.52402605e+00  3.72095640e-02  1.20770378e+00  2.37183028e+00 -4.02655302e+00
  1.67455330e+00  2.37183028e+00 -4.02655302e+00  1.67455330e+00  2.37183028e+00
 -4.02655302e+00  1.67455330e+00  2.37183028e+00 -4.02655302e+00  1.67455330e+00
  2.37183028e+00 -4.02655302e+00  1.67455330e+00  2.37183028e+00 -4.02655302e+00
  1.67455330e+00  2.37183028e+00 -4.02655302e+00  1.67455330e+00  2.37183028e+00
 -4.02655302e+00  1.67455330e+00 -3.43757171e+00  1.65526453e+00  5.49700629e-01
 -3.43757171e+00  1.65526453e+00  5.49700629e-01 -3.43757171e+00  1.65526453e+00
  5.49700629e-01 -3.43757171e+00  1.65526453e+00  5.49700629e-01 -3.43757171e+00
  1.65526453e+00  5.49700629e-01 -3.43757171e+00  1.65526453e+00  5.49700629e-01
 -3.43757171e+00  1.65526453e+00  5.49700629e-01 -3.43757171e+00  1.65526453e+00
  5.49700629e-01 -5.47457965e+00  4.65316050e+00 -1.67988624e+00 -5.47457965e+00
  4.65316050e+00 -1.67988624e+00 -5.47457965e+00  4.65316050e+00 -1.67988624e+00
 -5.47457965e+00  4.65316050e+00 -1.67988624e+00 -5.47457965e+00  4.65316050e+00
 -1.67988624e+00 -5.47457965e+00  4.65316050e+00 -1.67988624e+00 -5.47457965e+00
  4.65316050e+00 -1.67988624e+00 -5.47457965e+00  4.65316050e+00 -1.67988624e+00
 -5.80307700e+00  2.20455143e+00  1.78859411e+00 -5.80307700e+00  2.20455143e+00
  1.78859411e+00 -5.80307700e+00  2.20455143e+00  1.78859411e+00 -5.80307700e+00
  2.20455143e+00  1.78859411e+00 -5.80307700e+00  2.20455143e+00  1.78859411e+00
 -5.80307700e+00  2.20455143e+00  1.78859411e+00 -5.80307700e+00  2.20455143e+00
  1.78859411e+00 -5.80307700e+00  2.20455143e+00  1.78859411e+00 -3.25947025e+00
  3.27453751e+00 -1.68844598e+00 -3.25947025e+00  3.27453751e+00 -1.68844598e+00
 -3.25947025e+00  3.27453751e+00 -1.68844598e+00 -3.25947025e+00  3.27453751e+00
 -1.68844598e+00 -3.25947025e+00  3.27453751e+00 -1.68844598e+00 -3.25947025e+00
  3.27453751e+00 -1.68844598e+00 -3.25947025e+00  3.27453751e+00 -1.68844598e+00
 -3.25947025e+00  3.27453751e+00 -1.68844598e+00 -6.98606263e+00  4.00533404e+00
  3.87751328e-01 -6.98606263e+00  4.00533404e+00  3.87751328e-01 -6.98606263e+00
  4.00533404e+00  3.87751328e-01 -6.98606263e+00  4.00533404e+00  3.87751328e-01
 -6.98606263e+00  4.00533404e+00  3.87751328e-01 -6.98606263e+00  4.00533404e+00
  3.87751328e-01 -6.98606263e+00  4.00533404e+00  3.87751328e-01 -6.98606263e+00
  4.00533404e+00  3.87751328e-01  4.46800627e+00 -5.56703123e+00  2.07728434e+00
  4.46800627e+00 -5.56703123e+00  2.07728434e+00  4.46800627e+00 -5.56703123e+00
  2.07728434e+00  4.46800627e+00 -5.56703123e+00  2.07728434e+00  4.46800627e+00
 -5.56703123e+00  2.07728434e+00  4.46800627e+00 -5.56703123e+00  2.07728434e+00
  4.46800627e+00 -5.56703123e+00  2.07728434e+00  4.46800627e+00 -5.56703123e+00
  2.07728434e+00  7.04574879e+00 -2.77633112e+00 -4.30832313e-01  7.04574879e+00
 -2.77633112e+00 -4.30832313e-01  7.04574879e+00 -2.77633112e+00 -4.30832313e-01
  7.04574879e+00 -2.77633112e+00 -4.30832313e-01  7.04574879e+00 -2.77633112e+00
 -4.30832313e-01  7.04574879e+00 -2.77633112e+00 -4.30832313e-01  7.04574879e+00
 -2.77633112e+00 -4.30832313e-01  7.04574879e+00 -2.77633112e+00 -4.30832313e-01
  6.80949282e+00 -4.95835420e+00  1.03064555e+00  6.80949282e+00 -4.95835420e+00
  1.03064555e+00  6.80949282e+00 -4.95835420e+00  1.03064555e+00  6.80949282e+00
 -4.95835420e+00  1.03064555e+00  6.80949282e+00 -4.95835420e+00  1.03064555e+00
  6.80949282e+00 -4.95835420e+00  1.03064555e+00  6.80949282e+00 -4.95835420e+00
  1.03064555e+00  6.80949282e+00 -4.95835420e+00  1.03064555e+00  5.40935120e-01
 -4.58450832e+00  2.41501068e+00  5.40935120e-01 -4.58450832e+00  2.41501068e+00
  5.40935120e-01 -4.58450832e+00  2.41501068e+00  5.40935120e-01 -4.58450832e+00
  2.41501068e+00  5.16324703e+00  5.22129014e-01 -1.91726946e+00  5.16324703e+00
  5.22129014e-01 -1.91726946e+00  5.16324703e+00  5.22129014e-01 -1.91726946e+00
  5.16324703e+00  5.22129014e-01 -1.91726946e+00 -5.89292613e+00  5.94242548e+00
 -3.02733274e+00 -5.89292613e+00  5.94242548e+00 -3.02733274e+00 -5.89292613e+00
  5.94242548e+00 -3.02733274e+00 -5.89292613e+00  5.94242548e+00 -3.02733274e+00
 -1.51726492e+00  3.43681235e+00 -3.27312128e+00 -1.51726492e+00  3.43681235e+00
 -3.27312128e+00 -1.51726492e+00  3.43681235e+00 -3.27312128e+00 -1.51726492e+00
  3.43681235e+00 -3.27312128e+00 -1.51726492e+00  3.43681235e+00 -3.27312128e+00
 -1.51726492e+00  3.43681235e+00 -3.27312128e+00 -1.51726492e+00  3.43681235e+00
 -3.27312128e+00 -1.51726492e+00  3.43681235e+00 -3.27312128e+00  4.25219727e+00
 -7.28292468e+00  3.18583024e+00  4.25219727e+00 -7.28292468e+00  3.18583024e+00
  4.25219727e+00 -7.28292468e+00  3.18583024e+00  4.25219727e+00 -7.28292468e+00
  3.18583024e+00  8.85563214e+00 -2.28268598e+00 -1.26703700e+00  8.85563214e+00
 -2.28268598e+00 -1.26703700e+00  8.85563214e+00 -2.28268598e+00 -1.26703700e+00
  8.85563214e+00 -2.28268598e+00 -1.26703700e+00 -6.52885184e+00  1.33613068e+00
  3.49170091e+00 -6.52885184e+00  1.33613068e+00  3.49170091e+00 -6.52885184e+00
  1.33613068e+00  3.49170091e+00 -6.52885184e+00  1.33613068e+00  3.49170091e+00
 -8.79585631e+00  4.91194957e+00  6.70776112e-01 -8.79585631e+00  4.91194957e+00
  6.70776112e-01 -8.79585631e+00  4.91194957e+00  6.70776112e-01 -8.79585631e+00
  4.91194957e+00  6.70776112e-01  8.42985379e+00 -6.18033830e+00  1.33874577e+00
  8.42985379e+00 -6.18033830e+00  1.33874577e+00  8.42985379e+00 -6.18033830e+00
  1.33874577e+00  8.42985379e+00 -6.18033830e+00  1.33874577e+00 -1.63472715e+00
 -1.11340685e+00  2.90802116e+00 -1.63472715e+00 -1.11340685e+00  2.90802116e+00
 -1.63472715e+00 -1.11340685e+00  2.90802116e+00 -1.63472715e+00 -1.11340685e+00
  2.90802116e+00
Total Energy                               R     -6.083060681258661e+02
Alpha Orbital Energies                     R   N=         312
 -2.05057135e+01 -1.55983479e+01 -1.55908039e+01 -1.13434163e+01 -1.13170633e+01
 -1.12940598e+01 -1.12698714e+01 -1.12465085e+01 -1.12450701e+01 -1.12406647e+01
 -1.12377017e+01 -1.12338671e+01 -1.12281130e+01 -1.12231601e+01 -1.36281676e+00
 -1.28372293e+00 -1.26284936e+00 -1.15294868e+00 -1.07956216e+00 -1.02547756e+00
 -1.02028043e+00 -9.73328909e-01 -9.02502873e-01 -8.46722129e-01 -8.27465355e-01
 -7.95087753e-01 -7.77518605e-01 -7.31867683e-01 -6.99252497e-01 -6.75807624e-01
 -6.68185933e-01 -6.24229763e-01 -6.20726983e-01 -5.99895195e-01 -5.97112430e-01
 -5.94423632e-01 -5.90608775e-01 -5.80291756e-01 -5.59702580e-01 -5.55672778e-01
 -5.18468719e-01 -5.03294138e-01 -4.87727374e-01 -4.64649152e-01 -4.14198772e-01
 -3.89511002e-01 -3.46707599e-01 -3.23611534e-01 -2.63744678e-01  8.25263487e-02
  1.22788801e-01  1.49581330e-01  1.55064488e-01  1.58460057e-01  1.64897925e-01
  1.83640043e-01  1.92435234e-01  2.01879550e-01  2.08225662e-01  2.12843844e-01
  2.23258133e-01  2.60314962e-01  2.85788871e-01  3.08204319e-01  3.42076828e-01
  3.58683559e-01  3.69577580e-01  3.91195501e-01  4.07948079e-01  4.13821758e-01
  4.34572170e-01  4.39283366e-01  4.51215918e-01  4.57805524e-01  4.81493765e-01
  5.01648482e-01  5.08598977e-01  5.12714878e-01  5.36639194e-01  5.44768729e-01
  5.65631810e-01  5.70502800e-01  5.75655629e-01  5.83903589e-01  5.90348100e-01
  6.03559223e-01  6.08248962e-01  6.15979184e-01  6.20566667e-01  6.25384294e-01
  6.32187678e-01  6.36934266e-01  6.43276956e-01  6.52658895e-01  6.57641523e-01
  6.79330347e-01  6.83429888e-01  7.15199964e-01  7.22384886e-01  7.44676246e-01
  7.53617277e-01  7.71666607e-01  7.74708976e-01  7.90313773e-01  8.07005505e-01
  8.10397548e-01  8.14513256e-01  8.19769029e-01  8.23027844e-01  8.32394477e-01
  8.42668693e-01  8.54720261e-01  8.71158695e-01  8.74981158e-01  8.89978975e-01
  9.11534384e-01  9.21373814e-01  9.31516078e-01  9.35513993e-01  9.55864879e-01
  9.69975749e-01  9.80446927e-01  9.95103398e-01  1.01228124e+00  1.02171694e+00
  1.05203375e+00  1.05815705e+00  1.07327937e+00  1.07908428e+00  1.09831699e+00
  1.10887613e+00  1.14654818e+00  1.15445870e+00  1.17111716e+00  1.18244478e+00
  1.18996230e+00  1.19836990e+00  1.21852490e+00  1.23047883e+00  1.25908258e+00
  1.28139279e+00  1.29130821e+00  1.30950913e+00  1.31808905e+00  1.32718457e+00
  1.33390856e+00  1.35359039e+00  1.37565509e+00  1.38165989e+00  1.40131040e+00
  1.41220159e+00  1.43427149e+00  1.44135108e+00  1.48497835e+00  1.50054563e+00
  1.51016653e+00  1.53685613e+00  1.57090699e+00  1.61999620e+00  1.68780669e+00
  1.70851121e+00  1.71900328e+00  1.73869602e+00  1.75105970e+00  1.75794555e+00
  1.76988303e+00  1.80128440e+00  1.80792957e+00  1.81370752e+00  1.82156346e+00
  1.84133107e+00  1.85477396e+00  1.86088746e+00  1.87616910e+00  1.89227531e+00
  1.91739274e+00  1.92699574e+00  1.95584514e+00  1.95765358e+00  1.97058966e+00
  1.97987529e+00  1.98896943e+00  2.00937695e+00  2.02313043e+00  2.04123472e+00
  2.04551637e+00  2.06613435e+00  2.08308876e+00  2.10802810e+00  2.11494091e+00