Generated by Psi4
        SP                        DF-MP2                      6-311G**
Number of atoms                            I               15
Charge                                     I                0
Multiplicity                               I                1
Number of electrons                        I               48
Number of alpha electrons                  I               24
Number of beta electrons                   I               24
Number of basis functions                  I              162
Number of independent functions            I              162
Atomic numbers                             I   N=          15
           6           7           6           6           6           1
           1           8           1           1           1           1
           1           1           1
Nuclear charges                            R   N=          15
  6.00000000e+00  7.00000000e+00  6.00000000e+00  6.00000000e+00  6.00000000e+00
  1.00000000e+00  1.00000000e+00  8.00000000e+00  1.00000000e+00  1.00000000e+00
  1.00000000e+00  1.00000000e+00  1.00000000e+00  1.00000000e+00  1.00000000e+00
Current cartesian coordinates              R   N=          45
  3.80788467e+00 -8.74485634e-01  1.43812324e+00  1.56395869e+00 -2.60234442e-03
  1.06245201e-01 -6.40691617e-01 -1.33116143e+00  1.01182381e+00 -2.98246432e+00
 -9.87380488e-01 -5.77140385e-01  1.28286054e+00  2.72368132e+00  3.95634590e-01
 -2.50887881e-01 -3.37182644e+00  1.02342255e+00 -1.15747319e+00 -8.48116978e-01
  2.99211986e+00 -3.15552252e+00  3.10679473e-01 -2.47615416e+00  1.02658905e+00
  3.28623411e+00  2.39117469e+00 -3.27587666e-01  3.37166714e+00 -7.08172705e-01
  4.04995283e+00 -2.90413663e+00  1.13920549e+00  3.72759656e+00 -5.14271356e-01
  3.49359099e+00  5.46326806e+00  9.49285855e-02  6.75427019e-01 -4.63673454e+00
 -2.07008069e+00  1.30676916e-01  2.98118517e+00  3.64947662e+00 -3.25230823e-01
Integer atomic weights                     I   N=          15
          12          14          12          12          12           1
           1          16           1           1           1           1
           1           1           1
Real atomic weights                        R   N=          15
  1.20000000e+01  1.40030740e+01  1.20000000e+01  1.20000000e+01  1.20000000e+01
  1.00782503e+00  1.00782503e+00  1.59949146e+01  1.00782503e+00  1.00782503e+00
  1.00782503e+00  1.00782503e+00  1.00782503e+00  1.00782503e+00  1.00782503e+00
Number of primitive shells                 I              156
Number of contracted shells                I               84
Pure/Cartesian d shells                    I                0
Pure/Cartesian f shells                    I                0
Highest angular momentum                   I                2
Largest degree of contraction              I                6
Shell types                                I   N=          84
           0           0           1           0           1           0
           1          -2           0           0           1           0
           1           0           1          -2           0           0
           1           0           1           0           1          -2
           0           0           1           0           1           0
           1          -2           0           0           1           0
           1           0           1          -2           0           0
           0           1           0           0           0           1
           0           0           1           0           1           0
           1          -2           0           0           0           1
           0           0           0           1           0           0
           0           1           0           0           0           1
           0           0           0           1           0           0
           0           1           0           0           0           1
Number of primitives per shell             I   N=          84
           6           3           3           1           1           1
           1           1           6           3           3           1
           1           1           1           1           6           3
           3           1           1           1           1           1
           6           3           3           1           1           1
           1           1           6           3           3           1
           1           1           1           1           3           1
           1           1           3           1           1           1
           6           3           3           1           1           1
           1           1           3           1           1           1
           3           1           1           1           3           1
           1           1           3           1           1           1
           3           1           1           1           3           1
           1           1           3           1           1           1
Shell to atom map                          I   N=          84
           1           1           1           1           1           1
           1           1           2           2           2           2
           2           2           2           2           3           3
           3           3           3           3           3           3
           4           4           4           4           4           4
           4           4           5           5           5           5
           5           5           5           5           6           6
           6           6           7           7           7           7
           8           8           8           8           8           8
           8           8           9           9           9           9
          10          10          10          10          11          11
          11          11          12          12          12          12
          13          13          13          13          14          14
          14          14          15          15          15          15
Primitive exponents                        R   N=         156
  4.56324000e+03  6.82024000e+02  1.54973000e+02  4.44553000e+01  1.30290000e+01
  1.82773000e+00  2.09642000e+01  4.80331000e+00  1.45933000e+00  2.09642000e+01
  4.80331000e+00  1.45933000e+00  4.83456000e-01  4.83456000e-01  1.45585000e-01
  1.45585000e-01  6.26000000e-01  6.29348000e+03  9.49044000e+02  2.18776000e+02
  6.36916000e+01  1.88282000e+01  2.72023000e+00  3.06331000e+01  7.02614000e+00
  2.11205000e+00  3.06331000e+01  7.02614000e+00  2.11205000e+00  6.84009000e-01
  6.84009000e-01  2.00878000e-01  2.00878000e-01  9.13000000e-01  4.56324000e+03
  6.82024000e+02  1.54973000e+02  4.44553000e+01  1.30290000e+01  1.82773000e+00
  2.09642000e+01  4.80331000e+00  1.45933000e+00  2.09642000e+01  4.80331000e+00
  1.45933000e+00  4.83456000e-01  4.83456000e-01  1.45585000e-01  1.45585000e-01
  6.26000000e-01  4.56324000e+03  6.82024000e+02  1.54973000e+02  4.44553000e+01
  1.30290000e+01  1.82773000e+00  2.09642000e+01  4.80331000e+00  1.45933000e+00
  2.09642000e+01  4.80331000e+00  1.45933000e+00  4.83456000e-01  4.83456000e-01
  1.45585000e-01  1.45585000e-01  6.26000000e-01  4.56324000e+03  6.82024000e+02
  1.54973000e+02  4.44553000e+01  1.30290000e+01  1.82773000e+00  2.09642000e+01
  4.80331000e+00  1.45933000e+00  2.09642000e+01  4.80331000e+00  1.45933000e+00
  4.83456000e-01  4.83456000e-01  1.45585000e-01  1.45585000e-01  6.26000000e-01
  3.38650000e+01  5.09479000e+00  1.15879000e+00  3.25840000e-01  1.02741000e-01
  7.50000000e-01  3.38650000e+01  5.09479000e+00  1.15879000e+00  3.25840000e-01
  1.02741000e-01  7.50000000e-01  8.58850000e+03  1.29723000e+03  2.99296000e+02
  8.73771000e+01  2.56789000e+01  3.74004000e+00  4.21175000e+01  9.62837000e+00
  2.85332000e+00  4.21175000e+01  9.62837000e+00  2.85332000e+00  9.05661000e-01
  9.05661000e-01  2.55611000e-01  2.55611000e-01  1.29200000e+00  3.38650000e+01
  5.09479000e+00  1.15879000e+00  3.25840000e-01  1.02741000e-01  7.50000000e-01
  3.38650000e+01  5.09479000e+00  1.15879000e+00  3.25840000e-01  1.02741000e-01
  7.50000000e-01  3.38650000e+01  5.09479000e+00  1.15879000e+00  3.25840000e-01
  1.02741000e-01  7.50000000e-01  3.38650000e+01  5.09479000e+00  1.15879000e+00
  3.25840000e-01  1.02741000e-01  7.50000000e-01  3.38650000e+01  5.09479000e+00
  1.15879000e+00  3.25840000e-01  1.02741000e-01  7.50000000e-01  3.38650000e+01
  5.09479000e+00  1.15879000e+00  3.25840000e-01  1.02741000e-01  7.50000000e-01
  3.38650000e+01  5.09479000e+00  1.15879000e+00  3.25840000e-01  1.02741000e-01
  7.50000000e-01
Contraction coefficients                   R   N=         156
  1.96665025e-03  1.52306019e-02  7.61269097e-02  2.60801033e-01  6.16462078e-01
  2.21006028e-01  1.14660081e-01  9.19999648e-01 -3.03068213e-03  4.02486927e-02
  2.37593957e-01  8.15853851e-01  1.00000000e+00  1.00000000e+00  1.00000000e+00
  1.00000000e+00  1.00000000e+00  1.96978815e-03  1.49612859e-02  7.35005308e-02
  2.48936766e-01  6.02459433e-01  2.56201759e-01  1.11906080e-01  9.21666655e-01
 -2.56919183e-03  3.83119186e-02  2.37403116e-01  8.17592398e-01  1.00000000e+00
  1.00000000e+00  1.00000000e+00  1.00000000e+00  1.00000000e+00  1.96665025e-03
  1.52306019e-02  7.61269097e-02  2.60801033e-01  6.16462078e-01  2.21006028e-01
  1.14660081e-01  9.19999648e-01 -3.03068213e-03  4.02486927e-02  2.37593957e-01
  8.15853851e-01  1.00000000e+00  1.00000000e+00  1.00000000e+00  1.00000000e+00
  1.00000000e+00  1.96665025e-03  1.52306019e-02  7.61269097e-02  2.60801033e-01
  6.16462078e-01  2.21006028e-01  1.14660081e-01  9.19999648e-01 -3.03068213e-03
  4.02486927e-02  2.37593957e-01  8.15853851e-01  1.00000000e+00  1.00000000e+00
  1.00000000e+00  1.00000000e+00  1.00000000e+00  1.96665025e-03  1.52306019e-02
  7.61269097e-02  2.60801033e-01  6.16462078e-01  2.21006028e-01  1.14660081e-01
  9.19999648e-01 -3.03068213e-03  4.02486927e-02  2.37593957e-01  8.15853851e-01
  1.00000000e+00  1.00000000e+00  1.00000000e+00  1.00000000e+00  1.00000000e+00
  2.54938145e-02  1.90373109e-01  8.52161486e-01  1.00000000e+00  1.00000000e+00
  1.00000000e+00  2.54938145e-02  1.90373109e-01  8.52161486e-01  1.00000000e+00
  1.00000000e+00  1.00000000e+00  1.89515008e-03  1.43859006e-02  7.07320031e-02
  2.40001011e-01  5.94797026e-01  2.80802012e-01  1.13889012e-01  9.20811101e-01
 -3.27447036e-03  3.65113974e-02  2.37152983e-01  8.19701941e-01  1.00000000e+00
  1.00000000e+00  1.00000000e+00  1.00000000e+00  1.00000000e+00  2.54938145e-02
  1.90373109e-01  8.52161486e-01  1.00000000e+00  1.00000000e+00  1.00000000e+00
  2.54938145e-02  1.90373109e-01  8.52161486e-01  1.00000000e+00  1.00000000e+00
  1.00000000e+00  2.54938145e-02  1.90373109e-01  8.52161486e-01  1.00000000e+00
  1.00000000e+00  1.00000000e+00  2.54938145e-02  1.90373109e-01  8.52161486e-01
  1.00000000e+00  1.00000000e+00  1.00000000e+00  2.54938145e-02  1.90373109e-01
  8.52161486e-01  1.00000000e+00  1.00000000e+00  1.00000000e+00  2.54938145e-02
  1.90373109e-01  8.52161486e-01  1.00000000e+00  1.00000000e+00  1.00000000e+00
  2.54938145e-02  1.90373109e-01  8.52161486e-01  1.00000000e+00  1.00000000e+00
  1.00000000e+00
Coordinates of each shell                  R   N=         252
  3.80788467e+00 -8.74485634e-01  1.43812324e+00  3.80788467e+00 -8.74485634e-01
  1.43812324e+00  3.80788467e+00 -8.74485634e-01  1.43812324e+00  3.80788467e+00
 -8.74485634e-01  1.43812324e+00  3.80788467e+00 -8.74485634e-01  1.43812324e+00
  3.80788467e+00 -8.74485634e-01  1.43812324e+00  3.80788467e+00 -8.74485634e-01
  1.43812324e+00  3.80788467e+00 -8.74485634e-01  1.43812324e+00  1.56395869e+00
 -2.60234442e-03  1.06245201e-01  1.56395869e+00 -2.60234442e-03  1.06245201e-01
  1.56395869e+00 -2.60234442e-03  1.06245201e-01  1.56395869e+00 -2.60234442e-03
  1.06245201e-01  1.56395869e+00 -2.60234442e-03  1.06245201e-01  1.56395869e+00
 -2.60234442e-03  1.06245201e-01  1.56395869e+00 -2.60234442e-03  1.06245201e-01
  1.56395869e+00 -2.60234442e-03  1.06245201e-01 -6.40691617e-01 -1.33116143e+00
  1.01182381e+00 -6.40691617e-01 -1.33116143e+00  1.01182381e+00 -6.40691617e-01
 -1.33116143e+00  1.01182381e+00 -6.40691617e-01 -1.33116143e+00  1.01182381e+00
 -6.40691617e-01 -1.33116143e+00  1.01182381e+00 -6.40691617e-01 -1.33116143e+00
  1.01182381e+00 -6.40691617e-01 -1.33116143e+00  1.01182381e+00 -6.40691617e-01
 -1.33116143e+00  1.01182381e+00 -2.98246432e+00 -9.87380488e-01 -5.77140385e-01
 -2.98246432e+00 -9.87380488e-01 -5.77140385e-01 -2.98246432e+00 -9.87380488e-01
 -5.77140385e-01 -2.98246432e+00 -9.87380488e-01 -5.77140385e-01 -2.98246432e+00
 -9.87380488e-01 -5.77140385e-01 -2.98246432e+00 -9.87380488e-01 -5.77140385e-01
 -2.98246432e+00 -9.87380488e-01 -5.77140385e-01 -2.98246432e+00 -9.87380488e-01
 -5.77140385e-01  1.28286054e+00  2.72368132e+00  3.95634590e-01  1.28286054e+00
  2.72368132e+00  3.95634590e-01  1.28286054e+00  2.72368132e+00  3.95634590e-01
  1.28286054e+00  2.72368132e+00  3.95634590e-01  1.28286054e+00  2.72368132e+00
  3.95634590e-01  1.28286054e+00  2.72368132e+00  3.95634590e-01  1.28286054e+00
  2.72368132e+00  3.95634590e-01  1.28286054e+00  2.72368132e+00  3.95634590e-01
 -2.50887881e-01 -3.37182644e+00  1.02342255e+00 -2.50887881e-01 -3.37182644e+00
  1.02342255e+00 -2.50887881e-01 -3.37182644e+00  1.02342255e+00 -2.50887881e-01
 -3.37182644e+00  1.02342255e+00 -1.15747319e+00 -8.48116978e-01  2.99211986e+00
 -1.15747319e+00 -8.48116978e-01  2.99211986e+00 -1.15747319e+00 -8.48116978e-01
  2.99211986e+00 -1.15747319e+00 -8.48116978e-01  2.99211986e+00 -3.15552252e+00
  3.10679473e-01 -2.47615416e+00 -3.15552252e+00  3.10679473e-01 -2.47615416e+00
 -3.15552252e+00  3.10679473e-01 -2.47615416e+00 -3.15552252e+00  3.10679473e-01
 -2.47615416e+00 -3.15552252e+00  3.10679473e-01 -2.47615416e+00 -3.15552252e+00
  3.10679473e-01 -2.47615416e+00 -3.15552252e+00  3.10679473e-01 -2.47615416e+00
 -3.15552252e+00  3.10679473e-01 -2.47615416e+00  1.02658905e+00  3.28623411e+00
  2.39117469e+00  1.02658905e+00  3.28623411e+00  2.39117469e+00  1.02658905e+00
  3.28623411e+00  2.39117469e+00  1.02658905e+00  3.28623411e+00  2.39117469e+00
 -3.27587666e-01  3.37166714e+00 -7.08172705e-01 -3.27587666e-01  3.37166714e+00
 -7.08172705e-01 -3.27587666e-01  3.37166714e+00 -7.08172705e-01 -3.27587666e-01
  3.37166714e+00 -7.08172705e-01  4.04995283e+00 -2.90413663e+00  1.13920549e+00
  4.04995283e+00 -2.90413663e+00  1.13920549e+00  4.04995283e+00 -2.90413663e+00
  1.13920549e+00  4.04995283e+00 -2.90413663e+00  1.13920549e+00  3.72759656e+00
 -5.14271356e-01  3.49359099e+00  3.72759656e+00 -5.14271356e-01  3.49359099e+00
  3.72759656e+00 -5.14271356e-01  3.49359099e+00  3.72759656e+00 -5.14271356e-01
  3.49359099e+00  5.46326806e+00  9.49285855e-02  6.75427019e-01  5.46326806e+00
  9.49285855e-02  6.75427019e-01  5.46326806e+00  9.49285855e-02  6.75427019e-01
  5.46326806e+00  9.49285855e-02  6.75427019e-01 -4.63673454e+00 -2.07008069e+00
  1.30676916e-01 -4.63673454e+00 -2.07008069e+00  1.30676916e-01 -4.63673454e+00
 -2.07008069e+00  1.30676916e-01 -4.63673454e+00 -2.07008069e+00  1.30676916e-01
  2.98118517e+00  3.64947662e+00 -3.25230823e-01  2.98118517e+00  3.64947662e+00
 -3.25230823e-01  2.98118517e+00  3.64947662e+00 -3.25230823e-01  2.98118517e+00
  3.64947662e+00 -3.25230823e-01
Total Energy                               R     -2.870279872184473e+02
Alpha Orbital Energies                     R   N=         162
 -2.05543656e+01 -1.55543544e+01 -1.13366960e+01 -1.12739139e+01 -1.12503903e+01
 -1.12399567e+01 -1.38633383e+00 -1.23982258e+00 -1.00950144e+00 -9.54704908e-01
 -8.57243836e-01 -7.72481548e-01 -6.85727116e-01 -6.59586271e-01 -6.47252457e-01
 -6.19663660e-01 -5.80554636e-01 -5.64355741e-01 -5.43154860e-01 -5.18899598e-01
 -5.16981263e-01 -4.89701810e-01 -4.21787380e-01 -3.68315549e-01  1.43091860e-01
  1.46642815e-01  1.68826278e-01  1.92480913e-01  2.02258232e-01  2.13025345e-01
  2.30701995e-01  2.45846068e-01  2.65360396e-01  2.79531785e-01  2.85206052e-01
  3.69979477e-01  3.82554075e-01  4.15946087e-01  4.28796694e-01  4.66561629e-01
  4.86132337e-01  5.21895147e-01  5.46912590e-01  5.67861487e-01  6.09990851e-01
  6.20390252e-01  6.35467975e-01  6.79306036e-01  7.09141378e-01  7.27521418e-01
  7.38155280e-01  7.76663751e-01  7.84625980e-01  7.89883651e-01  7.94853619e-01
  8.05198688e-01  8.20984603e-01  8.36584587e-01  8.42201676e-01  8.48771242e-01
  8.77713233e-01  9.21158863e-01  9.80122294e-01  1.00208055e+00  1.02965978e+00
  1.09694321e+00  1.13637019e+00  1.15832297e+00  1.21410758e+00  1.25419310e+00
  1.27519649e+00  1.30324591e+00  1.34376162e+00  1.44206816e+00  1.47693165e+00
  1.55436859e+00  1.58031273e+00  1.62526023e+00  1.68798825e+00  1.69170796e+00
  1.71031300e+00  1.71674298e+00  1.72800174e+00  1.74407648e+00  1.75634885e+00
  1.76732279e+00  1.77331963e+00  1.79552736e+00  1.81782989e+00  1.84699388e+00
  1.88267726e+00  1.92071272e+00  1.94862404e+00  1.96617449e+00  1.97505194e+00
  1.99946414e+00  2.04022447e+00  2.08503403e+00  2.09296033e+00  2.20574416e+00
  2.23594063e+00  2.25495569e+00  2.28632159e+00  2.32130092e+00  2.34130059e+00
  2.39064562e+00  2.40135592e+00  2.45544694e+00  2.49285011e+00  2.60312216e+00
  2.62889475e+00  2.65225003e+00  2.68002667e+00  2.69999283e+00  2.73321051e+00
  2.76669897e+00  2.78582523e+00  2.81956496e+00  2.82210164e+00  2.83559299e+00
  2.84939237e+00  2.87456996e+00  2.90965676e+00  2.91277633e+00  2.94472191e+00
  2.97238505e+00  3.06779008e+00  3.08678103e+00  3.11292833e+00  3.16808394e+00
  3.20799072e+00  3.22306373e+00  3.27759997e+00  3.29166810e+00  3.31792803e+00
  3.35090272e+00  3.53479038e+00  3.71931204e+00  3.80537654e+00  3.84867559e+00
  3.92193929e+00  3.94686512e+00  4.09485284e+00  4.15140704e+00  4.15705660e+00
  4.18380239e+00  4.20157693e+00  4.20301122e+00  4.24912571e+00  4.43932131e+00
  4.66635447e+00  5.35969796e+00  5.38421266e+00  5.45688680e+00  5.60447489e+00
  6.13086907e+00  2.49354108e+01  2.49814768e+01  2.50491286e+01  2.50750072e+01
  3.69476746e+01  5.16370876e+01
Alpha MO coefficients                      R   N=       26244
 -3.87292616e-07  2.38270195e-06 -5.13481941e-06  4.58753975e-07 -1.68095763e-06
 -2.19989423e-05  2.67401683e-05 -3.98913993e-06  8.36114415e-06  2.10757525e-05
 -6.11656737e-05 -3.83173647e-05 -1.11902330e-06 -8.52270328e-08 -1.53162731e-06
 -1.79929037e-06 -3.20320824e-06  9.27904723e-07 -1.09000387e-07  2.33768113e-06
 -4.79707610e-07 -7.67705767e-07 -2.70411674e-07 -2.78139127e-05 -6.34628901e-07
  6.00569778e-06 -2.41848504e-06  2.36135603e-04 -8.28966903e-05 -1.13886079e-04
  8.23505397e-05 -2.07001001e-06 -7.12535220e-06 -2.01708412e-06  5.13572485e-07
  4.17659249e-06  1.10016766e-06  1.80251884e-07  6.46034901e-06 -1.28041568e-06
  3.27378629e-06  2.23497078e-05 -1.12183046e-05  6.39066897e-06 -9.01449430e-06
 -2.44688580e-04 -3.00744195e-04 -1.68074261e-04  1.53428327e-04 -1.55531533e-06
  1.90023419e-05  5.41198726e-06  1.32700179e-05 -3.53800602e-06  4.74462547e-06
 -6.75862739e-05 -2.45123465e-06  4.28342705e-05 -6.13955725e-05  2.57628019e-04
 -2.66862690e-05  2.22698056e-04 -3.21034537e-04  4.42888967e-04  1.37906275e-04
  3.65917995e-04 -4.68204036e-04  1.11833439e-04  1.67970043e-05 -1.31178047e-04
 -8.30766618e-05 -4.63937658e-05 -3.35774852e-08  1.19862250e-06  6.16466365e-07
 -3.75439298e-06 -9.34392384e-07 -3.83949853e-07  2.16893301e-06  9.38520390e-06
 -1.42624770e-06 -3.70352113e-06  5.63387974e-05 -5.72068372e-05 -2.92784398e-05
 -6.68461218e-06 -1.06564572e-05 -8.30613598e-07 -2.71460669e-06  1.89720413e-06
 -4.20501298e-06  4.67128265e-05 -2.51107524e-05  8.41772141e-06  1.48408410e-05
 -1.48637558e-05 -4.30521291e-06  2.21671005e-05 -3.34172445e-05  1.11820302e-05
  1.33512114e-05 -1.23039743e-05  5.51488512e-01  4.71703162e-01  1.39909280e-04
 -9.43273605e-04  1.40916850e-03  5.39375126e-03 -4.27339510e-05  3.44100495e-04
 -5.04493161e-04 -1.03861211e-03 -4.80686404e-05  5.40706827e-05 -1.00568770e-04
 -4.87741599e-05  5.26292396e-05 -9.57215135e-05  1.38558863e-04  9.82453880e-05
 -7.24408690e-06  3.81674730e-05  1.64600757e-05 -4.81269247e-06 -3.15788473e-06
 -7.42836035e-06  6.42638304e-07 -1.05451868e-05  7.04413624e-05  6.57274595e-06
 -8.60571382e-07  3.68970788e-06  2.99912261e-06 -2.96438801e-05  8.18224351e-06
  9.99406073e-07 -4.82446769e-06 -2.17498868e-06  7.45838848e-07 -9.88229944e-06
  9.24582785e-06  2.22635381e-06  3.86377556e-06  1.73492749e-06 -3.97245361e-06
  1.73046441e-05  2.27512974e-05  6.98987745e-07  1.57128903e-06  1.27445994e-06
 -7.66571297e-06  1.46343738e-04  5.26404357e-05  4.77816780e-05  1.14999889e-05
  9.09856342e-06 -2.23440525e-06 -9.85577303e-06 -2.05005420e-05  3.27310499e-06
  3.72039803e-06  1.46413350e-06  9.08213774e-06 -3.64732042e-05 -2.52384183e-05
  7.04422631e-06 -4.19527522e-05  1.72759562e-04 -3.33307569e-04  1.37691722e-04
 -8.96370941e-05  5.01370506e-04 -1.27385192e-04  3.81700466e-05 -1.48932654e-04
 -4.82153023e-05  6.86367075e-05 -1.81685139e-05  1.01208776e-04 -1.07066460e-04
  5.57672003e-01  4.68233905e-01 -2.82176411e-04  2.89948073e-04  1.80172942e-03
  5.16101667e-03  1.26589769e-04 -1.12680896e-04 -7.41304258e-04 -1.77537662e-03
  1.15426121e-05  1.02704197e-05 -8.71265251e-05  1.92369158e-04 -3.39524856e-05
  7.83284146e-05 -1.45875718e-05 -1.68162902e-05  1.01072768e-05 -3.84071435e-05
  3.12228793e-05  1.44362714e-05 -3.82488358e-05  1.62387151e-04  3.17667189e-04
  2.17505773e-04 -3.65633252e-05  6.92518269e-04  1.45451526e-04  1.02965962e-04
 -1.86573122e-04 -7.37247226e-05 -3.62554107e-05 -1.10005967e-05  5.86800650e-05
  1.52526948e-04  4.08769717e-07  7.69533533e-07 -7.06373542e-06 -1.90147117e-06
 -9.84163271e-06 -1.81165384e-06  9.89349869e-06 -1.80330937e-06  4.14378415e-05
 -2.38850527e-04 -9.02165357e-05 -4.41610410e-05 -5.24287130e-06 -6.91172477e-06
  1.29412754e-05  1.65893164e-05  2.23561793e-05  9.03859425e-07  8.78824948e-06
 -3.49176008e-05  7.70137853e-06 -4.19939322e-05 -2.85539550e-05  1.68139757e-04
  2.21192882e-05 -3.49327743e-04  5.97486569e-05  4.52078184e-04  3.67996731e-05
 -1.72186704e-04 -7.47181092e-05 -5.70933849e-05 -1.56158700e-07 -3.44546949e-05
 -1.49950668e-04 -2.29457434e-05  2.39347040e-05 -6.34755786e-05 -3.56627816e-05
 -1.25164055e-05  2.14076852e-05  1.09652058e-05  6.30907185e-07 -4.06808121e-05
  5.30436842e-06 -2.32279293e-05 -2.33546257e-05 -4.55001395e-06  4.46056301e-07
  9.10399999e-07  2.67376667e-06  1.34259938e-06 -3.00046548e-06 -8.61395661e-06
 -1.08127188e-05 -6.22339449e-06  1.28966258e-05  8.89255925e-05  2.17529876e-05
 -1.82285620e-05  2.65591879e-05  5.85834798e-06  7.97173756e-07 -5.90432534e-06
 -3.14295221e-06 -2.95161555e-06 -4.57994037e-06 -2.88717745e-05 -1.15207855e-05
 -1.35354279e-06  2.83806390e-05 -9.11296216e-06  1.79881183e-05 -3.63776802e-05
 -2.08919205e-06  1.78980024e-05 -1.08478419e-05  2.14802188e-05  1.93670176e-05
 -4.57824292e-05 -2.71809484e-05 -3.97006109e-06  2.57421170e-05  1.12841299e-05
 -3.51450392e-06 -2.98411008e-05 -5.23976706e-06  2.66129019e-05 -1.27717334e-05
  6.32020029e-07  2.03757051e-05 -3.88976897e-05 -3.09532637e-05 -2.52599616e-05
 -1.03955446e-05  1.60932427e-05  9.28876044e-07  8.61992679e-06  1.05723926e-05
  1.05907847e-05  2.92142605e-07  4.70018839e-06  1.92922683e-05 -3.50352746e-05
 -3.42145055e-05 -2.32643112e-05 -1.28174778e-05  1.52445771e-05  8.24812104e-06
  6.85848288e-06 -2.20378761e-06 -6.86706780e-08 -1.44595934e-06  5.37402462e-06
  2.50489932e-06  1.31248270e-06  2.16452608e-06 -1.36885052e-04  5.31460344e-05
 -2.52267401e-05  2.12281240e-05 -2.60458480e-06 -3.48653402e-06 -4.44187847e-06
 -5.29660029e-07  4.39241930e-07  2.14792808e-06  1.63143175e-06  1.14940184e-05
  3.06933225e-06  4.82693443e-07 -1.27833722e-05 -3.28596336e-05 -5.81894565e-06
  1.16630914e-05  1.44042342e-04  3.30793771e-05 -1.39739634e-04  5.61103755e-05
 -2.41198710e-06 -7.03022966e-06 -7.57959833e-06  9.07313360e-06  1.26398479e-05
  2.93679189e-03  2.37235666e-03 -1.10998783e-04  1.19943836e-05 -7.10990040e-05
  3.60183273e-04 -1.88900527e-04  9.29206678e-05 -1.95657880e-04 -5.80874753e-04
  3.44419466e-05 -1.09171942e-04  7.88605495e-05  1.90055903e-05  1.26122993e-04
 -1.37221991e-05  3.41266138e-05 -6.53338358e-05  5.63471840e-01  4.66647298e-01
 -9.14835065e-05  1.18557859e-04 -1.87393561e-04  3.54233092e-03  5.29437734e-05
  1.44436328e-04 -1.73491786e-04  2.25995257e-04  1.17883033e-04  1.82059124e-04
 -1.81620247e-04  1.76920424e-04  1.31726053e-04 -4.59787883e-04  4.52213724e-05
  6.12746205e-05 -7.22667631e-06 -3.84704328e-06  2.94274342e-07  2.10421945e-06
  1.09380795e-06 -3.72366453e-05  5.16885699e-06  3.38965884e-06  2.38883579e-06
  2.45108496e-04 -7.91011460e-05 -1.01122099e-04  3.91884364e-05  3.08883897e-06
 -1.01214262e-06  5.71344353e-06 -5.60534445e-06  2.79069108e-06 -5.67214026e-06
  1.12564368e-04  2.32389391e-05 -3.12069656e-05  3.09031632e-05 -8.50148080e-06
 -1.34243181e-05  1.61515273e-04  1.77379586e-05 -1.60465874e-05 -9.62707659e-06
 -4.97852391e-05 -1.83932493e-04 -2.80578124e-04  2.29797863e-05 -1.70918053e-04
  2.49540538e-04  5.91460388e-04  3.76449024e-05 -2.72400917e-04  4.00969644e-04
 -4.66081281e-04 -2.03980291e-05  1.31843854e-04 -2.01313365e-04  1.13106546e-04
  7.50859362e-06 -1.21394028e-04 -9.29304877e-05 -4.69057176e-05  9.30469814e-06
 -8.05496482e-05 -4.10459734e-06  5.36344456e-06  8.71095055e-06  1.29842074e-05
  3.10435667e-06 -5.04351245e-05 -2.83494093e-05  3.10440965e-06  4.99558950e-06
 -7.12059394e-06  3.11600498e-08  1.68893350e-05 -1.17316147e-05  2.18888292e-07
  1.35066961e-06  2.82475571e-07 -4.25532785e-06  3.47270351e-05 -1.05154669e-05
 -2.41672132e-06 -6.41725209e-07 -5.43425651e-06 -4.32451108e-06  2.17592957e-05
 -2.75296864e-06 -3.76283823e-06  8.18684408e-07 -6.27359857e-07  3.69556339e-04
  1.06429893e-04  1.80763512e-04  6.04814109e-05  5.61191679e-05 -4.88632164e-05
 -6.04594542e-07  2.63255285e-07  3.81828804e-05  1.67650525e-07  6.43872703e-07
 -1.14177475e-06 -1.91295543e-04 -1.56796687e-04  1.81435714e-05 -5.64770536e-06
  5.46057697e-06 -4.08310927e-05 -4.28465573e-05  2.37502882e-05 -1.35971141e-05
  1.30581840e-04 -7.81320903e-05 -7.96372851e-05  5.04549686e-05 -9.77047489e-06
  1.46515953e-05 -7.95761448e-06  1.93159049e-05 -1.58235178e-05 -9.52858808e-05
 -1.51230192e-04 -9.42120008e-05 -5.88246917e-05  4.49924064e-05  3.37222937e-04
 -3.65810890e-04 -2.02569879e-04  1.41709819e-04  1.99959505e-04 -1.59046973e-04
 -2.19855988e-04 -5.64236071e-05 -3.58053786e-05 -9.54929980e-05 -4.07093904e-05
  8.15777441e-05  1.30327723e-04  5.63395419e-01  4.66537551e-01  1.33770213e-04
  1.34236274e-04 -1.19750049e-04  4.40478994e-03 -1.24460673e-04 -1.17748186e-04
  6.68139386e-05 -2.54499243e-03  2.38130347e-04 -2.98099838e-04  2.19048810e-04
 -2.41177649e-05  4.21681876e-05  2.97342768e-05 -6.88670652e-05 -6.32007274e-05
 -3.04120684e-03 -2.57998076e-03  1.09612425e-04 -2.29610053e-05  7.63616453e-05
  2.33688664e-04  2.86681083e-04  5.80452142e-06  1.61043152e-04  1.00051612e-03
  4.43630402e-04  3.51594579e-05  2.00657104e-04 -1.32943059e-05  1.06794413e-04
  2.16241897e-05  8.73285567e-05 -1.73055375e-05 -1.23631201e-04 -9.85232250e-05
  2.64142013e-06  2.00489612e-05  2.56680753e-07 -1.02040703e-04 -4.56684867e-06
 -3.00037997e-05 -2.05384063e-06  5.52015032e-04 -2.26448472e-04 -2.34629917e-04
  1.60431366e-04 -1.23478926e-05  2.05050541e-06 -7.36759763e-07 -2.83887114e-05
 -1.36023393e-07  3.28148599e-04  2.33194732e-04  1.90312647e-04 -1.29896187e-06
  2.67303461e-05 -1.80827949e-05  2.95217955e-04  4.64140449e-04  2.02464282e-04
  1.84213803e-05  1.50073475e-05 -8.75657331e-05  3.70113597e-06  3.60965564e-06
 -1.12677960e-05  1.09773470e-06 -9.01568998e-06  1.15396337e-05 -8.12220363e-06
  2.40829126e-06 -1.58364316e-06 -1.12174973e-04 -7.01895447e-05 -2.56184698e-06
 -4.59557686e-05  4.67396194e-07 -1.17530508e-06 -2.53469049e-06  7.97589512e-07
  1.05769245e-06  1.64281190e-05 -1.75246300e-04 -5.75118934e-05  1.49795274e-05
  1.69188083e-05  1.65205678e-05  1.54741611e-05 -1.39924640e-04 -3.85054168e-05
  6.96880018e-06  2.18534696e-05 -2.70840292e-05  6.46054914e-06 -4.69673862e-05
 -5.60881132e-05  1.27984827e-05  3.14561158e-06 -5.15600433e-06  7.80540416e-07
 -2.70851371e-05 -4.09568779e-05  7.93775180e-06  5.96349223e-06 -3.16886487e-06
 -3.54461691e-06  6.61824741e-05  2.10981919e-05 -1.49106410e-05 -4.66597565e-06
  4.28174499e-06 -1.03333496e-05  5.12483602e-06  2.48621002e-05  1.59783519e-05
  7.23324229e-06 -4.81143704e-06 -2.66435865e-06  5.69837958e-05  9.37477652e-05
 -1.24297200e-05 -3.91261046e-06 -1.00967335e-06  5.63409628e-01  4.66554936e-01
 -3.81691563e-04  1.29023153e-04 -1.68155741e-04  4.27763448e-03  2.78496821e-04
 -9.35088413e-05  1.06214152e-04 -1.60235697e-03  1.85041688e-04 -6.23173964e-05
 -7.17738178e-05 -2.85676841e-05 -1.28813070e-04  2.78902572e-05 -8.93808278e-05
  9.10600160e-05 -9.06842566e-05 -1.50775136e-04  8.24961426e-05 -3.14523732e-05
  5.39290799e-05  3.62109537e-04  4.02281515e-04 -1.58086337e-04  2.35257733e-04
  3.08325386e-05  1.18741438e-04 -7.30223081e-05 -7.17716706e-05  1.79649699e-06
  1.44022587e-04 -4.88201711e-05  1.00637628e-04 -9.53294512e-05  1.95348364e-04
  1.62596918e-04 -1.29513155e-05 -1.08488753e-05  5.16650148e-06 -4.61798553e-05
  3.07130670e-06  3.97870380e-05 -1.36047754e-05  1.23326962e-04  4.09160598e-04
 -1.13512704e-05  2.07658570e-04 -7.61439122e-06 -1.58363768e-05 -7.50305759e-06
  1.70998875e-05  2.48940848e-05 -1.07849327e-05 -8.74981918e-06 -3.43161469e-06
  2.39216462e-07 -2.15082401e-06 -1.47962452e-05  2.14333972e-05 -7.59214311e-06
  2.08326357e-05  2.98818378e-04  6.99470278e-05 -9.65924816e-05  1.72335407e-04
 -8.66585708e-06  2.00382353e-06  1.54581061e-06  8.81069026e-06  6.60474223e-06
 -4.52975250e-04 -3.71964014e-04 -4.54150472e-06  1.93291739e-05 -1.00479070e-06