Generated by Psi4
        SP                           RHF                         MINIX
Number of atoms                            I               23
Charge                                     I                0
Multiplicity                               I                1
Number of electrons                        I               72
Number of alpha electrons                  I               36
Number of beta electrons                   I               36
Number of basis functions                  I               59
Number of independent functions            I               59
Atomic numbers                             I   N=          23
           6           7           6           6           6           1
           1           7           8           6           1           1
           6           1           1           1           1           1
           1           1           1           1           1
Nuclear charges                            R   N=          23
  6.00000000e+00  7.00000000e+00  6.00000000e+00  6.00000000e+00  6.00000000e+00
  1.00000000e+00  1.00000000e+00  7.00000000e+00  8.00000000e+00  6.00000000e+00
  1.00000000e+00  1.00000000e+00  6.00000000e+00  1.00000000e+00  1.00000000e+00
  1.00000000e+00  1.00000000e+00  1.00000000e+00  1.00000000e+00  1.00000000e+00
  1.00000000e+00  1.00000000e+00  1.00000000e+00
Current cartesian coordinates              R   N=          69
  3.41496717e+00 -1.15386445e+00  1.42455402e+00  1.04676239e+00 -3.01220026e-01
  2.50089230e-01 -1.20635807e+00 -1.65048448e+00  1.20647962e+00 -3.49122593e+00
 -1.34567166e+00 -6.11436910e-01  8.21884982e-01  2.46231546e+00  3.72732456e-01
 -7.87783732e-01 -3.67797164e+00  1.28830476e+00 -1.68993898e+00 -9.56766019e-01
  3.09544986e+00 -5.83486427e+00 -2.24366951e+00  2.85805054e-01 -3.16864968e+00
 -2.96306738e-01 -2.67161633e+00  2.88055262e+00  3.78436786e+00 -1.23410167e+00
  9.77976360e-01  3.09272810e+00  2.34428372e+00 -1.01568470e+00  3.14091611e+00
 -2.95096757e-01  5.70361448e+00  6.35517214e-01  9.79523515e-01  3.88532000e+00
 -3.01675647e+00  6.47687607e-01  3.18838901e+00 -1.39782810e+00  3.47169433e+00
  3.32955155e+00  5.63648843e+00 -4.26243750e-01  2.26299012e+00  4.01283575e+00
 -3.19601533e+00  7.44348533e+00 -4.52965034e-01  7.16851583e-01  5.93302723e+00
  1.94226283e+00  2.56991702e+00 -5.94087790e+00 -3.06192092e+00  1.95329939e+00
 -7.36478654e+00 -2.05224025e+00 -7.55434041e-01  4.53292915e+00  2.61897376e+00
 -1.21558235e+00  5.33738556e+00  1.70283453e+00 -6.98364312e-01
Integer atomic weights                     I   N=          23
          12          14          12          12          12           1
           1          14          16          12           1           1
          12           1           1           1           1           1
           1           1           1           1           1
Real atomic weights                        R   N=          23
  1.20000000e+01  1.40030740e+01  1.20000000e+01  1.20000000e+01  1.20000000e+01
  1.00782503e+00  1.00782503e+00  1.40030740e+01  1.59949146e+01  1.20000000e+01
  1.00782503e+00  1.00782503e+00  1.20000000e+01  1.00782503e+00  1.00782503e+00
  1.00782503e+00  1.00782503e+00  1.00782503e+00  1.00782503e+00  1.00782503e+00
  1.00782503e+00  1.00782503e+00  1.00782503e+00
Number of primitive shells                 I              123
Number of contracted shells                I               41
Pure/Cartesian d shells                    I                0
Pure/Cartesian f shells                    I                0
Highest angular momentum                   I                1
Largest degree of contraction              I                3
Shell types                                I   N=          41
           0           0           1           0           0           1
           0           0           1           0           0           1
           0           0           1           0           0           0
           0           1           0           0           1           0
           0           1           0           0           0           0
           1           0           0           0           0           0
           0           0           0           0           0
Number of primitives per shell             I   N=          41
           3           3           3           3           3           3
           3           3           3           3           3           3
           3           3           3           3           3           3
           3           3           3           3           3           3
           3           3           3           3           3           3
           3           3           3           3           3           3
           3           3           3           3           3
Shell to atom map                          I   N=          41
           1           1           1           2           2           2
           3           3           3           4           4           4
           5           5           5           6           7           8
           8           8           9           9           9          10
          10          10          11          12          13          13
          13          14          15          16          17          18
          19          20          21          22          23
Primitive exponents                        R   N=         123
  1.53172260e+02  2.30730300e+01  4.92329000e+00  6.61661200e+00  5.25856000e-01
  1.69958000e-01  4.91292000e+00  9.97616000e-01  2.32685000e-01  2.18364490e+02
  3.25988900e+01  6.91739000e+00  8.91942600e+00  7.06141000e-01  2.25054000e-01
  6.55627200e+00  1.34907900e+00  3.12209000e-01  1.53172260e+02  2.30730300e+01
  4.92329000e+00  6.61661200e+00  5.25856000e-01  1.69958000e-01  4.91292000e+00
  9.97616000e-01  2.32685000e-01  1.53172260e+02  2.30730300e+01  4.92329000e+00
  6.61661200e+00  5.25856000e-01  1.69958000e-01  4.91292000e+00  9.97616000e-01
  2.32685000e-01  1.53172260e+02  2.30730300e+01  4.92329000e+00  6.61661200e+00
  5.25856000e-01  1.69958000e-01  4.91292000e+00  9.97616000e-01  2.32685000e-01
  7.03406300e+00  1.06475600e+00  2.36559000e-01  7.03406300e+00  1.06475600e+00
  2.36559000e-01  2.18364490e+02  3.25988900e+01  6.91739000e+00  8.91942600e+00
  7.06141000e-01  2.25054000e-01  6.55627200e+00  1.34907900e+00  3.12209000e-01
  2.81866580e+02  4.24160000e+01  9.09562000e+00  1.17893260e+01  9.12894000e-01
  2.86661000e-01  8.27414000e+00  1.71546300e+00  3.83013000e-01  1.53172260e+02
  2.30730300e+01  4.92329000e+00  6.61661200e+00  5.25856000e-01  1.69958000e-01
  4.91292000e+00  9.97616000e-01  2.32685000e-01  7.03406300e+00  1.06475600e+00
  2.36559000e-01  7.03406300e+00  1.06475600e+00  2.36559000e-01  1.53172260e+02
  2.30730300e+01  4.92329000e+00  6.61661200e+00  5.25856000e-01  1.69958000e-01
  4.91292000e+00  9.97616000e-01  2.32685000e-01  7.03406300e+00  1.06475600e+00
  2.36559000e-01  7.03406300e+00  1.06475600e+00  2.36559000e-01  7.03406300e+00
  1.06475600e+00  2.36559000e-01  7.03406300e+00  1.06475600e+00  2.36559000e-01
  7.03406300e+00  1.06475600e+00  2.36559000e-01  7.03406300e+00  1.06475600e+00
  2.36559000e-01  7.03406300e+00  1.06475600e+00  2.36559000e-01  7.03406300e+00
  1.06475600e+00  2.36559000e-01  7.03406300e+00  1.06475600e+00  2.36559000e-01
  7.03406300e+00  1.06475600e+00  2.36559000e-01
Contraction coefficients                   R   N=         123
  7.07400095e-02  3.95380053e-01  6.63311089e-01 -8.13799884e-02  5.74852918e-01
  5.02412928e-01  1.09930928e-01  4.62712695e-01  6.27513586e-01  6.78700100e-02
  3.90202057e-01  6.70083099e-01 -8.08899713e-02  5.67201799e-01  5.11091818e-01
  1.15918975e-01  4.69957900e-01  6.18447868e-01  7.07400095e-02  3.95380053e-01
  6.63311089e-01 -8.13799884e-02  5.74852918e-01  5.02412928e-01  1.09930928e-01
  4.62712695e-01  6.27513586e-01  7.07400095e-02  3.95380053e-01  6.63311089e-01
 -8.13799884e-02  5.74852918e-01  5.02412928e-01  1.09930928e-01  4.62712695e-01
  6.27513586e-01  7.07400095e-02  3.95380053e-01  6.63311089e-01 -8.13799884e-02
  5.74852918e-01  5.02412928e-01  1.09930928e-01  4.62712695e-01  6.27513586e-01
  7.04520124e-02  4.07826072e-01  6.47752114e-01  7.04520124e-02  4.07826072e-01
  6.47752114e-01  6.78700100e-02  3.90202057e-01  6.70083099e-01 -8.08899713e-02
  5.67201799e-01  5.11091818e-01  1.15918975e-01  4.69957900e-01  6.18447868e-01
  6.90600291e-02  3.93159166e-01  6.65669281e-01 -8.08199297e-02  5.82089494e-01
  4.97159568e-01  1.24271003e-01  4.76594010e-01  6.13044013e-01  7.07400095e-02
  3.95380053e-01  6.63311089e-01 -8.13799884e-02  5.74852918e-01  5.02412928e-01
  1.09930928e-01  4.62712695e-01  6.27513586e-01  7.04520124e-02  4.07826072e-01
  6.47752114e-01  7.04520124e-02  4.07826072e-01  6.47752114e-01  7.07400095e-02
  3.95380053e-01  6.63311089e-01 -8.13799884e-02  5.74852918e-01  5.02412928e-01
  1.09930928e-01  4.62712695e-01  6.27513586e-01  7.04520124e-02  4.07826072e-01
  6.47752114e-01  7.04520124e-02  4.07826072e-01  6.47752114e-01  7.04520124e-02
  4.07826072e-01  6.47752114e-01  7.04520124e-02  4.07826072e-01  6.47752114e-01
  7.04520124e-02  4.07826072e-01  6.47752114e-01  7.04520124e-02  4.07826072e-01
  6.47752114e-01  7.04520124e-02  4.07826072e-01  6.47752114e-01  7.04520124e-02
  4.07826072e-01  6.47752114e-01  7.04520124e-02  4.07826072e-01  6.47752114e-01
  7.04520124e-02  4.07826072e-01  6.47752114e-01
Coordinates of each shell                  R   N=         123
  3.41496717e+00 -1.15386445e+00  1.42455402e+00  3.41496717e+00 -1.15386445e+00
  1.42455402e+00  3.41496717e+00 -1.15386445e+00  1.42455402e+00  1.04676239e+00
 -3.01220026e-01  2.50089230e-01  1.04676239e+00 -3.01220026e-01  2.50089230e-01
  1.04676239e+00 -3.01220026e-01  2.50089230e-01 -1.20635807e+00 -1.65048448e+00
  1.20647962e+00 -1.20635807e+00 -1.65048448e+00  1.20647962e+00 -1.20635807e+00
 -1.65048448e+00  1.20647962e+00 -3.49122593e+00 -1.34567166e+00 -6.11436910e-01
 -3.49122593e+00 -1.34567166e+00 -6.11436910e-01 -3.49122593e+00 -1.34567166e+00
 -6.11436910e-01  8.21884982e-01  2.46231546e+00  3.72732456e-01  8.21884982e-01
  2.46231546e+00  3.72732456e-01  8.21884982e-01  2.46231546e+00  3.72732456e-01
 -7.87783732e-01 -3.67797164e+00  1.28830476e+00 -1.68993898e+00 -9.56766019e-01
  3.09544986e+00 -5.83486427e+00 -2.24366951e+00  2.85805054e-01 -5.83486427e+00
 -2.24366951e+00  2.85805054e-01 -5.83486427e+00 -2.24366951e+00  2.85805054e-01
 -3.16864968e+00 -2.96306738e-01 -2.67161633e+00 -3.16864968e+00 -2.96306738e-01
 -2.67161633e+00 -3.16864968e+00 -2.96306738e-01 -2.67161633e+00  2.88055262e+00
  3.78436786e+00 -1.23410167e+00  2.88055262e+00  3.78436786e+00 -1.23410167e+00
  2.88055262e+00  3.78436786e+00 -1.23410167e+00  9.77976360e-01  3.09272810e+00
  2.34428372e+00 -1.01568470e+00  3.14091611e+00 -2.95096757e-01  5.70361448e+00
  6.35517214e-01  9.79523515e-01  5.70361448e+00  6.35517214e-01  9.79523515e-01
  5.70361448e+00  6.35517214e-01  9.79523515e-01  3.88532000e+00 -3.01675647e+00
  6.47687607e-01  3.18838901e+00 -1.39782810e+00  3.47169433e+00  3.32955155e+00
  5.63648843e+00 -4.26243750e-01  2.26299012e+00  4.01283575e+00 -3.19601533e+00
  7.44348533e+00 -4.52965034e-01  7.16851583e-01  5.93302723e+00  1.94226283e+00
  2.56991702e+00 -5.94087790e+00 -3.06192092e+00  1.95329939e+00 -7.36478654e+00
 -2.05224025e+00 -7.55434041e-01  4.53292915e+00  2.61897376e+00 -1.21558235e+00
  5.33738556e+00  1.70283453e+00 -6.98364312e-01
Total Energy                               R     -4.160600586915916e+02
Alpha Orbital Energies                     R   N=          59
 -2.02890788e+01 -1.54139492e+01 -1.53695999e+01 -1.13142960e+01 -1.12056045e+01
 -1.11813481e+01 -1.11716101e+01 -1.11224352e+01 -1.11067307e+01 -1.36006856e+00
 -1.21603393e+00 -1.17790514e+00 -1.05360530e+00 -1.00001513e+00 -9.55361948e-01
 -8.34142609e-01 -8.18529223e-01 -7.64506318e-01 -7.06480272e-01 -6.83343544e-01
 -6.54917977e-01 -6.37524419e-01 -6.23412747e-01 -6.05348072e-01 -5.80193580e-01
 -5.46655438e-01 -5.40748381e-01 -5.14541833e-01 -5.05233909e-01 -4.97149348e-01
 -4.79468017e-01 -4.67657040e-01 -3.87755070e-01 -3.81831784e-01 -3.72825277e-01
 -3.26114615e-01  2.41491272e-01  4.51211513e-01  5.10682796e-01  5.52373732e-01
  5.74320209e-01  5.91476382e-01  6.09065594e-01  6.15816122e-01  6.42707111e-01
  6.52799531e-01  6.91604021e-01  6.97115687e-01  7.07945925e-01  7.16473498e-01
  7.45667162e-01  7.61825848e-01  7.89433786e-01  7.92905424e-01  8.01122301e-01
  8.12573295e-01  8.25130804e-01  9.65177596e-01  1.60079529e+00
Alpha MO coefficients                      R   N=        3481
 -2.05771130e-06  2.37828338e-05 -3.01745786e-05 -8.63775067e-07  1.40930756e-05
 -7.17619249e-06  1.83013029e-04 -1.29456162e-04 -1.10383186e-04 -8.73650607e-06
  6.84321474e-06  2.44735345e-04 -8.28802579e-04 -5.52594703e-04  6.63805136e-04
 -8.06834113e-04  1.48251024e-02  1.97130083e-03  6.55371694e-03 -1.29010077e-02
  1.10416474e-07 -1.03882026e-04  1.05842369e-04 -1.29735891e-04 -1.45177000e-04
 -1.46727647e-04 -1.10410201e-04  2.28460533e-05  3.25211824e-04  7.16044267e-04
 -4.32553326e-04  1.20596825e-03 -9.90389577e-01 -4.91147659e-02  1.57244482e-03
  4.92823331e-03 -9.67403205e-03  2.21179306e-06 -3.05609511e-05  3.59848945e-05
  2.99437892e-05  5.44604679e-06  7.69592940e-05  3.62162238e-04 -3.53304161e-08
  3.84492813e-06  5.02479943e-08 -5.45902424e-06 -6.33442109e-07  2.17978188e-06
 -8.78326944e-06 -6.12864873e-06  1.28019269e-05 -1.04635276e-06  3.63790202e-07
 -1.15565920e-04  2.40670560e-04 -9.73406622e-06  3.54937949e-06 -1.17807363e-06
  5.10738091e-05 -2.53883043e-05  2.77725967e-05 -6.24004663e-06  5.74339083e-04
 -1.47455472e-06 -1.55405436e-04  3.54794478e-05 -1.48289332e-04 -3.21971653e-06
  2.22855386e-04  2.10020331e-04  2.25781975e-04 -4.84717585e-04 -5.98618906e-04
  1.07308344e-02 -8.94416742e-03 -3.36208565e-03  3.27804600e-03 -1.45768493e-06
 -1.95622027e-05 -1.68960274e-05 -1.76758659e-05 -1.73476404e-05 -8.03678020e-05
 -1.50916799e-05 -9.88934866e-01 -5.98624611e-02 -4.33368945e-04 -1.32642148e-04
  1.24724959e-04  1.73497153e-07  2.30319255e-04  9.96110511e-04  1.64570130e-04
  6.89787467e-05  3.28342555e-08  4.45751643e-06  3.76505821e-06  5.10791839e-06
  9.67575798e-06  7.74799227e-06  2.32075714e-05  1.75248338e-07 -5.67050504e-06
  2.84840234e-06  1.82679498e-06 -1.50131576e-06 -1.11327676e-06 -1.30079460e-06
 -3.26398725e-06  1.31735302e-06  1.12115498e-06 -2.35510629e-07  1.33037986e-02
  1.32458152e-02 -4.15240813e-07 -5.61782830e-07 -5.57833731e-04  9.50981382e-03
 -7.61777490e-03  2.71847455e-03 -3.56952625e-03 -9.89156696e-01 -5.68381504e-02
  2.39041220e-04 -1.55188479e-03 -6.16375161e-03 -5.60075455e-04  9.34014800e-03
  7.10650138e-03  4.17294861e-03 -2.71981355e-03 -1.11977807e-05  6.75028652e-05
  5.11815853e-06 -2.87632604e-04  2.23473639e-04 -5.57267808e-04  9.47647670e-03
  5.66553085e-04 -8.78387361e-03 -1.38313779e-04 -2.31521663e-04 -9.62512628e-05
 -6.03416307e-04 -6.05411072e-05  1.84211108e-04  1.96464034e-05  7.51419710e-05
 -3.32622411e-05  1.33454313e-04  1.55261231e-04  1.25833214e-05  4.25430478e-05
 -1.39447345e-05  9.28109227e-05 -4.05836931e-04  1.68093680e-04  1.24835517e-05
 -9.29004403e-05 -1.33044523e-04  6.41694769e-06 -1.03845091e-05  3.82811769e-04
 -5.19477959e-04  3.30638101e-04 -3.65181939e-05 -9.95904835e-05  1.55949385e-04
 -1.33932762e-04 -6.80522513e-05 -9.97473318e-05  1.41069965e-04  8.76386118e-05
  1.71825313e-04  1.61077926e-04  2.38081828e-04  1.54160121e-04 -2.68952209e-04
 -7.14237915e-05  8.03001761e-05 -4.57069011e-05 -2.20551741e-05 -9.70181001e-05
 -4.90786518e-05 -1.38735180e-04  9.69369072e-03  9.75337963e-03 -6.02074210e-03
  1.02986326e-03 -5.08290753e-03 -9.89258924e-01 -5.41394474e-02 -1.71189616e-05
 -2.50335613e-04 -9.47616589e-05  2.17455479e-04 -1.43955941e-04 -8.90974448e-05
 -3.43343839e-04 -2.34404056e-05  5.86101696e-04  4.49600825e-04 -1.00976079e-03
  8.98704445e-03  5.81358599e-03  2.39776236e-03 -2.51591449e-03 -6.65884245e-04
  1.04010911e-02 -7.73760109e-04 -1.85298591e-03  3.56156537e-03  6.98471146e-06
  5.96478767e-05  1.43743994e-05  8.77158184e-06  6.59771464e-05  1.39025572e-05
  8.32165842e-04  2.71235576e-05  6.40905849e-05 -2.05464311e-05 -4.47633232e-05
 -4.62574310e-06 -3.57633706e-05  2.92440605e-05 -7.45746867e-06  8.69575872e-06
 -5.06588667e-06  2.69213122e-06  1.04760888e-03  1.15120740e-03 -1.41957423e-05
  5.05343179e-08  9.16492734e-03  1.37831036e-03 -1.31481102e-03 -2.50322459e-04
 -8.40133428e-05 -9.94081904e-04  8.06645687e-03 -5.52559740e-03 -3.49231202e-03
  1.80619209e-03 -9.88235420e-01 -6.14883324e-02  4.89071016e-04  6.08899192e-04
 -1.50231780e-04 -1.13783050e-02  9.54424876e-03  6.61522339e-03 -6.81550735e-04
  4.94163731e-03  6.58306307e-03  1.27262451e-03 -6.39918643e-04 -1.10275978e-03
  3.79038390e-04  1.25280851e-02  1.25060072e-02 -5.55034741e-05  2.44704082e-04
  2.63182458e-04  2.05197997e-04 -3.77392717e-04 -3.75751777e-05  2.63295109e-04
 -3.41786525e-04 -2.24098806e-05 -2.11889842e-04  3.07587850e-04  2.33791721e-04
 -1.04047121e-04 -9.76245176e-05  1.15877834e-04 -1.31856157e-04  1.14923031e-04
  2.76745706e-04  1.96002727e-04 -9.07118429e-05 -1.26916086e-04 -1.65226523e-05
 -1.54057855e-04  2.52667449e-04  2.01752297e-05 -1.35718975e-05 -1.83308373e-06
 -7.11234877e-06  5.69626413e-04  1.53790384e-04  2.34566289e-06 -6.28768632e-06
  9.87799148e-01  6.17262373e-02  5.79027149e-04 -6.50218373e-04  4.56327277e-04
  9.95025925e-04 -8.20898498e-03 -5.84696261e-03  2.48667685e-03 -2.42882380e-03
  9.25612628e-03 -2.26306471e-04 -1.31818998e-03 -1.56503371e-04 -2.18967049e-04
  3.83209724e-04 -3.49122131e-04 -2.37894183e-04 -2.23599541e-05 -2.00497643e-04
 -2.43959042e-02 -2.34365268e-03 -8.29226357e-04  1.06574878e-03 -3.99809123e-04
 -4.72559356e-04 -6.71952817e-05  4.69286007e-06 -1.74363080e-05 -3.07249027e-05
 -3.00317008e-06  1.06146137e-05  2.89032173e-06 -1.20451490e-06 -7.75273703e-06
  5.05191853e-06  6.10160419e-06  7.82195615e-05  3.10048332e-04 -4.22999433e-05
 -3.22209455e-05  1.43591417e-04  2.91751413e-05 -8.15466429e-05 -1.83492303e-02
 -1.07743808e-02  6.25568782e-03  4.91423783e-03 -1.14833031e-03 -1.25421266e-02
 -1.25387246e-02 -1.79823127e-05  2.87489085e-05 -1.48887418e-04 -1.79390319e-04
 -2.04815717e-05 -1.12542739e-05 -1.14410434e-04 -1.21711855e-04  2.45674728e-02
  6.92773902e-04  8.34516062e-04 -1.05769289e-03  1.03041921e-04  1.03853030e-03
 -8.63506078e-03  5.43544751e-04 -6.63913603e-03  1.31090671e-04  7.08076137e-03
 -3.72455965e-04 -4.98530828e-04 -1.28699776e-03  2.09918883e-04  3.48265825e-04
 -1.28118830e-04 -1.51309727e-04 -8.70955410e-05 -3.28752524e-07  9.87837414e-01
  6.18299307e-02 -4.40721463e-06  9.57784627e-04  3.20394175e-04 -4.96979001e-04
 -3.34412471e-04  5.42775449e-06 -4.03223911e-05 -4.51935508e-05  9.65393404e-06
  1.36603464e-05  8.20167810e-06 -9.16711373e-06 -1.26007139e-04 -3.58018565e-05
  3.01775162e-05 -1.65442700e-02 -1.08324530e-02  5.68780830e-03  3.72969164e-03
 -4.43548213e-03 -1.25893650e-02 -1.24364052e-02 -2.64561238e-03 -6.30146860e-04
  8.63242236e-04 -2.38737364e-04 -1.01604879e-04 -6.76837889e-04 -2.49758609e-04
 -2.47086431e-04 -2.15534016e-04 -2.94638757e-04  6.76753805e-05 -1.63457661e-05
 -1.10085009e-05 -6.12028938e-05  7.49692071e-05  2.00466067e-02 -8.62969208e-03
 -6.47441201e-03 -5.04725328e-03  1.29875771e-03  3.85903298e-05 -1.97796964e-04
 -1.04923408e-04  3.53413075e-04 -1.14475650e-04  5.07755908e-04 -6.55665432e-05
 -2.91066838e-04  4.26844661e-05 -1.10560906e-04  4.55224336e-05 -8.26928416e-05
 -3.44083395e-05 -1.88996530e-06 -6.05542725e-05  2.10436546e-03  2.21233513e-05
 -6.94871143e-04  4.12379982e-04 -2.75821269e-04 -6.94011132e-05  2.60143735e-05
 -1.22354369e-07  5.52817007e-06  5.96775252e-07  2.27513234e-06  6.54563441e-07
  2.19270281e-07 -4.75011267e-06  2.89983796e-06  6.13901953e-06  2.39740793e-07
 -1.21361148e-02 -1.68280317e-03 -6.69229932e-04  6.05138944e-04 -9.31520318e-04
 -3.46486419e-05 -3.67962147e-04  9.87861942e-01  6.41815872e-02 -1.51563701e-04
  5.82091821e-04 -8.52449408e-04 -6.83299591e-04 -7.14343617e-04  2.17156076e-04
 -1.88578197e-04 -1.26489705e-02 -1.26688812e-02 -2.62119090e-06 -1.75353912e-06
  3.17529146e-03 -1.52918203e-02  6.07963656e-04 -6.14225205e-05 -5.99177833e-05
 -9.62566531e-05  1.27377987e-04  8.27275422e-05 -3.73110707e-04  7.34678175e-06
 -2.79180709e-04  1.10405512e-04  4.83550984e-04 -1.18605802e-04 -6.19565534e-05
 -3.54237913e-04 -2.76197537e-05  1.89081653e-05  2.31624517e-06 -2.90337767e-06
  1.00558852e-05 -6.72021072e-07  1.82072959e-02 -8.81394216e-03 -5.85612849e-03
 -3.71009446e-03  4.62780904e-03 -1.17368076e-04 -2.42974231e-05  9.47308586e-08
 -4.08725266e-08 -2.44913980e-06  3.04809031e-06  4.87298609e-07 -3.27572902e-06
  1.81074664e-05  1.18927212e-05  1.04105530e-05  9.19813081e-06  9.87882908e-01
  6.44727933e-02  9.27078811e-04 -5.42056112e-04  2.08525725e-05 -7.05672792e-04
 -7.03244239e-04  1.23321478e-02 -1.53155609e-04  7.94457619e-04 -8.13220383e-04
  4.55501026e-04 -1.50026854e-05 -4.05352505e-05 -1.27278690e-02 -1.26648967e-02
 -4.82017279e-04 -3.04780782e-04 -1.73126850e-06 -9.71675593e-07 -1.58090756e-02
  3.51129286e-03  4.04639806e-03 -9.61786417e-03  4.66012623e-03 -1.26094504e-03
  1.93534433e-03  1.50962979e-02 -4.80809492e-02  8.03805139e-03  1.54049827e-03
 -7.83688862e-03  2.67049589e-02 -7.46207118e-02  2.67953063e-02 -3.72964816e-03
  1.84762543e-02  1.33054780e-01 -3.09878447e-01 -7.53857829e-03 -6.63231173e-02
  1.31830269e-01  5.64071683e-03 -1.36686711e-02  7.13570087e-05  4.69798064e-03
  8.10927428e-04 -8.65443873e-03 -8.06797444e-03  4.97971928e-02 -1.65740802e-01
 -4.19786509e-02 -1.50978583e-02  1.38945551e-02  1.88841742e-01 -6.80533838e-01
  2.81040317e-02  7.77961494e-02 -1.55751463e-01  1.18375918e-03 -2.66032047e-03
  9.91903132e-04  8.48673350e-04 -6.37168601e-04 -1.70001167e-03 -2.45819841e-03
  8.70522078e-04 -2.24658090e-03  8.33680477e-04  6.15369629e-04 -1.12937267e-04
 -1.13387727e-03 -1.48071179e-03 -3.60095964e-04 -4.69103465e-04 -2.08549356e-04
 -2.71616065e-04 -2.32309022e-02 -2.30079031e-02 -9.00605872e-04 -7.53859533e-04
  8.53768087e-02 -2.21264646e-01  6.35655159e-02 -3.43047702e-02  3.14536767e-02
  1.68398217e-01 -5.50542762e-01 -3.87060884e-03 -2.53049494e-02 -9.11783046e-02
  7.85399774e-02 -2.06205130e-01 -6.54830589e-02 -3.99683597e-02  2.33614851e-02
  2.96158033e-04 -5.52894176e-03 -1.77364983e-02  2.15160124e-02 -5.64893690e-02
  8.23207208e-02 -2.12010253e-01 -1.69078166e-02  7.60102100e-02  5.12536000e-04
 -3.64146623e-02 -3.87360233e-02  6.11195325e-03 -1.83953140e-02 -2.23802315e-03
  5.98845518e-04 -2.86217388e-03 -3.34505508e-02  1.24219896e-01 -9.85590381e-03
 -1.12053421e-02  1.76041627e-02  3.11595574e-02 -7.85618978e-02  1.25789837e-02
  1.83795221e-02 -1.82368064e-02 -3.80879372e-02 -3.37022032e-02  3.39722736e-02
 -8.73945530e-02  2.77921630e-02  1.13377712e-02  7.60376509e-04 -3.59106309e-02
 -3.93306400e-02 -1.25897052e-02 -1.22611983e-02 -1.31455097e-02 -1.56037868e-02
 -5.41757462e-03 -3.30344344e-03 -3.59745181e-02 -3.64710356e-02  9.89664969e-03
 -2.59624171e-02  5.36281914e-03 -4.33329716e-03  3.54515028e-03  1.57581434e-02
 -5.30759981e-02 -6.90139081e-03 -6.81040032e-03 -6.32861952e-03 -1.40138873e-02
  3.87745358e-02 -2.35966096e-02 -3.35623120e-03 -8.06110988e-03 -4.47023643e-02
  1.26962298e-01 -1.28202501e-01 -9.10421150e-02  1.36899567e-01  1.05668213e-02
 -2.82590909e-02 -2.30597333e-03  7.53951086e-03  1.00632967e-03  9.46909219e-03
  1.06868669e-02 -1.98713881e-01  6.58189169e-01  2.59814761e-02  5.05164040e-03
  1.15757955e-03  7.60231211e-02 -2.82976262e-01 -5.46514274e-03  1.33298164e-02
 -3.25952094e-02  5.13282984e-03 -1.30109714e-02  1.66440058e-03  2.94548339e-03
 -2.53055730e-03 -5.16250194e-03 -5.52055655e-03  5.22583463e-03 -1.35049922e-02
  3.83547857e-03  1.12094752e-03  3.93090951e-04 -4.51357429e-03 -4.69367998e-03
 -2.31494557e-03 -2.36765151e-03 -2.23765923e-03 -2.64517887e-03  1.50629416e-01
  1.40730986e-01 -6.28846613e-03 -6.23016779e-03  4.34815407e-02 -1.24073603e-01
 -8.03861928e-02 -3.65471319e-02 -1.73665943e-03 -5.06514308e-02  1.73462248e-01
 -8.38129360e-02 -4.78633058e-02  3.50385892e-02 -9.37356534e-02  2.64755917e-01
  2.16816317e-02  1.67600045e-02 -1.21813101e-02 -1.67016586e-02  5.16635870e-02
  6.16578787e-02 -1.14379152e-02  5.57908462e-02  3.64138902e-02 -1.02855254e-01
 -4.96822833e-02 -5.63662769e-02  2.38893389e-02  6.47888195e-02  6.55194390e-02
  2.28676649e-02 -7.96117171e-02  1.86332099e-02  2.43329497e-03  3.27930038e-03
  1.76128522e-02 -6.91217907e-02  1.42633467e-02  1.93960043e-03  2.47126277e-03
  1.00022926e-01 -2.60327557e-01 -2.76677833e-02  3.74435514e-02 -2.29619001e-02
 -2.60004062e-02 -1.85192273e-02  1.16630580e-01 -3.09692423e-01  3.66383012e-02
 -2.31394640e-02  3.18416155e-02 -2.63347527e-02 -2.48919480e-02 -6.45062202e-02
 -5.82233009e-02 -7.16922161e-02 -8.00562262e-02 -2.02689882e-02 -2.67768374e-02
 -1.80679550e-01 -1.88838860e-01  1.21722299e-01 -3.54435574e-01 -3.78796914e-02
 -1.22778915e-02 -2.81276761e-03 -8.15178854e-04  2.74584026e-03 -8.06341639e-02
  1.19372947e-01 -3.64117604e-02  2.59031166e-03 -7.98169036e-03 -1.22720205e-02
  1.80130252e-02 -5.00499735e-03 -2.90596596e-05 -2.35219638e-04  3.10665950e-03
  5.16210918e-04  8.83155129e-03 -1.23761139e-01  3.58555069e-01  2.65503672e-02
  3.16820898e-02 -2.37639140e-02 -1.19417414e-02  4.37579560e-04 -3.62439483e-04
  1.22416728e-03 -2.52652127e-04  2.13415731e-04  1.39122094e-03  3.82912932e-03
 -1.45386933e-02  5.72389333e-03  5.27537663e-03  3.89492657e-04 -1.09686809e-01
  3.13566715e-01 -3.95161532e-02 -2.46953971e-02  3.53657181e-02  8.94491981e-02
  9.56515433e-02  9.71616518e-02 -2.82976108e-01  4.06280510e-02  4.24169885e-02
 -1.43860103e-02 -9.55884419e-02 -9.49965329e-02  8.04858995e-02  7.67773293e-02
 -7.45762460e-02 -6.88958479e-02  7.69971148e-04  3.96447395e-05  8.34801384e-02
 -5.79752438e-02  4.88449242e-02 -1.41858843e-01  7.34060060e-02 -2.06583167e-03
  1.32446206e-02  5.77125603e-02 -2.02742630e-01 -1.19429947e-01 -8.63120496e-02
 -1.72417697e-02 -1.45474098e-01  4.29567169e-01 -9.59061550e-02 -3.97324509e-02
  4.52930930e-03 -6.19383327e-02  1.88726826e-01  1.24562421e-01 -3.59812818e-02
  1.35486450e-01  4.87628660e-02 -1.41400263e-01  9.34741545e-03  6.47877498e-02
 -2.24798236e-02  1.35841373e-01  1.31571087e-01  4.22437185e-02 -1.52048763e-01
  9.18883840e-02  1.51123664e-02  7.07894908e-03  3.54477789e-02 -1.43666205e-01
  2.81767986e-02 -7.80903675e-03  2.47815978e-02 -4.75343965e-02  1.24528670e-01
  5.86269089e-02 -5.14905777e-03 -1.16797123e-02 -4.00213955e-02 -3.26349833e-02
 -5.82443067e-02  1.57174679e-01  2.07293344e-02  4.95040811e-02 -3.70284167e-02
 -3.40842774e-02 -3.76681910e-02  4.15103611e-02  3.55419264e-02  4.79245919e-02
  5.12233165e-02 -4.59867931e-02 -7.77090601e-02  1.31660205e-01  1.38729216e-01
  6.82232897e-02 -2.07677106e-01  1.12368085e-01  9.60102848e-02 -3.33237682e-03
  8.82381252e-03 -3.19312895e-02 -1.00679290e-01  1.79246578e-01 -3.03061735e-02
  5.68727689e-03 -1.99699079e-02 -5.77471307e-02  5.07777918e-02 -1.19921047e-02
 -1.58769211e-02  4.81777518e-02  1.29061916e-02  3.01094520e-03  3.57431648e-02
 -9.36555057e-02  2.84205110e-01 -1.03129069e-01 -4.91804914e-02  8.22093940e-02
 -4.19188936e-02  6.33856649e-03  4.81460444e-03 -1.80427426e-02  3.17914250e-02
  1.07972724e-02  2.85067951e-03  1.08420702e-02 -4.52999745e-02  1.27963510e-02
  7.73919654e-03  1.82347121e-02  1.14045691e-01 -3.42293118e-01 -7.40356849e-02
 -4.32497031e-02  5.69840541e-02  1.21964010e-01  1.19865583e-01 -1.04598396e-01
  3.22890440e-01  6.51532773e-02  2.90519644e-02  2.23152167e-02 -9.81997066e-02
 -8.20828003e-02 -1.33292792e-01 -1.31441945e-01  1.28983039e-01  1.31936482e-01
 -8.75214164e-03 -2.00795039e-02 -1.45812654e-01  6.66975083e-02  1.01435764e-01
 -3.16334594e-01 -8.96132031e-02  7.41508152e-02 -9.20047028e-02 -8.18772121e-02
  2.97881389e-01 -8.26053450e-02 -2.56857688e-02 -4.77204285e-03  4.40454233e-03
 -1.21232408e-02  1.58808473e-01  6.10551212e-02 -1.95645714e-02  6.26982283e-02
 -1.92426152e-01  3.37131527e-03  3.80199881e-02 -8.60889736e-02  7.41641826e-02
 -2.31523688e-01  1.26818461e-02 -1.48627509e-01 -2.15055618e-02 -2.51871478e-02
 -2.74054784e-02 -2.35260892e-02  9.21808674e-02 -1.67613002e-01 -4.19712976e-02
  1.54983953e-02 -2.58839844e-02  1.10174858e-01  9.42408208e-03  1.86230938e-02
 -4.13921912e-02  2.28451498e-02 -8.31205278e-02  1.25345415e-01 -4.36712544e-02
 -3.73122753e-02 -1.12912427e-01 -1.05076425e-01 -1.86072744e-02  4.51171428e-02
  5.24985675e-02  1.24636667e-01 -9.97217776e-02 -1.35845876e-01 -1.54623249e-01
 -4.10574232e-02 -3.06315685e-02  9.67354767e-03  1.91527384e-02  5.39367562e-02
  9.70182299e-02  1.43834733e-01  1.85904858e-01  6.98992080e-03 -2.35622335e-02
 -7.18475930e-02  4.74087702e-02 -7.40488938e-02 -4.50343231e-02  1.67899261e-01
  1.06012771e-01  6.12022031e-02 -4.12050635e-02  6.42551437e-02 -2.00297329e-01
 -8.09403283e-02  4.96606443e-02 -1.40490222e-01 -1.16109492e-01  3.52612312e-01
 -1.55066551e-01 -7.24748496e-02  8.12879558e-02  2.37243691e-02 -7.83886035e-02
  4.91526348e-02 -1.09752675e-01 -1.73926606e-02 -1.19394100e-01 -1.30805801e-01
  2.64882516e-02 -1.11365179e-01  3.50341796e-01  1.45099776e-01 -1.57398754e-01
  6.01730817e-02 -2.69051659e-01 -7.46541627e-02 -7.40902328e-02  1.12979564e-01
  1.25421660e-02 -4.41338730e-02  5.32761830e-02 -4.70905053e-02 -1.13311418e-02
 -5.72170981e-02 -6.98202076e-02  2.19077027e-02 -7.38285905e-02 -3.53399027e-02
  3.22415027e-02 -5.55188737e-02 -2.91250776e-02 -5.35370161e-02 -3.61467905e-02
 -2.22874139e-02 -5.02801046e-02 -4.31366950e-02 -1.77529348e-01 -1.47334245e-01
  6.34764151e-02  5.25643621e-02  1.25772269e-02 -4.11027485e-02  6.64072040e-04