
    -----------------------------------------------------------------------
          Psi4: An Open-Source Ab Initio Electronic Structure Package
                               Psi4 1.5 release

                         Git: Rev {HEAD} e9f4d6d 


    D. G. A. Smith, L. A. Burns, A. C. Simmonett, R. M. Parrish,
    M. C. Schieber, R. Galvelis, P. Kraus, H. Kruse, R. Di Remigio,
    A. Alenaizan, A. M. James, S. Lehtola, J. P. Misiewicz, M. Scheurer,
    R. A. Shaw, J. B. Schriber, Y. Xie, Z. L. Glick, D. A. Sirianni,
    J. S. O'Brien, J. M. Waldrop, A. Kumar, E. G. Hohenstein,
    B. P. Pritchard, B. R. Brooks, H. F. Schaefer III, A. Yu. Sokolov,
    K. Patkowski, A. E. DePrince III, U. Bozkaya, R. A. King,
    F. A. Evangelista, J. M. Turney, T. D. Crawford, C. D. Sherrill,
    J. Chem. Phys. 152(18) 184108 (2020). https://doi.org/10.1063/5.0006002

                            Additional Code Authors
    E. T. Seidl, C. L. Janssen, E. F. Valeev, M. L. Leininger,
    J. F. Gonthier, R. M. Richard, H. R. McAlexander, M. Saitow, X. Wang,
    P. Verma, M. H. Lechner, and A. Jiang

             Previous Authors, Complete List of Code Contributors,
                       and Citations for Specific Modules
    https://github.com/psi4/psi4/blob/master/codemeta.json
    https://github.com/psi4/psi4/graphs/contributors
    http://psicode.org/psi4manual/master/introduction.html#citing-psifour

    -----------------------------------------------------------------------


    Psi4 started on: Wednesday, 08 June 2022 10:04AM

    Process ID: 1078405
    Host:       node74.bme.utexas.edu
    PSIDATADIR: /home/bdw2292/miniconda3/envs/newamoebamdpoltype/share/psi4
    Memory:     500.0 MiB
    Threads:    1
    
  ==> Input File <==

--------------------------------------------------------------------------
molecule { 
0 1
C          8.00570       -1.03030       -1.50710
N          6.77980       -0.97640       -0.69930
C          5.63270       -0.41540       -1.45740
C          4.27360       -0.72380       -0.77230
C          7.01080       -0.26460        0.57220
H          5.59360       -0.89410       -2.44300
H          5.76130        0.66570       -1.57720
N          3.14360       -0.07970       -1.31840
O          4.24840       -1.46710        0.21310
C          9.15700       -1.71990       -0.74280
H          7.82460       -1.60220       -2.42480
H          8.31500       -0.02010       -1.80480
C          8.11580       -0.94680        1.40170
H          7.29200        0.77860        0.37700
H          6.10830       -0.24010        1.19050
H          8.92120       -2.76820       -0.52650
H         10.08890       -1.66060       -1.31430
H          8.33920       -0.36400        2.30110
H          7.83900       -1.97000        1.68030
H          3.24120        0.50020       -2.10800
H          2.25740       -0.21010       -0.90990
H          9.28100       -1.20340        0.18600
H          8.99070       -0.99420        0.78750
}
memory 49GB
set_num_threads(12)
psi4_io.set_default_path("/scratch/bdw2292/Psi4-farH_in17")
set maxiter 500
set freeze_core True
set PROPERTIES_ORIGIN ["COM"]
set cubeprop_tasks ['esp']
set basis MINIX 
E, wfn = properties('hf',properties=['dipole'],return_wfn=True)
cubeprop(wfn)
fchk(wfn, "farH_in17-esp_frag.fchk")
oeprop(wfn,"WIBERG_LOWDIN_INDICES","MULLIKEN_CHARGES")
clean()
--------------------------------------------------------------------------

  Memory set to  45.635 GiB by Python driver.
  Threads set to 12 by Python driver.

*** tstart() called on node74.bme.utexas.edu
*** at Wed Jun  8 10:04:03 2022

   => Loading Basis Set <=

    Name: MINIX
    Role: ORBITAL
    Keyword: BASIS
    atoms 1, 3-5, 10, 13    entry C          line    74 file /home/bdw2292/miniconda3/envs/newamoebamdpoltype/share/psi4/basis/minix.gbs 
    atoms 2, 8              entry N          line    88 file /home/bdw2292/miniconda3/envs/newamoebamdpoltype/share/psi4/basis/minix.gbs 
    atoms 6-7, 11-12, 14-23 entry H          line    24 file /home/bdw2292/miniconda3/envs/newamoebamdpoltype/share/psi4/basis/minix.gbs 
    atoms 9                 entry O          line   102 file /home/bdw2292/miniconda3/envs/newamoebamdpoltype/share/psi4/basis/minix.gbs 


         ---------------------------------------------------------
                                   SCF
               by Justin Turney, Rob Parrish, Andy Simmonett
                          and Daniel G. A. Smith
                              RHF Reference
                       12 Threads,  46730 MiB Core
         ---------------------------------------------------------

  ==> Geometry <==

    Molecular point group: c1
    Full point group: C1

    Geometry (in Angstrom), charge = 0, multiplicity = 1:

       Center              X                  Y                   Z               Mass       
    ------------   -----------------  -----------------  -----------------  -----------------
         C            1.750308247904    -0.188516255490    -1.034029271170    12.000000000000
         N            0.524408247904    -0.134616255490    -0.226229271170    14.003074004430
         C           -0.622691752096     0.426383744510    -0.984329271170    12.000000000000
         C           -1.981791752096     0.117983744510    -0.299229271170    12.000000000000
         C            0.755408247904     0.577183744510     1.045270728830    12.000000000000
         H           -0.661791752096    -0.052316255490    -1.969929271170     1.007825032230
         H           -0.494091752096     1.507483744510    -1.104129271170     1.007825032230
         N           -3.111791752096     0.762083744510    -0.845329271170    14.003074004430
         O           -2.006991752096    -0.625316255490     0.686170728830    15.994914619570
         C            2.901608247904    -0.878116255490    -0.269729271170    12.000000000000
         H            1.569208247904    -0.760416255490    -1.951729271170     1.007825032230
         H            2.059608247904     0.821683744510    -1.331729271170     1.007825032230
         C            1.860408247904    -0.105016255490     1.874770728830    12.000000000000
         H            1.036608247904     1.620383744510     0.850070728830     1.007825032230
         H           -0.147091752096     0.601683744510     1.663570728830     1.007825032230
         H            2.665808247904    -1.926416255490    -0.053429271170     1.007825032230
         H            3.833508247904    -0.818816255490    -0.841229271170     1.007825032230
         H            2.083808247904     0.477783744510     2.774170728830     1.007825032230
         H            1.583608247904    -1.128216255490     2.153370728830     1.007825032230
         H           -3.014191752096     1.341983744510    -1.634929271170     1.007825032230
         H           -3.997991752096     0.631683744510    -0.436829271170     1.007825032230
         H            3.025608247904    -0.361616255490     0.659070728830     1.007825032230
         H            2.735308247904    -0.152416255490     1.260570728830     1.007825032230

  Running in c1 symmetry.

  Rotational constants: A =      0.10630  B =      0.02923  C =      0.02542 [cm^-1]
  Rotational constants: A =   3186.89080  B =    876.30121  C =    762.00838 [MHz]
  Nuclear repulsion =  486.315742518202512

  Charge       = 0
  Multiplicity = 1
  Electrons    = 72
  Nalpha       = 36
  Nbeta        = 36

  ==> Algorithm <==

  SCF Algorithm Type is DF.
  DIIS enabled.
  MOM disabled.
  Fractional occupation disabled.
  Guess Type is SAD.
  Energy threshold   = 1.00e-06
  Density threshold  = 1.00e-06
  Integral threshold = 1.00e-12

  ==> Primary Basis <==

  Basis Set: MINIX
    Blend: MINIX
    Number of shells: 41
    Number of basis functions: 59
    Number of Cartesian functions: 59
    Spherical Harmonics?: true
    Max angular momentum: 1

   => Loading Basis Set <=

    Name: (MINIX AUX)
    Role: JKFIT
    Keyword: DF_BASIS_SCF
    atoms 1, 3-5, 10, 13    entry C          line   198 file /home/bdw2292/miniconda3/envs/newamoebamdpoltype/share/psi4/basis/def2-universal-jkfit.gbs 
    atoms 2, 8              entry N          line   258 file /home/bdw2292/miniconda3/envs/newamoebamdpoltype/share/psi4/basis/def2-universal-jkfit.gbs 
    atoms 6-7, 11-12, 14-23 entry H          line    18 file /home/bdw2292/miniconda3/envs/newamoebamdpoltype/share/psi4/basis/def2-universal-jkfit.gbs 
    atoms 9                 entry O          line   318 file /home/bdw2292/miniconda3/envs/newamoebamdpoltype/share/psi4/basis/def2-universal-jkfit.gbs 

  ==> Integral Setup <==

  DFHelper Memory: AOs need 0.031 GiB; user supplied 34.226 GiB. Using in-core AOs.

  ==> MemDFJK: Density-Fitted J/K Matrices <==

    J tasked:                   Yes
    K tasked:                   Yes
    wK tasked:                   No
    OpenMP threads:              12
    Memory [MiB]:             35047
    Algorithm:                 Core
    Schwarz Cutoff:           1E-12
    Mask sparsity (%):       3.1026
    Fitting Condition:        1E-10

   => Auxiliary Basis Set <=

  Basis Set: (MINIX AUX)
    Blend: DEF2-UNIVERSAL-JKFIT
    Number of shells: 309
    Number of basis functions: 933
    Number of Cartesian functions: 1093
    Spherical Harmonics?: true
    Max angular momentum: 4

  Minimum eigenvalue in the overlap matrix is 1.2120303523E-01.
  Reciprocal condition number of the overlap matrix is 4.1177865700E-02.
    Using symmetric orthogonalization.

  ==> Pre-Iterations <==

  SCF Guess: Superposition of Atomic Densities via on-the-fly atomic UHF (no occupation information).

   -------------------------
    Irrep   Nso     Nmo    
   -------------------------
     A         59      59 
   -------------------------
    Total      59      59
   -------------------------

  ==> Iterations <==

                           Total Energy        Delta E     RMS |[F,P]|

   @DF-RHF iter SAD:  -410.97568063173122   -4.10976e+02   0.00000e+00 
   @DF-RHF iter   1:  -415.87534336300109   -4.89966e+00   8.48507e-03 DIIS
   @DF-RHF iter   2:  -415.99558918550849   -1.20246e-01   6.07601e-03 DIIS
   @DF-RHF iter   3:  -416.06146687704461   -6.58777e-02   6.21450e-04 DIIS
   @DF-RHF iter   4:  -416.06343200654442   -1.96513e-03   2.57699e-04 DIIS
   @DF-RHF iter   5:  -416.06370497590171   -2.72969e-04   8.21882e-05 DIIS
   @DF-RHF iter   6:  -416.06374639979077   -4.14239e-05   2.72838e-05 DIIS
   @DF-RHF iter   7:  -416.06375019423996   -3.79445e-06   7.67626e-06 DIIS
   @DF-RHF iter   8:  -416.06375047647634   -2.82236e-07   1.69308e-06 DIIS
   @DF-RHF iter   9:  -416.06375048924104   -1.27647e-08   4.18653e-07 DIIS
  Energy and wave function converged.


  ==> Post-Iterations <==

    Orbital Energies [Eh]
    ---------------------

    Doubly Occupied:                                                      

       1A    -20.289068     2A    -15.413641     3A    -15.371474  
       4A    -11.314636     5A    -11.203770     6A    -11.182456  
       7A    -11.173414     8A    -11.115866     9A    -11.111634  
      10A     -1.360706    11A     -1.216901    12A     -1.177757  
      13A     -1.055331    14A     -1.003550    15A     -0.955780  
      16A     -0.830261    17A     -0.816865    18A     -0.762969  
      19A     -0.705636    20A     -0.703294    21A     -0.649727  
      22A     -0.638616    23A     -0.614760    24A     -0.593091  
      25A     -0.587881    26A     -0.544250    27A     -0.535149  
      28A     -0.526540    29A     -0.513578    30A     -0.491111  
      31A     -0.482107    32A     -0.469476    33A     -0.388635  
      34A     -0.381831    35A     -0.366491    36A     -0.332514  

    Virtual:                                                              

      37A      0.241617    38A      0.461637    39A      0.517366  
      40A      0.540813    41A      0.561749    42A      0.595791  
      43A      0.612019    44A      0.645389    45A      0.659146  
      46A      0.672309    47A      0.681952    48A      0.701659  
      49A      0.708174    50A      0.719506    51A      0.739416  
      52A      0.748301    53A      0.769563    54A      0.773564  
      55A      0.799433    56A      0.807245    57A      0.828033  
      58A      0.966273    59A      1.600069  

    Final Occupation by Irrep:
              A 
    DOCC [    36 ]

  @DF-RHF Final Energy:  -416.06375048924104

   => Energetics <=

    Nuclear Repulsion Energy =            486.3157425182025122
    One-Electron Energy =               -1530.9974381943050048
    Two-Electron Energy =                 628.6179451868613342
    Total Energy =                       -416.0637504892411016

Computation Completed


Properties will be evaluated at   0.000000,  -0.000000,   0.000000 [a0]

Properties computed using the HF density matrix

  Nuclear Dipole Moment: [e a0]
     X:    11.5080      Y:     1.6849      Z:     0.0410

  Electronic Dipole Moment: [e a0]
     X:   -11.5183      Y:    -0.4962      Z:    -1.1258

  Dipole Moment: [e a0]
     X:    -0.0103      Y:     1.1888      Z:    -1.0848     Total:     1.6094

  Dipole Moment: [D]
     X:    -0.0261      Y:     3.0215      Z:    -2.7573     Total:     4.0906


*** tstop() called on node74.bme.utexas.edu at Wed Jun  8 10:04:04 2022
Module time:
	user time   =       7.40 seconds =       0.12 minutes
	system time =       0.33 seconds =       0.01 minutes
	total time  =          1 seconds =       0.02 minutes
Total time:
	user time   =       7.40 seconds =       0.12 minutes
	system time =       0.33 seconds =       0.01 minutes
	total time  =          1 seconds =       0.02 minutes
  ==> One Electron Grid Properties (v2.0) <==

  ==> CubicScalarGrid <==

    Filepath     = .
    Total Points =           741750
    XYZ Blocking =               10
    X Points     =              115
    Y Points     =               75
    Z Points     =               86
    X Spacing    =        2.000E-01
    Y Spacing    =        2.000E-01
    Z Spacing    =        2.000E-01
    X Minimum    =       -1.156E+01
    Y Minimum    =       -7.689E+00
    Z Minimum    =       -7.740E+00
    X Maximum    =        1.124E+01
    Y Maximum    =        7.111E+00
    Z Maximum    =        9.260E+00

  Basis Set: MINIX
    Blend: MINIX
    Number of shells: 41
    Number of basis functions: 59
    Number of Cartesian functions: 59
    Spherical Harmonics?: true
    Max angular momentum: 1

FCHKWriter: !WARNING! method 'HF'' renamed to label 'HF'.
FCHKWriter: Writing farH_in17-esp_frag.fchk with label ' SCF Density'.


Properties will be evaluated at   0.000000,  -0.000000,   0.000000 [a0]
OEProp: No title given, name of density matrix used for the following properties is 'SCF density'
  Mulliken Charges: (a.u.)
   Center  Symbol    Alpha    Beta     Spin     Total
       1     C     3.06918  3.06918  0.00000 -0.13836
       2     N     3.65361  3.65361  0.00000 -0.30722
       3     C     3.07568  3.07568  0.00000 -0.15136
       4     C     2.80449  2.80449  0.00000  0.39102
       5     C     3.07039  3.07039  0.00000 -0.14078
       6     H     0.42908  0.42908  0.00000  0.14184
       7     H     0.43875  0.43875  0.00000  0.12249
       8     N     3.76638  3.76638  0.00000 -0.53276
       9     O     4.20690  4.20690  0.00000 -0.41381
      10     C     3.16623  3.16623  0.00000 -0.33247
      11     H     0.43733  0.43733  0.00000  0.12534
      12     H     0.44753  0.44753  0.00000  0.10493
      13     C     3.16561  3.16561  0.00000 -0.33122
      14     H     0.44983  0.44983  0.00000  0.10034
      15     H     0.42810  0.42810  0.00000  0.14380
      16     H     0.43631  0.43631  0.00000  0.12738
      17     H     0.44313  0.44313  0.00000  0.11373
      18     H     0.44310  0.44310  0.00000  0.11380
      19     H     0.43494  0.43494  0.00000  0.13012
      20     H     0.37558  0.37558  0.00000  0.24884
      21     H     0.36841  0.36841  0.00000  0.26318
      22     H     0.44340  0.44340  0.00000  0.11321
      23     H     0.44602  0.44602  0.00000  0.10795

   Total alpha = 36.00000, Total beta = 36.00000, Total charge =  0.00000



  Wiberg Bond Indices using Orthogonal Lowdin Orbitals:

  Irrep: 1 Size: 23 x 23

                 1                   2                   3                   4                   5

    1     0.00000000000000     0.99809820848135     0.00278869798576     0.00651320293474     0.00234618301015
    2     0.99809820848135     0.00000000000000     1.00247727094673     0.00850933174749     0.99631209727009
    3     0.00278869798576     1.00247727094673     0.00000000000000     0.96710478423039     0.00208888672257
    4     0.00651320293474     0.00850933174749     0.96710478423039     0.00000000000000     0.00056970101318
    5     0.00234618301015     0.99631209727009     0.00208888672257     0.00056970101318     0.00000000000000
    6     0.00121696826545     0.00197512299010     0.96244568162472     0.00376846234491     0.00642618771919
    7     0.00013926263294     0.01411724949966     0.96378640893676     0.00189967192800     0.00071568922587
    8     0.00068999202393     0.00488488986260     0.00664692457329     1.12364712110809     0.00005974635617
    9     0.00015708799363     0.00329511028611     0.04370626893944     1.83901963971141     0.00159634876090
   10     1.01117312765373     0.00525783220610     0.00806533360754     0.00064393643009     0.00085042230188
   11     0.96985292155334     0.00353223334304     0.00080483034392     0.00019612276560     0.00717829427228
   12     0.96873612865573     0.01602710611092     0.00029913540788     0.00002070286093     0.00039930052546
   13     0.00079693352532     0.00490500248907     0.00800278393627     0.00015149858061     1.01211793366996
   14     0.00040555591465     0.01500284680956     0.00033252467541     0.00021246628123     0.96926634161346
   15     0.00694630251747     0.00327919128905     0.00086643607435     0.00043446312850     0.96668268626959
   16     0.00059467010536     0.00087570233630     0.00007853669318     0.00000175491589     0.00000289393561
   17     0.00121147352418     0.00718496744812     0.00073840290483     0.00012871514924     0.00019030459166
   18     0.00019610428981     0.00732285807978     0.00072388394436     0.00001300154793     0.00126957327064
   19     0.00000220281200     0.00102750549602     0.00009893405924     0.00000561452864     0.00067850850024
   20     0.00001348217309     0.00011567262248     0.00095749092344     0.00050622497899     0.00000528162674
   21     0.00023886575019     0.00079383899821     0.00753178292000     0.00031941572684     0.00000340720358
   22     0.00078163899810     0.00117819288937     0.00006526063246     0.00000563711260     0.00079475355187
   23     0.00079059666055     0.00106518809513     0.00005163254418     0.00000420193006     0.00081884595163

                 6                   7                   8                   9                  10

    1     0.00121696826545     0.00013926263294     0.00068999202393     0.00015708799363     1.01117312765373
    2     0.00197512299010     0.01411724949966     0.00488488986260     0.00329511028611     0.00525783220610
    3     0.96244568162472     0.96378640893676     0.00664692457329     0.04370626893944     0.00806533360754
    4     0.00376846234491     0.00189967192800     1.12364712110809     1.83901963971141     0.00064393643009
    5     0.00642618771919     0.00071568922587     0.00005974635617     0.00159634876090     0.00085042230188
    6     0.00000000000000     0.00050838875792     0.00173530415898     0.01157377370713     0.00027814019802
    7     0.00050838875792     0.00000000000000     0.00118467241753     0.01028697836301     0.00001695033025
    8     0.00173530415898     0.00118467241753     0.00000000000000     0.15141601306633     0.00020248709143
    9     0.01157377370713     0.01028697836301     0.15141601306633     0.00000000000000     0.00006526546952
   10     0.00027814019802     0.00001695033025     0.00020248709143     0.00006526546952     0.00000000000000
   11     0.00043808634997     0.00017686244543     0.00002918906522     0.00000413453362     0.00138174553217
   12     0.00014822105745     0.00061870009955     0.00000378359459     0.00000968853070     0.00026199679307
   13     0.00062387294274     0.00002842406437     0.00002715954659     0.00003306480945     0.16097079364514
   14     0.00000427716034     0.00091465325657     0.00001799494908     0.00011498201474     0.00061282316064
   15     0.00021005794289     0.00021881920742     0.00004076372696     0.00108055334869     0.00195669852459
   16     0.00000164342493     0.00000406099328     0.00000235387395     0.00000189463440     0.98072257392965
   17     0.00003421930465     0.00000795069145     0.00003691923932     0.00000676900542     0.97834425196150
   18     0.00014780098995     0.00000024098735     0.00000282165555     0.00002258248926     0.00179373878886
   19     0.00000479763221     0.00000013376223     0.00000074312105     0.00000702129994     0.00014591621514
   20     0.00002256731431     0.00010463330851     0.96080332835668     0.00793173702092     0.00000241257318
   21     0.00001443991339     0.00002420561698     0.95589945114133     0.00178199051039     0.00005966674807
   22     0.00000277196028     0.00000010415954     0.00000220070538     0.00000914112400     0.80659221625393
   23     0.00000716705634     0.00000005371124     0.00000037254903     0.00003603898604     0.00644703926545

                11                  12                  13                  14                  15

    1     0.96985292155334     0.96873612865573     0.00079693352532     0.00040555591465     0.00694630251747
    2     0.00353223334304     0.01602710611092     0.00490500248907     0.01500284680956     0.00327919128905
    3     0.00080483034392     0.00029913540788     0.00800278393627     0.00033252467541     0.00086643607435
    4     0.00019612276560     0.00002070286093     0.00015149858061     0.00021246628123     0.00043446312850
    5     0.00717829427228     0.00039930052546     1.01211793366996     0.96926634161346     0.96668268626959
    6     0.00043808634997     0.00014822105745     0.00062387294274     0.00000427716034     0.00021005794289
    7     0.00017686244543     0.00061870009955     0.00002842406437     0.00091465325657     0.00021881920742
    8     0.00002918906522     0.00000378359459     0.00002715954659     0.00001799494908     0.00004076372696
    9     0.00000413453362     0.00000968853070     0.00003306480945     0.00011498201474     0.00108055334869
   10     0.00138174553217     0.00026199679307     0.16097079364514     0.00061282316064     0.00195669852459
   11     0.00000000000000     0.00020849253369     0.00203357905221     0.00001377456871     0.00093380343640
   12     0.00020849253369     0.00000000000000     0.00054003591187     0.00076407053846     0.00000857916850
   13     0.00203357905221     0.00054003591187     0.00000000000000     0.00025006383202     0.00153649355369
   14     0.00001377456871     0.00076407053846     0.00025006383202     0.00000000000000     0.00027598865829
   15     0.00093380343640     0.00000857916850     0.00153649355369     0.00027598865829     0.00000000000000
   16     0.00148704625774     0.00704079214609     0.00010719414788     0.00000628926409     0.00001838367081
   17     0.00081700282395     0.00102636077160     0.00176569162384     0.00000769058608     0.00003821100779
   18     0.00004406922762     0.00000724231330     0.97825147734744     0.00091280896911     0.00089392374452
   19     0.00001534376433     0.00000459182457     0.97994399868813     0.00721136863040     0.00136797767362
   20     0.00000098214413     0.00000038248422     0.00000021255278     0.00000006815772     0.00000033634121
   21     0.00000955473912     0.00000004629395     0.00000265489638     0.00000234326096     0.00000448018964
   22     0.00509560086698     0.00072354518416     0.00701489448903     0.00000183579240     0.00006453484272
   23     0.00004630734735     0.00000039096925     0.80831729985638     0.00086812199944     0.00509460492534

                16                  17                  18                  19                  20

    1     0.00059467010536     0.00121147352418     0.00019610428981     0.00000220281200     0.00001348217309
    2     0.00087570233630     0.00718496744812     0.00732285807978     0.00102750549602     0.00011567262248
    3     0.00007853669318     0.00073840290483     0.00072388394436     0.00009893405924     0.00095749092344
    4     0.00000175491589     0.00012871514924     0.00001300154793     0.00000561452864     0.00050622497899
    5     0.00000289393561     0.00019030459166     0.00126957327064     0.00067850850024     0.00000528162674
    6     0.00000164342493     0.00003421930465     0.00014780098995     0.00000479763221     0.00002256731431
    7     0.00000406099328     0.00000795069145     0.00000024098735     0.00000013376223     0.00010463330851
    8     0.00000235387395     0.00003691923932     0.00000282165555     0.00000074312105     0.96080332835668
    9     0.00000189463440     0.00000676900542     0.00002258248926     0.00000702129994     0.00793173702092
   10     0.98072257392965     0.97834425196150     0.00179373878886     0.00014591621514     0.00000241257318
   11     0.00148704625774     0.00081700282395     0.00004406922762     0.00001534376433     0.00000098214413
   12     0.00704079214609     0.00102636077160     0.00000724231330     0.00000459182457     0.00000038248422
   13     0.00010719414788     0.00176569162384     0.97825147734744     0.97994399868813     0.00000021255278
   14     0.00000628926409     0.00000769058608     0.00091280896911     0.00721136863040     0.00000006815772
   15     0.00001838367081     0.00003821100779     0.00089392374452     0.00136797767362     0.00000033634121
   16     0.00000000000000     0.00074998880953     0.00013631603938     0.00001094065304     0.00000000725020
   17     0.00074998880953     0.00000000000000     0.00049891877747     0.00013930312207     0.00000042236423
   18     0.00013631603938     0.00049891877747     0.00000000000000     0.00079007694921     0.00000001497663
   19     0.00001094065304     0.00013930312207     0.00079007694921     0.00000000000000     0.00000003141570
   20     0.00000000725020     0.00000042236423     0.00000001497663     0.00000003141570     0.00000000000000
   21     0.00000042552887     0.00001132336571     0.00000070567022     0.00000001920291     0.00000438141379
   22     0.00074537174327     0.00170405618413     0.00000115438603     0.00069806214943     0.00000002240961
   23     0.00063471468899     0.00000036441798     0.00160928887973     0.00072960759522     0.00000007172543

                21                  22                  23

    1     0.00023886575019     0.00078163899810     0.00079059666055
    2     0.00079383899821     0.00117819288937     0.00106518809513
    3     0.00753178292000     0.00006526063246     0.00005163254418
    4     0.00031941572684     0.00000563711260     0.00000420193006
    5     0.00000340720358     0.00079475355187     0.00081884595163
    6     0.00001443991339     0.00000277196028     0.00000716705634
    7     0.00002420561698     0.00000010415954     0.00000005371124
    8     0.95589945114133     0.00000220070538     0.00000037254903
    9     0.00178199051039     0.00000914112400     0.00003603898604
   10     0.00005966674807     0.80659221625393     0.00644703926545
   11     0.00000955473912     0.00509560086698     0.00004630734735
   12     0.00000004629395     0.00072354518416     0.00000039096925
   13     0.00000265489638     0.00701489448903     0.80831729985638
   14     0.00000234326096     0.00000183579240     0.00086812199944
   15     0.00000448018964     0.00006453484272     0.00509460492534
   16     0.00000042552887     0.00074537174327     0.00063471468899
   17     0.00001132336571     0.00170405618413     0.00000036441798
   18     0.00000070567022     0.00000115438603     0.00160928887973
   19     0.00000001920291     0.00069806214943     0.00072960759522
   20     0.00000438141379     0.00000002240961     0.00000007172543
   21     0.00000000000000     0.00000052802215     0.00000016031563
   22     0.00000052802215     0.00000000000000     0.15903649479438
   23     0.00000016031563     0.15903649479438     0.00000000000000



  Atomic Valences: 

 #  #
 Irrep: 1
      1:    3.973689607461478
      2:    3.097237419297309
      3:    3.979661892626705
      4:    3.953675670955374
      5:    3.970373387362726
      6:    0.991587952815870
      7:    0.994754114395867
      8:    3.207334232183084
      9:    2.072156084605044
     10:    3.965845368679971
     11:    0.994299976966835
     12:    0.996849293775953
     13:    3.967421063161190
     14:    0.997198890093379
     15:    0.991953289242023
     16:    0.993223555042443
     17:    0.994643307674744
     18:    0.994638603324163
     19:    0.992882699095362
     20:    0.970469764133992
     21:    0.966703687428320
     22:    0.984518018251809
     23:    0.985558564264786


    Psi4 stopped on: Wednesday, 08 June 2022 10:04AM
    Psi4 wall time for execution: 0:00:15.37

*** Psi4 exiting successfully. Buy a developer a beer!
