
    -----------------------------------------------------------------------
          Psi4: An Open-Source Ab Initio Electronic Structure Package
                               Psi4 1.6 release

                         Git: Rev {HEAD} 77475b5 


    D. G. A. Smith, L. A. Burns, A. C. Simmonett, R. M. Parrish,
    M. C. Schieber, R. Galvelis, P. Kraus, H. Kruse, R. Di Remigio,
    A. Alenaizan, A. M. James, S. Lehtola, J. P. Misiewicz, M. Scheurer,
    R. A. Shaw, J. B. Schriber, Y. Xie, Z. L. Glick, D. A. Sirianni,
    J. S. O'Brien, J. M. Waldrop, A. Kumar, E. G. Hohenstein,
    B. P. Pritchard, B. R. Brooks, H. F. Schaefer III, A. Yu. Sokolov,
    K. Patkowski, A. E. DePrince III, U. Bozkaya, R. A. King,
    F. A. Evangelista, J. M. Turney, T. D. Crawford, C. D. Sherrill,
    J. Chem. Phys. 152(18) 184108 (2020). https://doi.org/10.1063/5.0006002

                            Additional Code Authors
    E. T. Seidl, C. L. Janssen, E. F. Valeev, M. L. Leininger,
    J. F. Gonthier, R. M. Richard, H. R. McAlexander, M. Saitow, X. Wang,
    P. Verma, M. H. Lechner, and A. Jiang

             Previous Authors, Complete List of Code Contributors,
                       and Citations for Specific Modules
    https://github.com/psi4/psi4/blob/master/codemeta.json
    https://github.com/psi4/psi4/graphs/contributors
    http://psicode.org/psi4manual/master/introduction.html#citing-psifour

    -----------------------------------------------------------------------


    Psi4 started on: Saturday, 18 November 2023 08:03AM

    Process ID: 1107600
    Host:       node165.bme.utexas.edu
    PSIDATADIR: /home/liuchw/anaconda3/envs/poltype2022/share/psi4
    Memory:     500.0 MiB
    Threads:    1
    
  ==> Input File <==

--------------------------------------------------------------------------
molecule { 
0 1
C          7.86250       -0.64920        1.54090
N          6.60930       -0.19800        0.91940
C          5.41700       -0.91200        1.42550
C          4.20790       -0.75070        0.46350
C          6.49030        1.26440        0.98430
H          5.63850       -1.98490        1.46880
H          5.16110       -0.54490        2.42510
N          2.96770       -1.22590        0.93830
O          4.37860       -0.19540       -0.62670
C          7.57970        1.96400        0.13400
H          6.57290        1.59800        2.02760
H          5.51790        1.62350        0.63090
C          9.07360        0.29770        1.30540
H          8.11140       -1.63500        1.12980
H          7.74260       -0.77830        2.62420
H          7.81730        2.94410        0.56150
H          7.25290        2.08490       -0.90420
H          9.99430       -0.27830        1.16640
H          9.19500        0.98920        2.14700
H          2.91160       -1.65890        1.82070
H          2.15810       -1.12460        0.38730
H          8.45410        1.34730        0.14380
H          8.87980        0.86250        0.41750
}
memory 208GB
set_num_threads(51)
psi4_io.set_default_path("/scratch/liuchw/Psi4-farH_in17")
set maxiter 500
set freeze_core True
set PROPERTIES_ORIGIN ["COM"]
set cubeprop_tasks ['esp']
set basis MINIX 
E, wfn = properties('hf',properties=['dipole','WIBERG_LOWDIN_INDICES','MULLIKEN_CHARGES'],return_wfn=True)
cubeprop(wfn)
fchk(wfn, "farH_in17-esp_frag.fchk")
clean()
--------------------------------------------------------------------------

  Memory set to 193.715 GiB by Python driver.
  Threads set to 51 by Python driver.

*** tstart() called on node165.bme.utexas.edu
*** at Sat Nov 18 08:03:19 2023

   => Loading Basis Set <=

    Name: MINIX
    Role: ORBITAL
    Keyword: BASIS
    atoms 1, 3-5, 10, 13    entry C          line    74 file /home/liuchw/anaconda3/envs/poltype2022/share/psi4/basis/minix.gbs 
    atoms 2, 8              entry N          line    88 file /home/liuchw/anaconda3/envs/poltype2022/share/psi4/basis/minix.gbs 
    atoms 6-7, 11-12, 14-23 entry H          line    24 file /home/liuchw/anaconda3/envs/poltype2022/share/psi4/basis/minix.gbs 
    atoms 9                 entry O          line   102 file /home/liuchw/anaconda3/envs/poltype2022/share/psi4/basis/minix.gbs 


         ---------------------------------------------------------
                                   SCF
               by Justin Turney, Rob Parrish, Andy Simmonett
                          and Daniel G. A. Smith
                              RHF Reference
                       51 Threads, 198364 MiB Core
         ---------------------------------------------------------

  ==> Geometry <==

    Molecular point group: c1
    Full point group: C1

    Geometry (in Angstrom), charge = 0, multiplicity = 1:

       Center              X                  Y                   Z               Mass       
    ------------   -----------------  -----------------  -----------------  -----------------
         C            1.807122802032    -0.610598773192     0.753841521377    12.000000000000
         N            0.553922802032    -0.159398773192     0.132341521377    14.003074004430
         C           -0.638377197968    -0.873398773192     0.638441521377    12.000000000000
         C           -1.847477197968    -0.712098773192    -0.323558478623    12.000000000000
         C            0.434922802032     1.303001226808     0.197241521377    12.000000000000
         H           -0.416877197968    -1.946298773192     0.681741521377     1.007825032230
         H           -0.894277197968    -0.506298773192     1.638041521377     1.007825032230
         N           -3.087677197968    -1.187298773192     0.151241521377    14.003074004430
         O           -1.676777197968    -0.156798773192    -1.413758478623    15.994914619570
         C            1.524322802032     2.002601226808    -0.653058478623    12.000000000000
         H            0.517522802032     1.636601226808     1.240541521377     1.007825032230
         H           -0.537477197968     1.662101226808    -0.156158478623     1.007825032230
         C            3.018222802032     0.336301226808     0.518341521377    12.000000000000
         H            2.056022802032    -1.596398773192     0.342741521377     1.007825032230
         H            1.687222802032    -0.739698773192     1.837141521377     1.007825032230
         H            1.761922802032     2.982701226808    -0.225558478623     1.007825032230
         H            1.197522802032     2.123501226808    -1.691258478623     1.007825032230
         H            3.938922802032    -0.239698773192     0.379341521377     1.007825032230
         H            3.139622802032     1.027801226808     1.359941521377     1.007825032230
         H           -3.143777197968    -1.620298773192     1.033641521377     1.007825032230
         H           -3.897277197968    -1.085998773192    -0.399758478623     1.007825032230
         H            2.398722802032     1.385901226808    -0.643258478623     1.007825032230
         H            2.824422802032     0.901101226808    -0.369558478623     1.007825032230

  Running in c1 symmetry.

  Rotational constants: A =      0.10708  B =      0.02948  C =      0.02525 [cm^-1]
  Rotational constants: A =   3210.11181  B =    883.81630  C =    756.90203 [MHz]
  Nuclear repulsion =  486.352230508166258

  Charge       = 0
  Multiplicity = 1
  Electrons    = 72
  Nalpha       = 36
  Nbeta        = 36

  ==> Algorithm <==

  SCF Algorithm Type is DF.
  DIIS enabled.
  MOM disabled.
  Fractional occupation disabled.
  Guess Type is SAD.
  Energy threshold   = 1.00e-06
  Density threshold  = 1.00e-06
  Integral threshold = 1.00e-12

  ==> Primary Basis <==

  Basis Set: MINIX
    Blend: MINIX
    Number of shells: 41
    Number of basis functions: 59
    Number of Cartesian functions: 59
    Spherical Harmonics?: true
    Max angular momentum: 1

   => Loading Basis Set <=

    Name: (MINIX AUX)
    Role: JKFIT
    Keyword: DF_BASIS_SCF
    atoms 1, 3-5, 10, 13    entry C          line   198 file /home/liuchw/anaconda3/envs/poltype2022/share/psi4/basis/def2-universal-jkfit.gbs 
    atoms 2, 8              entry N          line   258 file /home/liuchw/anaconda3/envs/poltype2022/share/psi4/basis/def2-universal-jkfit.gbs 
    atoms 6-7, 11-12, 14-23 entry H          line    18 file /home/liuchw/anaconda3/envs/poltype2022/share/psi4/basis/def2-universal-jkfit.gbs 
    atoms 9                 entry O          line   318 file /home/liuchw/anaconda3/envs/poltype2022/share/psi4/basis/def2-universal-jkfit.gbs 

  ==> Integral Setup <==

  DFHelper Memory: AOs need 0.032 GiB; user supplied 145.286 GiB. Using in-core AOs.

  ==> MemDFJK: Density-Fitted J/K Matrices <==

    J tasked:                   Yes
    K tasked:                   Yes
    wK tasked:                   No
    OpenMP threads:              51
    Memory [MiB]:            148773
    Algorithm:                 Core
    Schwarz Cutoff:           1E-12
    Mask sparsity (%):       3.1600
    Fitting Condition:        1E-10

   => Auxiliary Basis Set <=

  Basis Set: (MINIX AUX)
    Blend: DEF2-UNIVERSAL-JKFIT
    Number of shells: 309
    Number of basis functions: 933
    Number of Cartesian functions: 1093
    Spherical Harmonics?: true
    Max angular momentum: 4

  Minimum eigenvalue in the overlap matrix is 1.2149068895E-01.
  Reciprocal condition number of the overlap matrix is 4.1412475262E-02.
    Using symmetric orthogonalization.

  ==> Pre-Iterations <==

  SCF Guess: Superposition of Atomic Densities via on-the-fly atomic UHF (no occupation information).

   -------------------------
    Irrep   Nso     Nmo    
   -------------------------
     A         59      59 
   -------------------------
    Total      59      59
   -------------------------

  ==> Iterations <==

                           Total Energy        Delta E     RMS |[F,P]|

   @DF-RHF iter SAD:  -410.96369454476525   -4.10964e+02   0.00000e+00 
   @DF-RHF iter   1:  -415.87170900418175   -4.90801e+00   8.46720e-03 ADIIS/DIIS
   @DF-RHF iter   2:  -415.99166652001861   -1.19958e-01   6.08492e-03 ADIIS/DIIS
   @DF-RHF iter   3:  -416.05764563660557   -6.59791e-02   6.61593e-04 ADIIS/DIIS
   @DF-RHF iter   4:  -416.05974194989176   -2.09631e-03   2.55520e-04 ADIIS/DIIS
   @DF-RHF iter   5:  -416.06001387958906   -2.71930e-04   8.12232e-05 DIIS
   @DF-RHF iter   6:  -416.06005470856462   -4.08290e-05   2.70131e-05 DIIS
   @DF-RHF iter   7:  -416.06005840297775   -3.69441e-06   7.63991e-06 DIIS
   @DF-RHF iter   8:  -416.06005867920368   -2.76226e-07   1.66237e-06 DIIS
   @DF-RHF iter   9:  -416.06005869159162   -1.23879e-08   4.20210e-07 DIIS
  Energy and wave function converged.


  ==> Post-Iterations <==

    Orbital Energies [Eh]
    ---------------------

    Doubly Occupied:                                                      

       1A    -20.289079     2A    -15.413949     3A    -15.369600  
       4A    -11.314296     5A    -11.205604     6A    -11.181348  
       7A    -11.171610     8A    -11.122435     9A    -11.106731  
      10A     -1.360069    11A     -1.216034    12A     -1.177905  
      13A     -1.053605    14A     -1.000015    15A     -0.955362  
      16A     -0.834143    17A     -0.818529    18A     -0.764506  
      19A     -0.706480    20A     -0.683344    21A     -0.654918  
      22A     -0.637524    23A     -0.623413    24A     -0.605348  
      25A     -0.580194    26A     -0.546655    27A     -0.540748  
      28A     -0.514542    29A     -0.505234    30A     -0.497149  
      31A     -0.479468    32A     -0.467657    33A     -0.387755  
      34A     -0.381832    35A     -0.372825    36A     -0.326115  

    Virtual:                                                              

      37A      0.241491    38A      0.451212    39A      0.510683  
      40A      0.552374    41A      0.574320    42A      0.591476  
      43A      0.609066    44A      0.615816    45A      0.642707  
      46A      0.652800    47A      0.691604    48A      0.697116  
      49A      0.707946    50A      0.716473    51A      0.745667  
      52A      0.761826    53A      0.789434    54A      0.792905  
      55A      0.801122    56A      0.812573    57A      0.825131  
      58A      0.965178    59A      1.600795  

    Final Occupation by Irrep:
              A 
    DOCC [    36 ]

  @DF-RHF Final Energy:  -416.06005869159162

   => Energetics <=

    Nuclear Repulsion Energy =            486.3522305081662580
    One-Electron Energy =               -1531.0925206075066853
    Two-Electron Energy =                 628.6802314077488063
    Total Energy =                       -416.0600586915916210

Computation Completed


Properties will be evaluated at   0.000000,  -0.000000,   0.000000 [a0]

Properties computed using the HF density matrix


 Multipole Moments:

 ------------------------------------------------------------------------------------
     Multipole            Electronic (a.u.)      Nuclear  (a.u.)        Total (a.u.)
 ------------------------------------------------------------------------------------

 L = 1.  Multiply by 2.5417464519 to convert [e a0] to [Debye]
 Dipole X            :        -10.2976717            9.9666834           -0.3309883
 Dipole Y            :         -4.2131446            3.7389901           -0.4741545
 Dipole Z            :         -3.1942195            4.7055873            1.5113678
 Magnitude           :                                                    1.6182114

 ------------------------------------------------------------------------------------
  Mulliken Charges: (a.u.)
   Center  Symbol    Alpha    Beta     Spin     Total
       1     C     3.06890  3.06890  0.00000 -0.13780
       2     N     3.65553  3.65553  0.00000 -0.31107
       3     C     3.07483  3.07483  0.00000 -0.14966
       4     C     2.80451  2.80451  0.00000  0.39099
       5     C     3.06897  3.06897  0.00000 -0.13793
       6     H     0.42849  0.42849  0.00000  0.14303
       7     H     0.43842  0.43842  0.00000  0.12317
       8     N     3.76640  3.76640  0.00000 -0.53280
       9     O     4.20627  4.20627  0.00000 -0.41254
      10     C     3.16602  3.16602  0.00000 -0.33204
      11     H     0.45079  0.45079  0.00000  0.09842
      12     H     0.43039  0.43039  0.00000  0.13923
      13     C     3.16677  3.16677  0.00000 -0.33355
      14     H     0.43782  0.43782  0.00000  0.12435
      15     H     0.44640  0.44640  0.00000  0.10720
      16     H     0.44326  0.44326  0.00000  0.11347
      17     H     0.43754  0.43754  0.00000  0.12492
      18     H     0.43983  0.43983  0.00000  0.12034
      19     H     0.44114  0.44114  0.00000  0.11772
      20     H     0.37547  0.37547  0.00000  0.24906
      21     H     0.36838  0.36838  0.00000  0.26325
      22     H     0.44471  0.44471  0.00000  0.11057
      23     H     0.43916  0.43916  0.00000  0.12169

   Total alpha = 36.00000, Total beta = 36.00000, Total charge =  0.00000



  Wiberg Bond Indices using Orthogonal Lowdin Orbitals:

  Irrep: 1 Size: 23 x 23

                 1                   2                   3                   4                   5

    1     0.00000000000000     0.99765994425898     0.00261396916460     0.00659297860162     0.00194328013976
    2     0.99765994425898     0.00000000000000     1.00321763216471     0.00878340183015     0.99824760150877
    3     0.00261396916460     1.00321763216471     0.00000000000000     0.96618460763020     0.00191079241926
    4     0.00659297860162     0.00878340183015     0.96618460763020     0.00000000000000     0.00055473202946
    5     0.00194328013976     0.99824760150877     0.00191079241926     0.00055473202946     0.00000000000000
    6     0.00136808172935     0.00200398303658     0.96242399174544     0.00367793997292     0.00661263536634
    7     0.00023484423291     0.01425075084491     0.96375529760708     0.00183825775993     0.00073825483222
    8     0.00068757578831     0.00482518069896     0.00662355004694     1.12400895253944     0.00005326696571
    9     0.00013465177622     0.00330455836529     0.04378630079320     1.83962555918601     0.00144158748100
   10     0.00093552422034     0.00722442821547     0.00764741028569     0.00016045848763     1.00744407980644
   11     0.00071541862770     0.01531632795962     0.00023321363924     0.00020003044256     0.97086083064728
   12     0.00714377064919     0.00233395804334     0.00118558301492     0.00049900386042     0.96910177062916
   13     1.00942358623744     0.00359594733167     0.00794759794937     0.00073682435196     0.00223310967741
   14     0.97072657785718     0.00748529338883     0.00022670668206     0.00009487052286     0.00619929057664
   15     0.97000608332223     0.01477237025406     0.00119656167398     0.00000870011571     0.00027049751299
   16     0.00008921175911     0.00574476857869     0.00061485246514     0.00002550099153     0.00093484776535
   17     0.00004546735589     0.00008767541216     0.00000892243016     0.00000303524500     0.00084510155989
   18     0.00130151931617     0.00481586181050     0.00036039185707     0.00014843563201     0.00044254581820
   19     0.00050780993014     0.00027726795063     0.00005817980382     0.00000195310870     0.00011764611303
   20     0.00001406621607     0.00012011574153     0.00096027772584     0.00051216272820     0.00000417614950
   21     0.00024364480368     0.00077245855051     0.00756261850956     0.00031710856306     0.00000377302310
   22     0.00066793085844     0.00223832103154     0.00015498024752     0.00000162040380     0.00068178190086
   23     0.00083671675282     0.00265614320297     0.00012849979974     0.00002368294832     0.00104441162533

                 6                   7                   8                   9                  10

    1     0.00136808172935     0.00023484423291     0.00068757578831     0.00013465177622     0.00093552422034
    2     0.00200398303658     0.01425075084491     0.00482518069896     0.00330455836529     0.00722442821547
    3     0.96242399174544     0.96375529760708     0.00662355004694     0.04378630079320     0.00764741028569
    4     0.00367793997292     0.00183825775993     1.12400895253944     1.83962555918601     0.00016045848763
    5     0.00661263536634     0.00073825483222     0.00005326696571     0.00144158748100     1.00744407980644
    6     0.00000000000000     0.00049020672952     0.00173683007045     0.01150785498175     0.00055476512205
    7     0.00049020672952     0.00000000000000     0.00116294732051     0.01022510138741     0.00001711263130
    8     0.00173683007045     0.00116294732051     0.00000000000000     0.15157204643667     0.00002087936168
    9     0.01150785498175     0.01022510138741     0.15157204643667     0.00000000000000     0.00003791148846
   10     0.00055476512205     0.00001711263130     0.00002087936168     0.00003791148846     0.00000000000000
   11     0.00000310191066     0.00080207183244     0.00002717611588     0.00016686989181     0.00020111947165
   12     0.00024269355170     0.00014368336414     0.00004132558124     0.00068356788033     0.00144341563664
   13     0.00025229378294     0.00000324221466     0.00022303158750     0.00006333075778     0.16037619308749
   14     0.00027748390652     0.00022397731601     0.00001203662396     0.00000665354263     0.00018949162059
   15     0.00008287072098     0.00067520544209     0.00000360511612     0.00001000677402     0.00142062425158
   16     0.00011917989967     0.00000063986237     0.00000136275958     0.00000919769762     0.98214671355114
   17     0.00000057019838     0.00000012206488     0.00000012528896     0.00002507288974     0.97981130686421
   18     0.00001951904646     0.00000353109526     0.00002763698285     0.00000849611799     0.00200633117312
   19     0.00000012965890     0.00000700907552     0.00000154117755     0.00000267626025     0.00009101986054
   20     0.00002065351067     0.00010636923208     0.96072230765658     0.00794094822225     0.00000031812700
   21     0.00001287073361     0.00002331074744     0.95587708793869     0.00177474584656     0.00000241086093
   22     0.00001810134698     0.00000038323732     0.00000053017212     0.00003595801117     0.80755429307036
   23     0.00000527733362     0.00000010518258     0.00000789638899     0.00000613721194     0.00601418376395

                11                  12                  13                  14                  15

    1     0.00071541862770     0.00714377064919     1.00942358623744     0.97072657785718     0.97000608332223
    2     0.01531632795962     0.00233395804334     0.00359594733167     0.00748529338883     0.01477237025406
    3     0.00023321363924     0.00118558301492     0.00794759794937     0.00022670668206     0.00119656167398
    4     0.00020003044256     0.00049900386042     0.00073682435196     0.00009487052286     0.00000870011571
    5     0.97086083064728     0.96910177062916     0.00223310967741     0.00619929057664     0.00027049751299
    6     0.00000310191066     0.00024269355170     0.00025229378294     0.00027748390652     0.00008287072098
    7     0.00080207183244     0.00014368336414     0.00000324221466     0.00022397731601     0.00067520544209
    8     0.00002717611588     0.00004132558124     0.00022303158750     0.00001203662396     0.00000360511612
    9     0.00016686989181     0.00068356788033     0.00006333075778     0.00000665354263     0.00001000677402
   10     0.00020111947165     0.00144341563664     0.16037619308749     0.00018949162059     0.00142062425158
   11     0.00000000000000     0.00036502131294     0.00007747148254     0.00000000026335     0.00060432172368
   12     0.00036502131294     0.00000000000000     0.00174787484097     0.00049034891696     0.00011044524513
   13     0.00007747148254     0.00174787484097     0.00000000000000     0.00098818206653     0.00043236850373
   14     0.00000000026335     0.00049034891696     0.00098818206653     0.00000000000000     0.00018405802818
   15     0.00060432172368     0.00011044524513     0.00043236850373     0.00018405802818     0.00000000000000
   16     0.00226634895178     0.00000002528936     0.00037411980574     0.00000375414242     0.00000949910688
   17     0.00551278469504     0.00310378981712     0.00096166948099     0.00000358970147     0.00000001209014
   18     0.00001302645985     0.00002076804964     0.97868312027680     0.00295242197525     0.00004025582135
   19     0.00000606210989     0.00004321583968     0.98385429473455     0.00444853923574     0.00301334175637
   20     0.00000008897908     0.00000014573586     0.00000310467216     0.00000056839630     0.00000004069578
   21     0.00000311886518     0.00000563884492     0.00006481010279     0.00000300174429     0.00000179996521
   22     0.00000859294307     0.00369684059661     0.00773646325399     0.00001677530450     0.00005869842556
   23     0.00000078053564     0.00007085875288     0.80722863784959     0.00000303586707     0.00365374135353

                16                  17                  18                  19                  20

    1     0.00008921175911     0.00004546735589     0.00130151931617     0.00050780993014     0.00001406621607
    2     0.00574476857869     0.00008767541216     0.00481586181050     0.00027726795063     0.00012011574153
    3     0.00061485246514     0.00000892243016     0.00036039185707     0.00005817980382     0.00096027772584
    4     0.00002550099153     0.00000303524500     0.00014843563201     0.00000195310870     0.00051216272820
    5     0.00093484776535     0.00084510155989     0.00044254581820     0.00011764611303     0.00000417614950
    6     0.00011917989967     0.00000057019838     0.00001951904646     0.00000012965890     0.00002065351067
    7     0.00000063986237     0.00000012206488     0.00000353109526     0.00000700907552     0.00010636923208
    8     0.00000136275958     0.00000012528896     0.00002763698285     0.00000154117755     0.96072230765658
    9     0.00000919769762     0.00002507288974     0.00000849611799     0.00000267626025     0.00794094822225
   10     0.98214671355114     0.97981130686421     0.00200633117312     0.00009101986054     0.00000031812700
   11     0.00226634895178     0.00551278469504     0.00001302645985     0.00000606210989     0.00000008897908
   12     0.00000002528936     0.00310378981712     0.00002076804964     0.00004321583968     0.00000014573586
   13     0.00037411980574     0.00096166948099     0.97868312027680     0.98385429473455     0.00000310467216
   14     0.00000375414242     0.00000358970147     0.00295242197525     0.00444853923574     0.00000056839630
   15     0.00000949910688     0.00000001209014     0.00004025582135     0.00301334175637     0.00000004069578
   16     0.00000000000000     0.00072995862962     0.00000074206768     0.00002807522322     0.00000006923862
   17     0.00072995862962     0.00000000000000     0.00033455013702     0.00026818762931     0.00000002755454
   18     0.00000074206768     0.00033455013702     0.00000000000000     0.00063372906715     0.00000055628167
   19     0.00002807522322     0.00026818762931     0.00063372906715     0.00000000000000     0.00000000329985
   20     0.00000006923862     0.00000002755454     0.00000055628167     0.00000000329985     0.00000000000000
   21     0.00000018340556     0.00000005187934     0.00000915428694     0.00000029671781     0.00000436250633
   22     0.00116857718727     0.00168540299963     0.00000324587545     0.00051768695870     0.00000001842878
   23     0.00036376411042     0.00002604004992     0.00206131036088     0.00054266014123     0.00000012051476

                21                  22                  23

    1     0.00024364480368     0.00066793085844     0.00083671675282
    2     0.00077245855051     0.00223832103154     0.00265614320297
    3     0.00756261850956     0.00015498024752     0.00012849979974
    4     0.00031710856306     0.00000162040380     0.00002368294832
    5     0.00000377302310     0.00068178190086     0.00104441162533
    6     0.00001287073361     0.00001810134698     0.00000527733362
    7     0.00002331074744     0.00000038323732     0.00000010518258
    8     0.95587708793869     0.00000053017212     0.00000789638899
    9     0.00177474584656     0.00003595801117     0.00000613721194
   10     0.00000241086093     0.80755429307036     0.00601418376395
   11     0.00000311886518     0.00000859294307     0.00000078053564
   12     0.00000563884492     0.00369684059661     0.00007085875288
   13     0.00006481010279     0.00773646325399     0.80722863784959
   14     0.00000300174429     0.00001677530450     0.00000303586707
   15     0.00000179996521     0.00005869842556     0.00365374135353
   16     0.00000018340556     0.00116857718727     0.00036376411042
   17     0.00000005187934     0.00168540299963     0.00002604004992
   18     0.00000915428694     0.00000324587545     0.00206131036088
   19     0.00000029671781     0.00051768695870     0.00054266014123
   20     0.00000436250633     0.00000001842878     0.00000012051476
   21     0.00000000000000     0.00000022938757     0.00000203876385
   22     0.00000022938757     0.00000000000000     0.15843800262701
   23     0.00000203876385     0.15843800262701     0.00000000000000



  Atomic Valences: 

 #  #
 Irrep: 1
      1:    3.973892653598143
      2:    3.099733990179852
      3:    3.978801937655529
      4:    3.953999816951483
      5:    3.971686013547707
      6:    0.991431034355510
      7:    0.994702424012559
      8:    3.207636892618688
      9:    2.072369233000098
     10:    3.965299990958251
     11:    0.997383778860890
     12:    0.992473745453133
     13:    3.967007274048588
     14:    0.994536657679351
     15:    0.996555107899317
     16:    0.994631392488762
     17:    0.993453463973418
     18:    0.993887149509312
     19:    0.994421325652575
     20:    0.970410501613445
     21:    0.966684716046932
     22:    0.984684434268259
     23:    0.983114045137043


*** tstop() called on node165.bme.utexas.edu at Sat Nov 18 08:03:21 2023
Module time:
	user time   =      44.25 seconds =       0.74 minutes
	system time =       1.38 seconds =       0.02 minutes
	total time  =          2 seconds =       0.03 minutes
Total time:
	user time   =      44.25 seconds =       0.74 minutes
	system time =       1.38 seconds =       0.02 minutes
	total time  =          2 seconds =       0.03 minutes
  ==> One Electron Grid Properties (v2.0) <==

  ==> CubicScalarGrid <==

    Filepath     = .
    Total Points =           765600
    XYZ Blocking =               10
    X Points     =              116
    Y Points     =               88
    Z Points     =               75
    X Spacing    =        2.000E-01
    Y Spacing    =        2.000E-01
    Z Spacing    =        2.000E-01
    X Minimum    =       -1.146E+01
    Y Minimum    =       -7.721E+00
    Z Minimum    =       -7.262E+00
    X Maximum    =        1.154E+01
    Y Maximum    =        9.679E+00
    Z Maximum    =        7.538E+00

  Basis Set: MINIX
    Blend: MINIX
    Number of shells: 41
    Number of basis functions: 59
    Number of Cartesian functions: 59
    Spherical Harmonics?: true
    Max angular momentum: 1

*********************************************************************************************************************
When computing potential integrals with different bra and ket basis, the atom definition is taken from the bra basis.
*********************************************************************************************************************
*********************************************************************************************************************
When computing potential integrals with different bra and ket basis, the atom definition is taken from the bra basis.
*********************************************************************************************************************
*********************************************************************************************************************
When computing potential integrals with different bra and ket basis, the atom definition is taken from the bra basis.
*********************************************************************************************************************
*********************************************************************************************************************
When computing potential integrals with different bra and ket basis, the atom definition is taken from the bra basis.
*********************************************************************************************************************
*********************************************************************************************************************
When computing potential integrals with different bra and ket basis, the atom definition is taken from the bra basis.
*********************************************************************************************************************
*********************************************************************************************************************
When computing potential integrals with different bra and ket basis, the atom definition is taken from the bra basis.
*********************************************************************************************************************
*********************************************************************************************************************
When computing potential integrals with different bra and ket basis, the atom definition is taken from the bra basis.
*********************************************************************************************************************
*********************************************************************************************************************
When computing potential integrals with different bra and ket basis, the atom definition is taken from the bra basis.
*********************************************************************************************************************
*********************************************************************************************************************
When computing potential integrals with different bra and ket basis, the atom definition is taken from the bra basis.
*********************************************************************************************************************
*********************************************************************************************************************
When computing potential integrals with different bra and ket basis, the atom definition is taken from the bra basis.
*********************************************************************************************************************
*********************************************************************************************************************
When computing potential integrals with different bra and ket basis, the atom definition is taken from the bra basis.
*********************************************************************************************************************
*********************************************************************************************************************
When computing potential integrals with different bra and ket basis, the atom definition is taken from the bra basis.
*********************************************************************************************************************
*********************************************************************************************************************
When computing potential integrals with different bra and ket basis, the atom definition is taken from the bra basis.
*********************************************************************************************************************
*********************************************************************************************************************
When computing potential integrals with different bra and ket basis, the atom definition is taken from the bra basis.
*********************************************************************************************************************
*********************************************************************************************************************
When computing potential integrals with different bra and ket basis, the atom definition is taken from the bra basis.
*********************************************************************************************************************
*********************************************************************************************************************
When computing potential integrals with different bra and ket basis, the atom definition is taken from the bra basis.
*********************************************************************************************************************
*********************************************************************************************************************
When computing potential integrals with different bra and ket basis, the atom definition is taken from the bra basis.
*********************************************************************************************************************
*********************************************************************************************************************
When computing potential integrals with different bra and ket basis, the atom definition is taken from the bra basis.
*********************************************************************************************************************
*********************************************************************************************************************
When computing potential integrals with different bra and ket basis, the atom definition is taken from the bra basis.
*********************************************************************************************************************
*********************************************************************************************************************
When computing potential integrals with different bra and ket basis, the atom definition is taken from the bra basis.
*********************************************************************************************************************
*********************************************************************************************************************
When computing potential integrals with different bra and ket basis, the atom definition is taken from the bra basis.
*********************************************************************************************************************
*********************************************************************************************************************
When computing potential integrals with different bra and ket basis, the atom definition is taken from the bra basis.
*********************************************************************************************************************
*********************************************************************************************************************
When computing potential integrals with different bra and ket basis, the atom definition is taken from the bra basis.
*********************************************************************************************************************
*********************************************************************************************************************
When computing potential integrals with different bra and ket basis, the atom definition is taken from the bra basis.
*********************************************************************************************************************
*********************************************************************************************************************
When computing potential integrals with different bra and ket basis, the atom definition is taken from the bra basis.
*********************************************************************************************************************
*********************************************************************************************************************
When computing potential integrals with different bra and ket basis, the atom definition is taken from the bra basis.
*********************************************************************************************************************
*********************************************************************************************************************
When computing potential integrals with different bra and ket basis, the atom definition is taken from the bra basis.
*********************************************************************************************************************
*********************************************************************************************************************
When computing potential integrals with different bra and ket basis, the atom definition is taken from the bra basis.
*********************************************************************************************************************
*********************************************************************************************************************
When computing potential integrals with different bra and ket basis, the atom definition is taken from the bra basis.
*********************************************************************************************************************
*********************************************************************************************************************
When computing potential integrals with different bra and ket basis, the atom definition is taken from the bra basis.
*********************************************************************************************************************
*********************************************************************************************************************
When computing potential integrals with different bra and ket basis, the atom definition is taken from the bra basis.
*********************************************************************************************************************
*********************************************************************************************************************
When computing potential integrals with different bra and ket basis, the atom definition is taken from the bra basis.
*********************************************************************************************************************
*********************************************************************************************************************
When computing potential integrals with different bra and ket basis, the atom definition is taken from the bra basis.
*********************************************************************************************************************
*********************************************************************************************************************
When computing potential integrals with different bra and ket basis, the atom definition is taken from the bra basis.
*********************************************************************************************************************
*********************************************************************************************************************
When computing potential integrals with different bra and ket basis, the atom definition is taken from the bra basis.
*********************************************************************************************************************
*********************************************************************************************************************
When computing potential integrals with different bra and ket basis, the atom definition is taken from the bra basis.
*********************************************************************************************************************
*********************************************************************************************************************
When computing potential integrals with different bra and ket basis, the atom definition is taken from the bra basis.
*********************************************************************************************************************
*********************************************************************************************************************
When computing potential integrals with different bra and ket basis, the atom definition is taken from the bra basis.
*********************************************************************************************************************
*********************************************************************************************************************
When computing potential integrals with different bra and ket basis, the atom definition is taken from the bra basis.
*********************************************************************************************************************
*********************************************************************************************************************
When computing potential integrals with different bra and ket basis, the atom definition is taken from the bra basis.
*********************************************************************************************************************
*********************************************************************************************************************
When computing potential integrals with different bra and ket basis, the atom definition is taken from the bra basis.
*********************************************************************************************************************
*********************************************************************************************************************
When computing potential integrals with different bra and ket basis, the atom definition is taken from the bra basis.
*********************************************************************************************************************
*********************************************************************************************************************
When computing potential integrals with different bra and ket basis, the atom definition is taken from the bra basis.
*********************************************************************************************************************
*********************************************************************************************************************
When computing potential integrals with different bra and ket basis, the atom definition is taken from the bra basis.
*********************************************************************************************************************
*********************************************************************************************************************
When computing potential integrals with different bra and ket basis, the atom definition is taken from the bra basis.
*********************************************************************************************************************
*********************************************************************************************************************
When computing potential integrals with different bra and ket basis, the atom definition is taken from the bra basis.
*********************************************************************************************************************
*********************************************************************************************************************
When computing potential integrals with different bra and ket basis, the atom definition is taken from the bra basis.
*********************************************************************************************************************
*********************************************************************************************************************
When computing potential integrals with different bra and ket basis, the atom definition is taken from the bra basis.
*********************************************************************************************************************
*********************************************************************************************************************
When computing potential integrals with different bra and ket basis, the atom definition is taken from the bra basis.
*********************************************************************************************************************
*********************************************************************************************************************
When computing potential integrals with different bra and ket basis, the atom definition is taken from the bra basis.
*********************************************************************************************************************
*********************************************************************************************************************
When computing potential integrals with different bra and ket basis, the atom definition is taken from the bra basis.
*********************************************************************************************************************
FCHKWriter: !WARNING! method 'HF'' renamed to label 'HF'.
FCHKWriter: Writing farH_in17-esp_frag.fchk with label ' SCF Density'.

    Psi4 stopped on: Saturday, 18 November 2023 08:03AM
    Psi4 wall time for execution: 0:00:04.94

*** Psi4 exiting successfully. Buy a developer a beer!
