
    -----------------------------------------------------------------------
          Psi4: An Open-Source Ab Initio Electronic Structure Package
                               Psi4 1.3.2 release

                         Git: Rev {HEAD} ecbda83 


    R. M. Parrish, L. A. Burns, D. G. A. Smith, A. C. Simmonett,
    A. E. DePrince III, E. G. Hohenstein, U. Bozkaya, A. Yu. Sokolov,
    R. Di Remigio, R. M. Richard, J. F. Gonthier, A. M. James,
    H. R. McAlexander, A. Kumar, M. Saitow, X. Wang, B. P. Pritchard,
    P. Verma, H. F. Schaefer III, K. Patkowski, R. A. King, E. F. Valeev,
    F. A. Evangelista, J. M. Turney, T. D. Crawford, and C. D. Sherrill,
    J. Chem. Theory Comput. 13(7) pp 3185--3197 (2017).
    (doi: 10.1021/acs.jctc.7b00174)


                         Additional Contributions by
    P. Kraus, H. Kruse, M. H. Lechner, M. C. Schieber, R. A. Shaw,
    A. Alenaizan, R. Galvelis, Z. L. Glick, S. Lehtola, and J. P. Misiewicz

    -----------------------------------------------------------------------


    Psi4 started on: Saturday, 06 November 2021 09:14AM

    Process ID: 22849
    Host:       node44.bme.utexas.edu
    PSIDATADIR: /home/bdw2292/miniconda3/envs/amoebamdpoltype/share/psi4
    Memory:     500.0 MiB
    Threads:    1
    
  ==> Input File <==

--------------------------------------------------------------------------
molecule { 
0 1
 C   -0.831709    1.853923    0.193567
 C   -0.747596    0.486031    0.357981
 N    0.223349    0.008986    1.276761
 C    1.508600   -0.557202    0.959413
 H   -0.247916   -0.547589    1.992464
 C    0.224116    2.735146   -0.276461
 N   -1.590748    4.006639    0.160668
 C   -2.027039    2.727269    0.471430
 C   -0.274389    4.000096   -0.279865
 C   -1.642998   -0.533369   -0.260282
 C   -3.049118   -0.390146   -0.135113
 C   -1.140250   -1.696158   -0.898040
 C   -3.918665   -1.349363   -0.667918
 C   -2.011965   -2.653555   -1.432400
 C   -3.406575   -2.485145   -1.324846
 C    2.330100   -1.030898    2.012567
 C    2.023429   -0.616622   -0.361357
 C    3.591154   -1.583139    1.750896
 C    3.285934   -1.169186   -0.616736
 C    4.099413   -1.663461    0.431767
 H   -2.192778    4.811806    0.256308
 O   -3.168953    2.477288    0.880238
 H   -3.461957    0.477725    0.383669
 H   -0.065496   -1.854789   -0.972871
 H   -4.995952   -1.209827   -0.567638
 H   -1.602101   -3.533689   -1.930202
 H   -4.085165   -3.230789   -1.742562
 H    1.984628   -0.974143    3.047462
 H    1.444013   -0.229265   -1.202057
 H    4.181988   -1.955908    2.590599
 H    3.637369   -1.212953   -1.650038
 N    5.377897   -2.237347    0.166881
 H    1.223711    2.436835   -0.558928
 H    0.199212    4.931394   -0.558581
 H    6.036460   -2.144517    0.940880
 H    5.815760   -1.885429   -0.685023
}
set optking { 
  frozen_dihedral = ("
    1 2 3 4
    10 2 3 4
    1 2 10 11
    1 2 10 12
    3 2 10 11
    16 4 3 2
    18 20 32 35
  ")
}
set {
  geom_maxiter 400
  g_convergence GAU_LOOSE
  dynamic_level 1
}
memory 8.333333333333334GB
set_num_threads(1)
psi4_io.set_default_path("/scratch/bdw2292/Psi4-7_1_Index_0_GrowFragment_0-farH_in17")
for _ in range(1):
  try:
    set opt_coordinates both
    optimize('wb97x-d/6-311G')
    break
  except OptimizationConvergenceError:
    break
  else:
    try:
      set opt_coordinates cartesian
      optimize('wb97x-d/6-311G')
      break
    except OptimizationConvergenceError:
      pass
clean()
--------------------------------------------------------------------------

  Memory set to   7.761 GiB by Python driver.
  Threads set to 1 by Python driver.
gradient() will perform analytic gradient computation.

*** tstart() called on node44.bme.utexas.edu
*** at Sat Nov  6 09:14:07 2021

   => Loading Basis Set <=

    Name: 6-311G
    Role: ORBITAL
    Keyword: BASIS
    atoms 1-2, 4, 6, 8-20     entry C          line    92 file /home/bdw2292/miniconda3/envs/amoebamdpoltype/share/psi4/basis/6-311g.gbs 
    atoms 3, 7, 32            entry N          line   109 file /home/bdw2292/miniconda3/envs/amoebamdpoltype/share/psi4/basis/6-311g.gbs 
    atoms 5, 21, 23-31, 33-36 entry H          line    21 file /home/bdw2292/miniconda3/envs/amoebamdpoltype/share/psi4/basis/6-311g.gbs 
    atoms 22                  entry O          line   126 file /home/bdw2292/miniconda3/envs/amoebamdpoltype/share/psi4/basis/6-311g.gbs 


         ---------------------------------------------------------
                                   SCF
               by Justin Turney, Rob Parrish, Andy Simmonett
                          and Daniel G. A. Smith
                              RKS Reference
                        1 Threads,   7947 MiB Core
         ---------------------------------------------------------

  ==> Geometry <==

    Molecular point group: c1
    Full point group: C1

    Geometry (in Angstrom), charge = 0, multiplicity = 1:

       Center              X                  Y                   Z               Mass       
    ------------   -----------------  -----------------  -----------------  -----------------
         C           -0.794017391726     1.813337971813     0.067347336397    12.000000000000
         C           -0.709904391726     0.445445971813     0.231761336397    12.000000000000
         N            0.261040608274    -0.031599028187     1.150541336397    14.003074004430
         C            1.546291608274    -0.597787028187     0.833193336397    12.000000000000
         H           -0.210224391726    -0.588174028187     1.866244336397     1.007825032230
         C            0.261807608274     2.694560971813    -0.402680663603    12.000000000000
         N           -1.553056391726     3.966053971813     0.034448336397    14.003074004430
         C           -1.989347391726     2.686683971813     0.345210336397    12.000000000000
         C           -0.236697391726     3.959510971813    -0.406084663603    12.000000000000
         C           -1.605306391726    -0.573954028187    -0.386501663603    12.000000000000
         C           -3.011426391726    -0.430731028187    -0.261332663603    12.000000000000
         C           -1.102558391726    -1.736743028187    -1.024259663603    12.000000000000
         C           -3.880973391726    -1.389948028187    -0.794137663603    12.000000000000
         C           -1.974273391726    -2.694140028187    -1.558619663603    12.000000000000
         C           -3.368883391726    -2.525730028187    -1.451065663603    12.000000000000
         C            2.367791608274    -1.071483028187     1.886347336397    12.000000000000
         C            2.061120608274    -0.657207028187    -0.487576663603    12.000000000000
         C            3.628845608274    -1.623724028187     1.624676336397    12.000000000000
         C            3.323625608274    -1.209771028187    -0.742955663603    12.000000000000
         C            4.137104608274    -1.704046028187     0.305547336397    12.000000000000
         H           -2.155086391726     4.771220971813     0.130088336397     1.007825032230
         O           -3.131261391726     2.436702971813     0.754018336397    15.994914619570
         H           -3.424265391726     0.437139971813     0.257449336397     1.007825032230
         H           -0.027804391726    -1.895374028187    -1.099090663603     1.007825032230
         H           -4.958260391726    -1.250412028187    -0.693857663603     1.007825032230
         H           -1.564409391726    -3.574274028187    -2.056421663603     1.007825032230
         H           -4.047473391726    -3.271374028187    -1.868781663603     1.007825032230
         H            2.022319608274    -1.014728028187     2.921242336397     1.007825032230
         H            1.481704608274    -0.269850028187    -1.328276663603     1.007825032230
         H            4.219679608274    -1.996493028187     2.464379336397     1.007825032230
         H            3.675060608274    -1.253538028187    -1.776257663603     1.007825032230
         N            5.415588608274    -2.277932028187     0.040661336397    14.003074004430
         H            1.261402608274     2.396249971813    -0.685147663603     1.007825032230
         H            0.236903608274     4.890808971813    -0.684800663603     1.007825032230
         H            6.074151608274    -2.185102028187     0.814660336397     1.007825032230
         H            5.853451608274    -1.926014028187    -0.811242663603     1.007825032230

  Running in c1 symmetry.

  Rotational constants: A =      0.01379  B =      0.00698  C =      0.00513 [cm^-1]
  Rotational constants: A =    413.40724  B =    209.23751  C =    153.76553 [MHz]
  Nuclear repulsion = 1518.270416532787067

  Charge       = 0
  Multiplicity = 1
  Electrons    = 146
  Nalpha       = 73
  Nbeta        = 73

  ==> Algorithm <==

  SCF Algorithm Type is DF.
  DIIS enabled.
  MOM disabled.
  Fractional occupation disabled.
  Guess Type is SAD.
  Energy threshold   = 1.00e-08
  Density threshold  = 1.00e-08
  Integral threshold = 0.00e+00

  ==> Primary Basis <==

  Basis Set: 6-311G
    Blend: 6-311G
    Number of shells: 192
    Number of basis function: 318
    Number of Cartesian functions: 318
    Spherical Harmonics?: true
    Max angular momentum: 1

  ==> DFT Potential <==

   => Composite Functional: WB97X-D <= 

    wB97X-D Hyb-GGA Exchange-Correlation Functional

    J.-D. Chai and M. Head-Gordon, Phys. Chem. Chem. Phys. 10, 6615 (2008)

    Deriv               =              1
    GGA                 =           TRUE
    Meta                =          FALSE

    Exchange Hybrid     =           TRUE
    MP2 Hybrid          =          FALSE

   => Exchange-Correlation Functionals <=

    1.0000   wB97D range-separated functional

   => Exact (HF) Exchange <=

    0.7780            HF,LR [omega = 0.2000]
    0.2220               HF 

   => Molecular Quadrature <=

    Radial Scheme          =       TREUTLER
    Pruning Scheme         =           FLAT
    Nuclear Scheme         =       TREUTLER

    BS radius alpha        =              1
    Pruning alpha          =              1
    Radial Points          =             75
    Spherical Points       =            302
    Total Points           =         806463
    Total Blocks           =           5730
    Max Points             =            256
    Max Functions          =            217

   => WB97X-D: Empirical Dispersion <=

    Chai and Head-Gordon Dispersion Correction
    Chai, J.-D.; Head-Gordon, M. (2010), J. Chem. Phys., 132: 6615-6620

        s6 =       1.000000

   => Loading Basis Set <=

    Name: (6-311G AUX)
    Role: JKFIT
    Keyword: DF_BASIS_SCF
    atoms 1-2, 4, 6, 8-20     entry C          line   125 file /home/bdw2292/miniconda3/envs/amoebamdpoltype/share/psi4/basis/cc-pvtz-jkfit.gbs 
    atoms 3, 7, 32            entry N          line   177 file /home/bdw2292/miniconda3/envs/amoebamdpoltype/share/psi4/basis/cc-pvtz-jkfit.gbs 
    atoms 5, 21, 23-31, 33-36 entry H          line    51 file /home/bdw2292/miniconda3/envs/amoebamdpoltype/share/psi4/basis/cc-pvtz-jkfit.gbs 
    atoms 22                  entry O          line   229 file /home/bdw2292/miniconda3/envs/amoebamdpoltype/share/psi4/basis/cc-pvtz-jkfit.gbs 

  ==> Pre-Iterations <==

   -------------------------------------------------------
    Irrep   Nso     Nmo     Nalpha   Nbeta   Ndocc  Nsocc
   -------------------------------------------------------
     A        318     318       0       0       0       0
   -------------------------------------------------------
    Total     318     318      73      73      73       0
   -------------------------------------------------------

  ==> Integral Setup <==

  ==> DiskDFJK: Density-Fitted J/K Matrices <==

    J tasked:                  Yes
    K tasked:                  Yes
    wK tasked:                 Yes
    Omega:               2.000E-01
    OpenMP threads:              1
    Integrals threads:           1
    Memory [MiB]:             2603
    Algorithm:                Core
    Integral Cache:           NONE
    Schwarz Cutoff:          1E-12
    Fitting Condition:       1E-10

   => Auxiliary Basis Set <=

  Basis Set: (6-311G AUX)
    Blend: CC-PVTZ-JKFIT
    Number of shells: 675
    Number of basis function: 2109
    Number of Cartesian functions: 2541
    Spherical Harmonics?: true
    Max angular momentum: 4

  Cached 100.0% of DFT collocation blocks in 3.279 [GiB].

  Minimum eigenvalue in the overlap matrix is 2.4395302284E-04.
  Using Symmetric Orthogonalization.

  SCF Guess: Superposition of Atomic Densities via on-the-fly atomic UHF.

  ==> Iterations <==

                           Total Energy        Delta E     RMS |[F,P]|

   @DF-RKS iter SAD:  -895.09419797297892   -8.95094e+02   0.00000e+00 
   @DF-RKS iter   1:  -895.24792102357208   -1.53723e-01   3.64929e-03 DIIS
   @DF-RKS iter   2:  -895.46066155894891   -2.12741e-01   3.27372e-03 DIIS
   @DF-RKS iter   3:  -895.85851304087237   -3.97851e-01   9.18979e-04 DIIS
   @DF-RKS iter   4:  -895.89245749308543   -3.39445e-02   2.07559e-04 DIIS
   @DF-RKS iter   5:  -895.89427969770884   -1.82220e-03   7.16397e-05 DIIS
   @DF-RKS iter   6:  -895.89455809559615   -2.78398e-04   1.54552e-05 DIIS
   @DF-RKS iter   7:  -895.89459080108918   -3.27055e-05   7.80412e-06 DIIS
   @DF-RKS iter   8:  -895.89460114568033   -1.03446e-05   3.29500e-06 DIIS
   @DF-RKS iter   9:  -895.89460480286346   -3.65718e-06   1.81192e-06 DIIS
   @DF-RKS iter  10:  -895.89460532024759   -5.17384e-07   6.37486e-07 DIIS
   @DF-RKS iter  11:  -895.89460540256732   -8.23197e-08   3.95712e-07 DIIS
   @DF-RKS iter  12:  -895.89460543123960   -2.86723e-08   1.35449e-07 DIIS
   @DF-RKS iter  13:  -895.89460543999007   -8.75048e-09   7.90407e-08 DIIS
   @DF-RKS iter  14:  -895.89460544148767   -1.49760e-09   3.76636e-08 DIIS
   @DF-RKS iter  15:  -895.89460544207304   -5.85374e-10   1.69269e-08 DIIS
   @DF-RKS iter  16:  -895.89460544215444   -8.13998e-11   1.01119e-08 DIIS
   @DF-RKS iter  17:  -895.89460544218605   -3.16049e-11   4.01016e-09 DIIS
  Energy and wave function converged.


  ==> Post-Iterations <==

    Orbital Energies [Eh]
    ---------------------

    Doubly Occupied:                                                      

       1A    -19.224144     2A    -14.477078     3A    -14.451100  
       4A    -14.438339     5A    -10.405797     6A    -10.367229  
       7A    -10.339995     8A    -10.339008     9A    -10.337657  
      10A    -10.314921    11A    -10.313444    12A    -10.299533  
      13A    -10.298080    14A    -10.296960    15A    -10.296754  
      16A    -10.296290    17A    -10.296229    18A    -10.295701  
      19A    -10.292649    20A    -10.292286    21A    -10.287029  
      22A     -1.159213    23A     -1.072465    24A     -1.052538  
      25A     -1.019900    26A     -0.963261    27A     -0.942528  
      28A     -0.909090    29A     -0.869782    30A     -0.853766  
      31A     -0.848167    32A     -0.833857    33A     -0.818432  
      34A     -0.769337    35A     -0.721557    36A     -0.709983  
      37A     -0.703153    38A     -0.698410    39A     -0.690388  
      40A     -0.645707    41A     -0.625746    42A     -0.622785  
      43A     -0.610815    44A     -0.597775    45A     -0.590424  
      46A     -0.566641    47A     -0.557358    48A     -0.543728  
      49A     -0.536318    50A     -0.532418    51A     -0.526555  
      52A     -0.524469    53A     -0.517375    54A     -0.514853  
      55A     -0.510329    56A     -0.503217    57A     -0.489453  
      58A     -0.480939    59A     -0.472808    60A     -0.457000  
      61A     -0.445802    62A     -0.432065    63A     -0.427866  
      64A     -0.417567    65A     -0.415786    66A     -0.365916  
      67A     -0.349641    68A     -0.341888    69A     -0.334584  
      70A     -0.329621    71A     -0.326356    72A     -0.269152  
      73A     -0.250267  

    Virtual:                                                              

      74A     -0.040255    75A      0.055504    76A      0.060676  
      77A      0.065177    78A      0.083082    79A      0.115968  
      80A      0.117021    81A      0.125665    82A      0.132768  
      83A      0.135509    84A      0.141722    85A      0.147450  
      86A      0.159341    87A      0.162922    88A      0.170748  
      89A      0.179309    90A      0.190274    91A      0.197804  
      92A      0.207890    93A      0.219808    94A      0.225616  
      95A      0.226753    96A      0.241718    97A      0.251565  
      98A      0.267478    99A      0.280764   100A      0.293797  
     101A      0.308562   102A      0.313361   103A      0.327139  
     104A      0.340166   105A      0.345149   106A      0.352485  
     107A      0.358813   108A      0.365487   109A      0.369226  
     110A      0.378368   111A      0.381362   112A      0.391790  
     113A      0.401061   114A      0.414112   115A      0.423394  
     116A      0.429940   117A      0.445453   118A      0.447777  
     119A      0.462247   120A      0.463633   121A      0.467771  
     122A      0.473777   123A      0.477538   124A      0.481038  
     125A      0.484742   126A      0.487006   127A      0.492388  
     128A      0.494482   129A      0.505217   130A      0.510141  
     131A      0.511986   132A      0.514751   133A      0.521669  
     134A      0.523667   135A      0.542705   136A      0.545485  
     137A      0.551123   138A      0.560277   139A      0.560955  
     140A      0.563061   141A      0.565497   142A      0.569587  
     143A      0.580961   144A      0.589790   145A      0.597215  
     146A      0.603028   147A      0.609510   148A      0.619118  
     149A      0.628452   150A      0.632294   151A      0.641280  
     152A      0.646110   153A      0.664582   154A      0.666878  
     155A      0.676458   156A      0.684081   157A      0.693141  
     158A      0.695304   159A      0.703934   160A      0.704146  
     161A      0.709852   162A      0.716178   163A      0.726728  
     164A      0.730004   165A      0.737726   166A      0.744802  
     167A      0.745259   168A      0.750773   169A      0.752199  
     170A      0.759029   171A      0.777279   172A      0.780653  
     173A      0.788727   174A      0.792892   175A      0.808636  
     176A      0.821050   177A      0.826083   178A      0.832809  
     179A      0.855270   180A      0.857675   181A      0.865132  
     182A      0.868513   183A      0.877183   184A      0.889904  
     185A      0.899038   186A      0.900112   187A      0.909020  
     188A      0.922345   189A      0.932674   190A      0.935475  
     191A      0.945130   192A      0.963973   193A      0.966266  
     194A      0.979232   195A      0.986501   196A      0.989748  
     197A      1.000911   198A      1.022905   199A      1.027993  
     200A      1.040649   201A      1.047439   202A      1.060586  
     203A      1.076508   204A      1.100438   205A      1.105322  
     206A      1.118445   207A      1.133651   208A      1.141954  
     209A      1.174537   210A      1.208600   211A      1.237279  
     212A      1.277839   213A      1.291815   214A      1.347975  
     215A      1.381260   216A      1.430266   217A      1.481494  
     218A      1.661610   219A      1.821500   220A      2.268332  
     221A      2.305440   222A      2.316797   223A      2.346039  
     224A      2.361268   225A      2.369883   226A      2.370508  
     227A      2.371419   228A      2.392054   229A      2.446285  
     230A      2.453030   231A      2.478745   232A      2.504197  
     233A      2.572008   234A      2.610592   235A      2.632830  
     236A      2.635233   237A      2.642431   238A      2.664440  
     239A      2.668574   240A      2.678580   241A      2.687670  
     242A      2.706569   243A      2.745724   244A      2.789789  
     245A      2.793617   246A      2.807408   247A      2.809808  
     248A      2.823206   249A      2.824115   250A      2.839147  
     251A      2.851868   252A      2.867547   253A      2.879536  
     254A      2.888809   255A      2.911516   256A      2.918270  
     257A      2.966036   258A      2.982581   259A      2.989150  
     260A      3.023556   261A      3.029114   262A      3.049110  
     263A      3.076854   264A      3.119891   265A      3.127290  
     266A      3.138148   267A      3.172609   268A      3.191268  
     269A      3.202524   270A      3.213297   271A      3.230498  
     272A      3.241764   273A      3.263642   274A      3.281174  
     275A      3.300762   276A      3.312393   277A      3.317043  
     278A      3.333088   279A      3.353495   280A      3.369663  
     281A      3.378762   282A      3.386128   283A      3.433693  
     284A      3.495851   285A      3.543221   286A      3.810603  
     287A      3.833872   288A      3.943418   289A      4.076235  
     290A      4.094198   291A      4.103916   292A      4.177273  
     293A      4.216693   294A      4.260500   295A      4.986887  
     296A      5.106212   297A      5.188429   298A     23.240694  
     299A     23.247069   300A     23.336805   301A     23.465068  
     302A     23.479620   303A     23.481715   304A     23.503675  
     305A     23.527762   306A     23.586820   307A     23.711313  
     308A     23.723584   309A     23.750058   310A     23.760147  
     311A     23.799993   312A     23.851893   313A     23.982303  
     314A     23.995230   315A     35.507369   316A     35.538766  
     317A     35.635279   318A     50.066200  

    Final Occupation by Irrep:
              A 
    DOCC [    73 ]

  @DF-RKS Final Energy:  -895.89460544218605

   => Energetics <=

    Nuclear Repulsion Energy =           1518.2704165327870669
    One-Electron Energy =               -4229.3415713972299272
    Two-Electron Energy =                1902.7916715592948549
    DFT Exchange-Correlation Energy =     -87.5894568170858179
    Empirical Dispersion Energy =          -0.0256653199519103
    VV10 Nonlocal Energy =                  0.0000000000000000
    Total Energy =                       -895.8946054421860481

Computation Completed


Properties will be evaluated at   0.000000,   0.000000,   0.000000 [a0]

Properties computed using the SCF density matrix

  Nuclear Dipole Moment: [e a0]
     X:     7.8825      Y:    -6.3022      Z:    -2.3903

  Electronic Dipole Moment: [e a0]
     X:    -6.4496      Y:     6.7695      Z:     2.0169

  Dipole Moment: [e a0]
     X:     1.4330      Y:     0.4673      Z:    -0.3734     Total:     1.5528

  Dipole Moment: [D]
     X:     3.6423      Y:     1.1878      Z:    -0.9491     Total:     3.9469


*** tstop() called on node44.bme.utexas.edu at Sat Nov  6 09:24:07 2021
Module time:
	user time   =     577.63 seconds =       9.63 minutes
	system time =      22.20 seconds =       0.37 minutes
	total time  =        600 seconds =      10.00 minutes
Total time:
	user time   =     577.63 seconds =       9.63 minutes
	system time =      22.20 seconds =       0.37 minutes
	total time  =        600 seconds =      10.00 minutes

*** tstart() called on node44.bme.utexas.edu
*** at Sat Nov  6 09:24:07 2021


         ------------------------------------------------------------
                                   SCF GRAD                          
                          Rob Parrish, Justin Turney,                
                       Andy Simmonett, and Alex Sokolov              
         ------------------------------------------------------------

  ==> Geometry <==

    Molecular point group: c1
    Full point group: C1

    Geometry (in Angstrom), charge = 0, multiplicity = 1:

       Center              X                  Y                   Z               Mass       
    ------------   -----------------  -----------------  -----------------  -----------------
         C           -0.794017391726     1.813337971813     0.067347336397    12.000000000000
         C           -0.709904391726     0.445445971813     0.231761336397    12.000000000000
         N            0.261040608274    -0.031599028187     1.150541336397    14.003074004430
         C            1.546291608274    -0.597787028187     0.833193336397    12.000000000000
         H           -0.210224391726    -0.588174028187     1.866244336397     1.007825032230
         C            0.261807608274     2.694560971813    -0.402680663603    12.000000000000
         N           -1.553056391726     3.966053971813     0.034448336397    14.003074004430
         C           -1.989347391726     2.686683971813     0.345210336397    12.000000000000
         C           -0.236697391726     3.959510971813    -0.406084663603    12.000000000000
         C           -1.605306391726    -0.573954028187    -0.386501663603    12.000000000000
         C           -3.011426391726    -0.430731028187    -0.261332663603    12.000000000000
         C           -1.102558391726    -1.736743028187    -1.024259663603    12.000000000000
         C           -3.880973391726    -1.389948028187    -0.794137663603    12.000000000000
         C           -1.974273391726    -2.694140028187    -1.558619663603    12.000000000000
         C           -3.368883391726    -2.525730028187    -1.451065663603    12.000000000000
         C            2.367791608274    -1.071483028187     1.886347336397    12.000000000000
         C            2.061120608274    -0.657207028187    -0.487576663603    12.000000000000
         C            3.628845608274    -1.623724028187     1.624676336397    12.000000000000
         C            3.323625608274    -1.209771028187    -0.742955663603    12.000000000000
         C            4.137104608274    -1.704046028187     0.305547336397    12.000000000000
         H           -2.155086391726     4.771220971813     0.130088336397     1.007825032230
         O           -3.131261391726     2.436702971813     0.754018336397    15.994914619570
         H           -3.424265391726     0.437139971813     0.257449336397     1.007825032230
         H           -0.027804391726    -1.895374028187    -1.099090663603     1.007825032230
         H           -4.958260391726    -1.250412028187    -0.693857663603     1.007825032230
         H           -1.564409391726    -3.574274028187    -2.056421663603     1.007825032230
         H           -4.047473391726    -3.271374028187    -1.868781663603     1.007825032230
         H            2.022319608274    -1.014728028187     2.921242336397     1.007825032230
         H            1.481704608274    -0.269850028187    -1.328276663603     1.007825032230
         H            4.219679608274    -1.996493028187     2.464379336397     1.007825032230
         H            3.675060608274    -1.253538028187    -1.776257663603     1.007825032230
         N            5.415588608274    -2.277932028187     0.040661336397    14.003074004430
         H            1.261402608274     2.396249971813    -0.685147663603     1.007825032230
         H            0.236903608274     4.890808971813    -0.684800663603     1.007825032230
         H            6.074151608274    -2.185102028187     0.814660336397     1.007825032230
         H            5.853451608274    -1.926014028187    -0.811242663603     1.007825032230

  Nuclear repulsion = 1518.270416532787067

  ==> Basis Set <==

  Basis Set: 6-311G
    Blend: 6-311G
    Number of shells: 192
    Number of basis function: 318
    Number of Cartesian functions: 318
    Spherical Harmonics?: true
    Max angular momentum: 1

  ==> DFJKGrad: Density-Fitted SCF Gradients <==

    Gradient:                    1
    J tasked:                  Yes
    K tasked:                  Yes
    wK tasked:                 Yes
    Omega:               2.000E-01
    OpenMP threads:              1
    Integrals threads:           1
    Memory [MiB]:             5960
    Schwarz Cutoff:          0E+00
    Fitting Condition:       1E-10

   => Auxiliary Basis Set <=

  Basis Set: (6-311G AUX)
    Blend: CC-PVTZ-JKFIT
    Number of shells: 675
    Number of basis function: 2109
    Number of Cartesian functions: 2541
    Spherical Harmonics?: true
    Max angular momentum: 4

  ==> DFT Potential <==

   => Composite Functional: WB97X-D <= 

    wB97X-D Hyb-GGA Exchange-Correlation Functional

    J.-D. Chai and M. Head-Gordon, Phys. Chem. Chem. Phys. 10, 6615 (2008)

    Deriv               =              1
    GGA                 =           TRUE
    Meta                =          FALSE

    Exchange Hybrid     =           TRUE
    MP2 Hybrid          =          FALSE

   => Exchange-Correlation Functionals <=

    1.0000   wB97D range-separated functional

   => Exact (HF) Exchange <=

    0.7780            HF,LR [omega = 0.2000]
    0.2220               HF 

   => Molecular Quadrature <=

    Radial Scheme          =       TREUTLER
    Pruning Scheme         =           FLAT
    Nuclear Scheme         =       TREUTLER

    BS radius alpha        =              1
    Pruning alpha          =              1
    Radial Points          =             75
    Spherical Points       =            302
    Total Points           =         806463
    Total Blocks           =           5730
    Max Points             =            256
    Max Functions          =            217


  -Total Gradient:
     Atom            X                  Y                   Z
    ------   -----------------  -----------------  -----------------
       1        0.011776820295    -0.003615563308     0.012929741840
       2        0.006202584348     0.003683385257     0.001900388694
       3       -0.034716633853     0.029725210956     0.005600078445
       4       -0.007618183280    -0.005009012613     0.003494847745
       5       -0.002443491574    -0.006138884446     0.004540248174
       6       -0.005157515232    -0.006535359850    -0.028782993107
       7        0.003403067335    -0.006504261519    -0.008924793570
       8       -0.005889716657     0.002456460536     0.037932379833
       9       -0.007201311087    -0.004541966632     0.002761062535
      10        0.025594212442    -0.001576470572    -0.018393429352
      11        0.002840552549     0.001261380587     0.005854520550
      12       -0.001650460579    -0.002952091694    -0.004364786627
      13       -0.006269856751     0.005263734683     0.003792543419
      14        0.006310970424    -0.005072588764    -0.001896279692
      15       -0.003539636502    -0.004840328625    -0.002414980470
      16        0.000872317293     0.001308348811     0.008695790179
      17        0.000567797375    -0.000413666043    -0.010547078665
      18        0.002462287338    -0.000457899467     0.005511257018
      19       -0.002812019270     0.000947628401    -0.006953522827
      20        0.005468937598    -0.002490512697     0.000405357763
      21       -0.005064443367     0.005735801234     0.001223591299
      22        0.006157535181     0.005501493489    -0.010354835665
      23       -0.004443327227     0.005476162490     0.003609365042
      24        0.006554485868    -0.000291505394    -0.000566100677
      25       -0.006321954458     0.001377035592     0.000356874337
      26        0.002320951931    -0.005429792946    -0.003020602045
      27       -0.004359796116    -0.004204692240    -0.002613728034
      28       -0.000702802943    -0.000736144933     0.007012800833
      29       -0.001799696004     0.001736766737    -0.005909402869
      30        0.002078014221    -0.002054174249     0.005780076076
      31        0.000692428958     0.000091906932    -0.006314116534
      32       -0.003043258134    -0.020009452402    -0.002816246749
      33        0.004237039040    -0.000217420114    -0.001253605754
      34        0.001335706890     0.004756089553     0.003617976047
      35        0.007629284631     0.006169353287     0.004609710604
      36        0.006364944843     0.007511355979    -0.004426008426


*** tstop() called on node44.bme.utexas.edu at Sat Nov  6 09:28:29 2021
Module time:
	user time   =     259.41 seconds =       4.32 minutes
	system time =       3.03 seconds =       0.05 minutes
	total time  =        262 seconds =       4.37 minutes
Total time:
	user time   =     837.04 seconds =      13.95 minutes
	system time =      25.23 seconds =       0.42 minutes
	total time  =        862 seconds =      14.37 minutes

			-----------------------------------------
			 OPTKING 2.0: for geometry optimizations 
			  - R.A. King,  Bethel University        
			-----------------------------------------
	At level 1: Red. Int., RFO, no backsteps, dynamic trust

	Internal coordinates to be generated automatically.
	Detected frag 1 with atoms:  1 2 3 4 5 6 7 8 9 10 11 12 13 14 15 16 17 18 19 20
	 21 22 23 24 25 26 27 28 29 30 31 32 33 34 35 36
	---Fragment 1 Bond Connectivity---
	 1 : 2 6 8
	 2 : 1 3 10
	 3 : 2 4 5
	 4 : 3 16 17
	 5 : 3
	 6 : 1 9 33
	 7 : 8 9 21
	 8 : 1 7 22
	 9 : 6 7 34
	 10 : 2 11 12
	 11 : 10 13 23
	 12 : 10 14 24
	 13 : 11 15 25
	 14 : 12 15 26
	 15 : 13 14 27
	 16 : 4 18 28
	 17 : 4 19 29
	 18 : 16 20 30
	 19 : 17 20 31
	 20 : 18 19 32
	 21 : 7
	 22 : 8
	 23 : 11
	 24 : 12
	 25 : 13
	 26 : 14
	 27 : 15
	 28 : 16
	 29 : 17
	 30 : 18
	 31 : 19
	 32 : 20 35 36
	 33 : 6
	 34 : 9
	 35 : 32
	 36 : 32

	Assuming in current code that numbering for constraints corresponds to unified fragment.
	Frozen dihedral atom list: 
	     1     2     3     4
	    10     2     3     4
	     1     2    10    11
	     1     2    10    12
	     3     2    10    11
	    16     4     3     2
	    18    20    32    35
	---Fragment 1 Geometry and Gradient---
	 C          -1.5004754092        3.4267121396        0.1272680211
	 C          -1.3415248756        0.8417708904        0.4379654523
	 N           0.4932952573       -0.0597135091        2.1742080218
	 C           2.9220676497       -1.1296537646        1.5745072153
	 H          -0.3972665253       -1.1114878274        3.5266906790
	 C           0.4947446772        5.0919822651       -0.7609561702
	 N          -2.9348512378        7.4947558055        0.0650979213
	 C          -3.7593217388        5.0770968924        0.6523529915
	 C          -0.4472932450        7.4823913275       -0.7673887980
	 C          -3.0335894278       -1.0846159219       -0.7303822912
	 C          -5.6907711273       -0.8139636770       -0.4938471618
	 C          -2.0835333977       -3.2819686736       -1.9355702456
	 C          -7.3339768106       -2.6266211019       -1.5007026901
	 C          -3.7308360071       -5.0911867969       -2.9453642980
	 C          -6.3662669590       -4.7729380201       -2.7421166943
	 C           4.4744776618       -2.0248094713        3.5646798433
	 C           3.8949534612       -1.2419412910       -0.9213863594
	 C           6.8575243512       -3.0683937166        3.0701933183
	 C           6.2807421432       -2.2861359178       -1.4039827276
	 C           7.8179946620       -3.2201802984        0.5774007842
	 H          -4.0725230571        9.0163009208        0.2458313279
	 O          -5.9172264576        4.6047012658        1.4248881494
	 H          -6.4709237712        0.8260748252        0.4865087370
	 H          -0.0525426854       -3.5817378186       -2.0769803413
	 H          -9.3697541991       -2.3629362773       -1.3112009543
	 H          -2.9563052985       -6.7543990106       -3.8860737427
	 H          -7.6486162104       -6.1820009672       -3.5314855325
	 H           3.8216301978       -1.9175580651        5.5203479619
	 H           2.8000159085       -0.5099426482       -2.5100791130
	 H           7.9740387968       -3.7728250347        4.6570020150
	 H           6.9448580441       -2.3688435611       -3.3566405125
	 N          10.2339792778       -4.3046676657        0.0768387897
	 H           2.3837054636        4.5282561749       -1.2947414397
	 H           0.4476829378        9.2422894887       -1.2940857047
	 H          11.4784829841       -4.1292443895        1.5394849211
	 H          11.0614204283       -3.6396390271       -1.5330264555
	             0.0117768203       -0.0036155633        0.0129297418
	             0.0062025843        0.0036833853        0.0019003887
	            -0.0347166339        0.0297252110        0.0056000784
	            -0.0076181833       -0.0050090126        0.0034948477
	            -0.0024434916       -0.0061388844        0.0045402482
	            -0.0051575152       -0.0065353599       -0.0287829931
	             0.0034030673       -0.0065042615       -0.0089247936
	            -0.0058897167        0.0024564605        0.0379323798
	            -0.0072013111       -0.0045419666        0.0027610625
	             0.0255942124       -0.0015764706       -0.0183934294
	             0.0028405525        0.0012613806        0.0058545206
	            -0.0016504606       -0.0029520917       -0.0043647866
	            -0.0062698568        0.0052637347        0.0037925434
	             0.0063109704       -0.0050725888       -0.0018962797
	            -0.0035396365       -0.0048403286       -0.0024149805
	             0.0008723173        0.0013083488        0.0086957902
	             0.0005677974       -0.0004136660       -0.0105470787
	             0.0024622873       -0.0004578995        0.0055112570
	            -0.0028120193        0.0009476284       -0.0069535228
	             0.0054689376       -0.0024905127        0.0004053578
	            -0.0050644434        0.0057358012        0.0012235913
	             0.0061575352        0.0055014935       -0.0103548357
	            -0.0044433272        0.0054761625        0.0036093650
	             0.0065544859       -0.0002915054       -0.0005661007
	            -0.0063219545        0.0013770356        0.0003568743
	             0.0023209519       -0.0054297929       -0.0030206020
	            -0.0043597961       -0.0042046922       -0.0026137280
	            -0.0007028029       -0.0007361449        0.0070128008
	            -0.0017996960        0.0017367667       -0.0059094029
	             0.0020780142       -0.0020541742        0.0057800761
	             0.0006924290        0.0000919069       -0.0063141165
	            -0.0030432581       -0.0200094524       -0.0028162467
	             0.0042370390       -0.0002174201       -0.0012536058
	             0.0013357069        0.0047560896        0.0036179760
	             0.0076292846        0.0061693533        0.0046097106
	             0.0063649448        0.0075113560       -0.0044260084

	Previous optimization step data not found.  Starting new optimization.

	---Fragment 1 Intrafragment Coordinates---
	 - Coordinate -           - BOHR/RAD -       - ANG/DEG -
	 R(1,2)           =         2.608394	       1.380303
	 R(1,6)           =         2.746447	       1.453357
	 R(1,8)           =         2.846379	       1.506239
	 R(2,3)           =         2.682122	       1.419318
	 R(2,10)          =         2.817638	       1.491030
	 R(3,4)           =         2.720910	       1.439843
	 R(3,5)           =         1.930942	       1.021811
	 R(4,16)          =         2.678072	       1.417174
	 R(4,17)          =         2.681156	       1.418807
	 R(6,9)           =         2.569345	       1.359639
	 R(6,33)          =         2.042275	       1.080725
	 R(7,8)           =         2.621010	       1.386979
	 R(7,9)           =         2.623191	       1.388133
	 R(7,21)          =         1.908419	       1.009892
	 R(8,22)          =         2.340197	       1.238379
	 R(9,34)          =         2.043437	       1.081340
	 R(10,11)         =         2.681383	       1.418927
	 R(10,12)         =         2.680195	       1.418298
	 R(11,13)         =         2.645678	       1.400032
	 R(11,23)         =         2.063846	       1.092140
	 R(12,14)         =         2.646991	       1.400727
	 R(12,24)         =         2.057859	       1.088972
	 R(13,15)         =         2.661625	       1.408471
	 R(13,25)         =         2.061512	       1.090905
	 R(14,15)         =         2.662346	       1.408853
	 R(14,26)         =         2.061821	       1.091069
	 R(15,27)         =         2.062276	       1.091309
	 R(16,18)         =         2.648112	       1.401320
	 R(16,28)         =         2.064546	       1.092511
	 R(17,19)         =         2.648628	       1.401593
	 R(17,29)         =         2.063651	       1.092037
	 R(18,20)         =         2.675735	       1.415938
	 R(18,30)         =         2.064168	       1.092311
	 R(19,20)         =         2.676091	       1.416127
	 R(19,31)         =         2.064162	       1.092307
	 R(20,32)         =         2.695117	       1.426195
	 R(32,35)         =         1.928444	       1.020489
	 R(32,36)         =         1.928364	       1.020446
	 B(1,2,3)         =         2.039670	     116.864456
	 B(1,2,10)        =         2.203782	     126.267431
	 B(1,6,9)         =         1.873981	     107.371205
	 B(1,6,33)        =         2.200740	     126.093114
	 B(1,8,7)         =         1.817150	     104.114999
	 B(1,8,22)        =         2.312607	     132.502599
	 B(2,1,6)         =         2.208233	     126.522414
	 B(2,1,8)         =         2.215538	     126.940965
	 B(2,3,4)         =         2.214466	     126.879540
	 B(2,3,5)         =         1.897563	     108.722349
	 B(2,10,11)       =         2.082333	     119.308872
	 B(2,10,12)       =         2.134247	     122.283321
	 B(3,2,10)        =         2.036939	     116.708029
	 B(3,4,16)        =         2.077256	     119.017977
	 B(3,4,17)        =         2.147835	     123.061890
	 B(4,3,5)         =         1.930369	     110.602020
	 B(4,16,18)       =         2.111348	     120.971334
	 B(4,16,28)       =         2.098184	     120.217088
	 B(4,17,19)       =         2.109448	     120.862440
	 B(4,17,29)       =         2.105130	     120.615078
	 B(6,1,8)         =         1.859400	     106.535800
	 B(6,9,7)         =         1.929732	     110.565527
	 B(6,9,34)        =         2.267025	     129.890959
	 B(7,8,22)        =         2.153428	     123.382355
	 B(7,9,34)        =         2.086411	     119.542535
	 B(8,7,9)         =         1.944489	     111.411004
	 B(8,7,21)        =         2.125491	     121.781657
	 B(9,6,33)        =         2.208400	     126.532016
	 B(9,7,21)        =         2.213201	     126.807089
	 B(10,11,13)      =         2.109190	     120.847672
	 B(10,11,23)      =         2.090601	     119.782587
	 B(10,12,14)      =         2.107503	     120.751022
	 B(10,12,24)      =         2.094594	     120.011379
	 B(11,10,12)      =         2.064276	     118.274316
	 B(11,13,15)      =         2.099225	     120.276746
	 B(11,13,25)      =         2.083711	     119.387871
	 B(12,14,15)      =         2.100424	     120.345421
	 B(12,14,26)      =         2.084761	     119.448007
	 B(13,11,23)      =         2.083395	     119.369717
	 B(13,15,14)      =         2.085071	     119.465761
	 B(13,15,27)      =         2.098351	     120.226676
	 B(14,12,24)      =         2.081080	     119.237087
	 B(14,15,27)      =         2.099751	     120.306865
	 B(15,13,25)      =         2.100246	     120.335259
	 B(15,14,26)      =         2.097995	     120.206230
	 B(16,4,17)       =         2.057197	     117.868733
	 B(16,18,20)      =         2.116882	     121.288378
	 B(16,18,30)      =         2.068832	     118.535353
	 B(17,19,20)      =         2.117801	     121.341062
	 B(17,19,31)      =         2.069137	     118.552821
	 B(18,16,28)      =         2.073644	     118.811055
	 B(18,20,19)      =         2.053056	     117.631434
	 B(18,20,32)      =         2.114882	     121.173805
	 B(19,17,29)      =         2.068604	     118.522265
	 B(19,20,32)      =         2.115165	     121.190016
	 B(20,18,30)      =         2.097471	     120.176235
	 B(20,19,31)      =         2.096247	     120.106114
	 B(20,32,35)      =         1.983439	     113.642657
	 B(20,32,36)      =         1.983330	     113.636415
	 B(35,32,36)      =         1.901710	     108.959985
	*D(1,2,3,4)       =        -1.777780	    -101.859299
	 D(1,2,3,5)       =         2.132602	     122.189098
	*D(1,2,10,11)     =        -0.895526	     -51.309873
	*D(1,2,10,12)     =         2.320671	     132.964636
	 D(1,6,9,7)       =         0.001931	       0.110631
	 D(1,6,9,34)      =         3.137091	     179.742086
	 D(1,8,7,9)       =         0.006864	       0.393302
	 D(1,8,7,21)      =        -3.137698	    -179.776868
	 D(2,1,6,9)       =        -3.133877	    -179.557910
	 D(2,1,6,33)      =        -0.003829	      -0.219386
	 D(2,1,8,7)       =         3.130624	     179.371519
	 D(2,1,8,22)      =        -0.009598	      -0.549929
	*D(2,3,4,16)      =        -3.098702	    -177.542527
	 D(2,3,4,17)      =         0.089411	       5.122899
	 D(2,10,11,13)    =        -3.107584	    -178.051426
	 D(2,10,11,23)    =         0.033015	       1.891610
	 D(2,10,12,14)    =         3.107179	     178.028242
	 D(2,10,12,24)    =        -0.029834	      -1.709381
	 D(3,2,1,6)       =         1.056340	      60.523828
	 D(3,2,1,8)       =        -2.078716	    -119.101640
	*D(3,2,10,11)     =         2.162878	     123.923805
	 D(3,2,10,12)     =        -0.904110	     -51.801686
	 D(3,4,16,18)     =        -3.135786	    -179.667307
	 D(3,4,16,28)     =         0.010452	       0.598830
	 D(3,4,17,19)     =         3.133023	     179.509016
	 D(3,4,17,29)     =        -0.005566	      -0.318883
	*D(4,3,2,10)      =         1.438982	      82.447616
	 D(4,16,18,20)    =         0.021898	       1.254656
	 D(4,16,18,30)    =        -3.118530	    -178.678602
	 D(4,17,19,20)    =        -0.020223	      -1.158712
	 D(4,17,19,31)    =         3.121741	     178.862560
	 D(5,3,2,10)      =        -0.933821	     -53.503988
	 D(5,3,4,16)      =        -0.737369	     -42.248147
	 D(5,3,4,17)      =         2.450744	     140.417279
	 D(6,1,2,10)      =        -2.168556	    -124.249083
	 D(6,1,8,7)       =        -0.005489	      -0.314513
	 D(6,1,8,22)      =         3.137474	     179.764039
	 D(6,9,7,8)       =        -0.005865	      -0.336012
	 D(6,9,7,21)      =         3.138881	     179.844658
	 D(7,9,6,33)      =        -3.128052	    -179.224159
	 D(8,1,2,10)      =         0.979574	      56.125449
	 D(8,1,6,9)       =         0.002266	       0.129829
	 D(8,1,6,33)      =         3.132314	     179.468354
	 D(8,7,9,34)      =         3.141401	     179.989016
	 D(9,7,8,22)      =        -3.135939	    -179.676052
	 D(10,11,13,15)   =         0.014017	       0.803135
	 D(10,11,13,25)   =        -3.129799	    -179.324300
	 D(10,12,14,15)   =        -0.017789	      -1.019237
	 D(10,12,14,26)   =         3.127507	     179.192944
	 D(11,10,12,14)   =         0.039453	       2.260465
	 D(11,10,12,24)   =        -3.097561	    -177.477158
	 D(11,13,15,14)   =         0.008590	       0.492178
	 D(11,13,15,27)   =        -3.138290	    -179.810744
	 D(12,10,11,13)   =        -0.037602	      -2.154438
	 D(12,10,11,23)   =         3.102996	     177.788599
	 D(12,14,15,13)   =        -0.006714	      -0.384700
	 D(12,14,15,27)   =         3.140170	     179.918470
	 D(13,15,14,26)   =         3.131147	     179.401502
	 D(14,15,13,25)   =        -3.130757	    -179.379171
	 D(15,13,11,23)   =        -3.126585	    -179.140134
	 D(15,14,12,24)   =         3.119259	     178.720395
	 D(16,4,17,19)    =         0.037448	       2.145617
	 D(16,4,17,29)    =        -3.101141	    -177.682283
	 D(16,18,20,19)   =        -0.003342	      -0.191474
	 D(16,18,20,32)   =        -3.131263	    -179.408131
	 D(17,4,16,18)    =        -0.038295	      -2.194129
	 D(17,4,16,28)    =         3.107943	     178.072008
	 D(17,19,20,18)   =         0.002535	       0.145226
	 D(17,19,20,32)   =         3.130453	     179.361749
	 D(18,20,19,31)   =        -3.139435	    -179.876372
	*D(18,20,32,35)   =        -0.500357	     -28.668367
	 D(18,20,32,36)   =        -2.688347	    -154.030920
	 D(19,20,18,30)   =         3.137067	     179.740701
	 D(19,20,32,35)   =         2.655395	     152.142902
	 D(19,20,32,36)   =         0.467405	      26.780349
	 D(20,18,16,28)   =        -3.124276	    -179.007809
	 D(20,19,17,29)   =         3.118427	     178.672718
	 D(21,7,8,22)     =         0.002684	       0.153778
	 D(21,7,9,34)     =         0.002962	       0.169687
	 D(23,11,13,25)   =         0.012783	       0.732431
	 D(24,12,14,26)   =        -0.018630	      -1.067424
	 D(25,13,15,27)   =         0.005549	       0.317907
	 D(26,14,15,27)   =        -0.005154	      -0.295328
	 D(28,16,18,30)   =         0.018482	       1.058933
	 D(29,17,19,31)   =        -0.022794	      -1.306010
	 D(30,18,20,32)   =         0.009146	       0.524044
	 D(31,19,20,32)   =        -0.011517	      -0.659849
	 D(33,6,9,34)     =         0.007109	       0.407296
	 R(4,6)           =         7.074959	       3.743907
	 R(4,12)          =         6.481446	       3.429834
	 R(8,11)          =         6.304670	       3.336288
	 R(10,17)         =         6.932960	       3.668765
	 R(11,22)         =         5.752804	       3.044253
	 R(12,17)         =         6.397858	       3.385601

	Current energy   :      -895.8946054422

	Generating empirical Hessian (Schlegel '84) for each fragment.
	Taking RFO optimization step.
	Going to follow RFO solution 1.
	Using RFO vector 1.

	Determining step-restricting scale parameter for RS-RFO.
	Maximum step size allowed    0.50000

	 Iter      |step|        alpha        rfo_root  
	------------------------------------------------
	    0     0.71366       1.00000           1
	    1     0.56576       1.71105           1
	    2     0.50985       2.16048           1
	    3     0.50028       2.25330           1
	    4     0.50000       2.25614           1
	------------------------------------------------
	Norm of target step-size    0.50000
	Projected energy change by RFO approximation:        -0.0215362789

	Back-transformation to cartesian coordinates...
	Could not converge backtransformation.
	Using first guess instead.

	Back-transformation to cartesian coordinates to adjust frozen coordinates...

	--- Internal Coordinate Step in ANG or DEG, aJ/ANG or AJ/DEG ---
	 ---------------------------------------------------------------------------
	   Coordinate                Previous        Force       Change         New 
	   ----------                --------       ------       ------       ------
	    1 R(1,2)          =      1.380303     0.060063     0.013850     1.394153
	    2 R(1,6)          =      1.453357    -0.004160     0.019993     1.473350
	    3 R(1,8)          =      1.506239    -0.052225     0.010476     1.516714
	    4 R(2,3)          =      1.419318     0.167903     0.025623     1.444941
	    5 R(2,10)         =      1.491030    -0.033306     0.001755     1.492785
	    6 R(3,4)          =      1.439843    -0.093673    -0.011085     1.428759
	    7 R(3,5)          =      1.021811    -0.062963    -0.007761     1.014050
	    8 R(4,16)         =      1.417174    -0.141679    -0.018518     1.398657
	    9 R(4,17)         =      1.418807    -0.158705    -0.021190     1.397617
	   10 R(6,9)          =      1.359639    -0.043467    -0.001879     1.357759
	   11 R(6,33)         =      1.080725    -0.035574     0.010488     1.091214
	   12 R(7,8)          =      1.386979     0.026680     0.009010     1.395989
	   13 R(7,9)          =      1.388133     0.009639     0.017646     1.405779
	   14 R(7,21)         =      1.009892    -0.063474    -0.004099     1.005793
	   15 R(8,22)         =      1.238379     0.082352     0.015728     1.254107
	   16 R(9,34)         =      1.081340    -0.030974    -0.000588     1.080752
	   17 R(10,11)        =      1.418927    -0.084616    -0.009007     1.409920
	   18 R(10,12)        =      1.418298    -0.102115    -0.011430     1.406868
	   19 R(11,13)        =      1.400032    -0.067618    -0.007670     1.392362
	   20 R(11,23)        =      1.092140    -0.063838    -0.009708     1.082433
	   21 R(12,14)        =      1.400727    -0.083830    -0.009990     1.390737
	   22 R(12,24)        =      1.088972    -0.053983    -0.008068     1.080904
	   23 R(13,15)        =      1.408471    -0.123264    -0.015960     1.392512
	   24 R(13,25)        =      1.090905    -0.053140    -0.007738     1.083167
	   25 R(14,15)        =      1.408853    -0.121415    -0.015522     1.393331
	   26 R(14,26)        =      1.091069    -0.054600    -0.008114     1.082954
	   27 R(15,27)        =      1.091309    -0.054206    -0.007950     1.083359
	   28 R(16,18)        =      1.401320    -0.098000    -0.011956     1.389364
	   29 R(16,28)        =      1.092511    -0.056251    -0.008723     1.083788
	   30 R(17,19)        =      1.401593    -0.081728    -0.009821     1.391773
	   31 R(17,29)        =      1.092037    -0.050403    -0.007466     1.084571
	   32 R(18,20)        =      1.415938    -0.127127    -0.015818     1.400120
	   33 R(18,30)        =      1.092311    -0.051664    -0.007765     1.084546
	   34 R(19,20)        =      1.416127    -0.140853    -0.017739     1.398387
	   35 R(19,31)        =      1.092307    -0.051010    -0.007861     1.084447
	   36 R(20,32)        =      1.426195    -0.105950    -0.013897     1.412298
	   37 R(32,35)        =      1.020489    -0.074038    -0.008761     1.011728
	   38 R(32,36)        =      1.020446    -0.074237    -0.008444     1.012002
	   39 B(1,2,3)        =    116.864456    -0.000126     0.178024   117.042480
	   40 B(1,2,10)       =    126.267431    -0.000087     0.121074   126.388505
	   41 B(1,6,9)        =    107.371205     0.000450     0.567787   107.938992
	   42 B(1,6,33)       =    126.093114    -0.000302    -0.199210   125.893905
	   43 B(1,8,7)        =    104.114999     0.000085    -0.360934   103.754065
	   44 B(1,8,22)       =    132.502599    -0.000025     0.503616   133.006216
	   45 B(2,1,6)        =    126.522414    -0.000069    -0.972441   125.549973
	   46 B(2,1,8)        =    126.940965     0.000271     1.192740   128.133706
	   47 B(2,3,4)        =    126.879540     0.000117     0.791865   127.671405
	   48 B(2,3,5)        =    108.722349    -0.000175    -0.665353   108.056996
	   49 B(2,10,11)      =    119.308872     0.000581     2.473593   121.782465
	   50 B(2,10,12)      =    122.283321    -0.000456    -1.713996   120.569325
	   51 B(3,2,10)       =    116.708029     0.000213    -0.299519   116.408510
	   52 B(3,4,16)       =    119.017977    -0.000024     0.281879   119.299855
	   53 B(3,4,17)       =    123.061890    -0.000091    -0.750021   122.311869
	   54 B(4,3,5)        =    110.602020     0.000090     0.254020   110.856040
	   55 B(4,16,18)      =    120.971334    -0.000009    -0.122900   120.848434
	   56 B(4,16,28)      =    120.217088    -0.000143    -0.427453   119.789636
	   57 B(4,17,19)      =    120.862440     0.000002    -0.089762   120.772679
	   58 B(4,17,29)      =    120.615078    -0.000153    -0.451948   120.163130
	   59 B(6,1,8)        =    106.535800    -0.000203    -0.241368   106.294433
	   60 B(6,9,7)        =    110.565527    -0.000337    -0.649378   109.916150
	   61 B(6,9,34)       =    129.890959     0.000014    -0.657553   129.233406
	   62 B(7,8,22)       =    123.382355    -0.000060    -0.311151   123.071205
	   63 B(7,9,34)       =    119.542535     0.000323     1.300669   120.843204
	   64 B(8,7,9)        =    111.411004     0.000003     0.613293   112.024297
	   65 B(8,7,21)       =    121.781657     0.000051    -0.628253   121.153404
	   66 B(9,6,33)       =    126.532016    -0.000147    -0.370176   126.161840
	   67 B(9,7,21)       =    126.807089    -0.000054     0.005165   126.812254
	   68 B(10,11,13)     =    120.847672    -0.000029     0.269273   121.116945
	   69 B(10,11,23)     =    119.782587    -0.000114    -0.557124   119.225463
	   70 B(10,12,14)     =    120.751022     0.000013     0.316262   121.067283
	   71 B(10,12,24)     =    120.011379     0.000035    -0.023349   119.988029
	   72 B(11,10,12)     =    118.274316    -0.000125    -0.757713   117.516603
	   73 B(11,13,15)     =    120.276746     0.000069     0.183647   120.460393
	   74 B(11,13,25)     =    119.387871    -0.000005     0.008615   119.396487
	   75 B(12,14,15)     =    120.345421     0.000123     0.293800   120.639221
	   76 B(12,14,26)     =    119.448007    -0.000076    -0.192631   119.255376
	   77 B(13,11,23)     =    119.369717     0.000143     0.287846   119.657562
	   78 B(13,15,14)     =    119.465761    -0.000052    -0.315880   119.149881
	   79 B(13,15,27)     =    120.226676     0.000053     0.234618   120.461294
	   80 B(14,12,24)     =    119.237087    -0.000048    -0.292429   118.944658
	   81 B(14,15,27)     =    120.306865    -0.000001     0.080363   120.387228
	   82 B(15,13,25)     =    120.335259    -0.000064    -0.192465   120.142794
	   83 B(15,14,26)     =    120.206230    -0.000047    -0.101810   120.104421
	   84 B(16,4,17)      =    117.868733     0.000105     0.389347   118.258079
	   85 B(16,18,20)     =    121.288378    -0.000102    -0.259094   121.029284
	   86 B(16,18,30)     =    118.535353     0.000176     0.540740   119.076094
	   87 B(17,19,20)     =    121.341062    -0.000114    -0.274505   121.066557
	   88 B(17,19,31)     =    118.552821     0.000166     0.500075   119.052896
	   89 B(18,16,28)     =    118.811055     0.000151     0.550206   119.361261
	   90 B(18,20,19)     =    117.631434     0.000115     0.340254   117.971689
	   91 B(18,20,32)     =    121.173805    -0.000075    -0.225831   120.947973
	   92 B(19,17,29)     =    118.522265     0.000150     0.540630   119.062895
	   93 B(19,20,32)     =    121.190016    -0.000041    -0.136136   121.053880
	   94 B(20,18,30)     =    120.176235    -0.000074    -0.281997   119.894238
	   95 B(20,19,31)     =    120.106114    -0.000052    -0.225706   119.880408
	   96 B(20,32,35)     =    113.642657     0.000113     0.820346   114.463003
	   97 B(20,32,36)     =    113.636415     0.000113     0.832812   114.469227
	   98 B(35,32,36)     =    108.959985     0.000157     1.173796   110.133780
	   99 *D(1,2,3,4)     =   -101.859299    -0.000000    -0.000031  -101.859330
	  100 D(1,2,3,5)      =    122.189098    -0.000013    -0.501189   121.687909
	  101 *D(1,2,10,11)   =    -51.309873    -0.000000    -0.000028   -51.309900
	  102 *D(1,2,10,12)   =    132.964636     0.000000     0.000000   132.964636
	  103 D(1,6,9,7)      =      0.110631     0.000057     2.397006     2.507637
	  104 D(1,6,9,34)     =    179.742086     0.000044     1.776534   181.518620
	  105 D(1,8,7,9)      =      0.393302     0.000038     1.497143     1.890445
	  106 D(1,8,7,21)     =   -179.776868     0.000012     0.589585  -179.187283
	  107 D(2,1,6,9)      =   -179.557910     0.000002    -0.170647  -179.728558
	  108 D(2,1,6,33)     =     -0.219386     0.000035     1.285687     1.066302
	  109 D(2,1,8,7)      =    179.371519    -0.000038    -1.364932   178.006587
	  110 D(2,1,8,22)     =     -0.549929     0.000065     3.328607     2.778678
	  111 *D(2,3,4,16)    =   -177.542527    -0.000000    -0.000000  -177.542527
	  112 D(2,3,4,17)     =      5.122899     0.000055     1.556813     6.679711
	  113 D(2,10,11,13)   =   -178.051426    -0.000001    -0.134037  -178.185463
	  114 D(2,10,11,23)   =      1.891610     0.000001    -0.014589     1.877022
	  115 D(2,10,12,14)   =    178.028242     0.000015     0.475638   178.503880
	  116 D(2,10,12,24)   =     -1.709381     0.000010     0.276399    -1.432982
	  117 D(3,2,1,6)      =     60.523828    -0.000382   -12.556269    47.967559
	  118 D(3,2,1,8)      =   -119.101640    -0.000340   -10.991169  -130.092809
	  119 *D(3,2,10,11)   =    123.923805     0.000000     0.000028   123.923833
	  120 D(3,2,10,12)    =    -51.801686     0.000000     0.000056   -51.801630
	  121 D(3,4,16,18)    =   -179.667307     0.000032     0.956780  -178.710527
	  122 D(3,4,16,28)    =      0.598830     0.000034     0.990115     1.588945
	  123 D(3,4,17,19)    =    179.509016    -0.000043    -1.306202   178.202814
	  124 D(3,4,17,29)    =     -0.318883    -0.000037    -1.060191    -1.379075
	  125 *D(4,3,2,10)    =     82.447616     0.000000     0.000031    82.447646
	  126 D(4,16,18,20)   =      1.254656     0.000019     0.611532     1.866188
	  127 D(4,16,18,30)   =   -178.678602     0.000011     0.318795  -178.359807
	  128 D(4,17,19,20)   =     -1.158712    -0.000002     0.054618    -1.104094
	  129 D(4,17,19,31)   =    178.862560    -0.000005    -0.102140   178.760420
	  130 D(5,3,2,10)     =    -53.503988    -0.000013    -0.501126   -54.005114
	  131 D(5,3,4,16)     =    -42.248147    -0.000008     0.202496   -42.045651
	  132 D(5,3,4,17)     =    140.417279     0.000048     1.759309   142.176587
	  133 D(6,1,2,10)     =   -124.249083    -0.000378   -12.576315  -136.825398
	  134 D(6,1,8,7)      =     -0.314513    -0.000003    -0.034846    -0.349359
	  135 D(6,1,8,22)     =    179.764039     0.000100     4.658694   184.422733
	  136 D(6,9,7,8)      =     -0.336012    -0.000061    -2.552029    -2.888042
	  137 D(6,9,7,21)     =    179.844658    -0.000034    -1.580679   178.263979
	  138 D(7,9,6,33)     =   -179.224159     0.000023     0.934228  -178.289931
	  139 D(8,1,2,10)     =     56.125449    -0.000337   -11.011215    45.114234
	  140 D(8,1,6,9)      =      0.129829    -0.000032    -1.447794    -1.317964
	  141 D(8,1,6,33)     =    179.468354     0.000001     0.008541   179.476895
	  142 D(8,7,9,34)     =    179.989016    -0.000050    -1.984809   178.004207
	  143 D(9,7,8,22)     =   -179.676052    -0.000053    -2.596747  -182.272799
	  144 D(10,11,13,15)  =      0.803135    -0.000000    -0.029711     0.773424
	  145 D(10,11,13,25)  =   -179.324300    -0.000003    -0.109620  -179.433920
	  146 D(10,12,14,15)  =     -1.019237    -0.000007    -0.293572    -1.312809
	  147 D(10,12,14,26)  =    179.192944    -0.000004    -0.145597   179.047348
	  148 D(11,10,12,14)  =      2.260465     0.000009     0.340163     2.600628
	  149 D(11,10,12,24)  =   -177.477158     0.000003     0.140924  -177.336234
	  150 D(11,13,15,14)  =      0.492178     0.000003     0.107743     0.599921
	  151 D(11,13,15,27)  =   -179.810744    -0.000001    -0.047193  -179.857937
	  152 D(12,10,11,13)  =     -2.154438    -0.000005    -0.180689    -2.335127
	  153 D(12,10,11,23)  =    177.788599    -0.000002    -0.061241   177.727358
	  154 D(12,14,15,13)  =     -0.384700     0.000001     0.049834    -0.334866
	  155 D(12,14,15,27)  =    179.918470     0.000005     0.204175   180.122644
	  156 D(13,15,14,26)  =    179.401502    -0.000002    -0.099580   179.301923
	  157 D(14,15,13,25)  =   -179.379171     0.000005     0.187986  -179.191184
	  158 D(15,13,11,23)  =   -179.140134    -0.000003    -0.149194  -179.289328
	  159 D(15,14,12,24)  =    178.720395    -0.000002    -0.095695   178.624700
	  160 D(16,4,17,19)   =      2.145617     0.000013     0.237401     2.383018
	  161 D(16,4,17,29)   =   -177.682283     0.000018     0.483411  -177.198871
	  162 D(16,18,20,19)  =     -0.191474    -0.000009    -0.318569    -0.510043
	  163 D(16,18,20,32)  =   -179.408131     0.000021     0.749818  -178.658312
	  164 D(17,4,16,18)   =     -2.194129    -0.000021    -0.567346    -2.761475
	  165 D(17,4,16,28)   =    178.072008    -0.000019    -0.534012   177.537996
	  166 D(17,19,20,18)  =      0.145226     0.000000    -0.012584     0.132643
	  167 D(17,19,20,32)  =    179.361749    -0.000030    -1.082895   178.278854
	  168 D(18,20,19,31)  =   -179.876372     0.000003     0.145611  -179.730761
	  169 *D(18,20,32,35) =    -28.668367    -0.000000    -0.000000   -28.668367
	  170 D(18,20,32,36)  =   -154.030920    -0.000094    -3.137401  -157.168320
	  171 D(19,20,18,30)  =    179.740701    -0.000000    -0.022916   179.717784
	  172 D(19,20,32,35)  =    152.142902     0.000031     1.097756   153.240657
	  173 D(19,20,32,36)  =     26.780349    -0.000063    -2.039645    24.740704
	  174 D(20,18,16,28)  =   -179.007809     0.000017     0.575793  -178.432016
	  175 D(20,19,17,29)  =    178.672718    -0.000007    -0.190384   178.482334
	  176 D(21,7,8,22)    =      0.153778    -0.000079    -3.504305    -3.350527
	  177 D(21,7,9,34)    =      0.169687    -0.000023    -1.013459    -0.843772
	  178 D(23,11,13,25)  =      0.732431    -0.000006    -0.229102     0.503329
	  179 D(24,12,14,26)  =     -1.067424     0.000002     0.052280    -1.015144
	  180 D(25,13,15,27)  =      0.317907     0.000001     0.033051     0.350958
	  181 D(26,14,15,27)  =     -0.295328     0.000002     0.054761    -0.240567
	  182 D(28,16,18,30)  =      1.058933     0.000008     0.283057     1.341989
	  183 D(29,17,19,31)  =     -1.306010    -0.000010    -0.347142    -1.653152
	  184 D(30,18,20,32)  =      0.524044     0.000030     1.045471     1.569515
	  185 D(31,19,20,32)  =     -0.659849    -0.000027    -0.924701    -1.584550
	  186 D(33,6,9,34)    =      0.407296     0.000011     0.313757     0.721053
	  187 R(4,6)          =      3.743907    -0.030127    -0.040378     3.703529
	  188 R(4,12)         =      3.429834    -0.000234    -0.021304     3.408530
	  189 R(8,11)         =      3.336288     0.045815     0.025179     3.361467
	  190 R(10,17)        =      3.668765     0.013337     0.014054     3.682819
	  191 R(11,22)        =      3.044253    -0.042378    -0.015849     3.028404
	  192 R(12,17)        =      3.385601    -0.032470    -0.012287     3.373314
	 ---------------------------------------------------------------------------
	Successfully symmetrized geometry.

  ==> Convergence Check <==

  Measures of convergence in internal coordinates in au.
  Criteria marked as inactive (o), active & met (*), and active & unmet ( ).
  --------------------------------------------------------------------------------------------- ~
   Step     Total Energy     Delta E     MAX Force     RMS Force      MAX Disp      RMS Disp    ~
  --------------------------------------------------------------------------------------------- ~
    Convergence Criteria             o    2.50e-03 *    1.70e-03 *    1.00e-02 *    6.70e-03 *  ~
  --------------------------------------------------------------------------------------------- ~
      1    -895.89460544   -8.96e+02 o    2.19e-02      5.73e-03      2.19e-01      3.57e-02    ~
  ---------------------------------------------------------------------------------------------

	Writing optimization data to binary file.
	Structure for next step:
	Cartesian Geometry (in Angstrom)
	    C    -0.8062600987   1.8290575765   0.0597541696
	    C    -0.7247079989   0.4479137743   0.2313728590
	    N     0.2809502948  -0.0422038709   1.1458615054
	    C     1.5485706191  -0.6170983342   0.8233925933
	    H    -0.1859959539  -0.5796150046   1.8679746891
	    C     0.3318780820   2.7292690826  -0.1952405322
	    N    -1.5372806540   3.9982140611  -0.0682359448
	    C    -2.0381627079   2.7108051712   0.1329631010
	    C    -0.1502907026   3.9944222972  -0.2972727870
	    C    -1.6388778750  -0.5734694544  -0.3597925357
	    C    -3.0399752074  -0.4766725598  -0.2355731729
	    C    -1.1197305951  -1.7202230961  -0.9880600172
	    C    -3.8782876581  -1.4568066426  -0.7602083691
	    C    -1.9620683319  -2.6933358178  -1.5150019204
	    C    -3.3456772493  -2.5680685901  -1.4086769129
	    C     2.3707157037  -1.0836222976   1.8542529927
	    C     2.0409470089  -0.6546864546  -0.4840803274
	    C     3.6207863145  -1.6240502789   1.5793102895
	    C     3.2966487539  -1.1892488227  -0.7570036274
	    C     4.1095900372  -1.6820138960   0.2685671690
	    H    -2.1442378818   4.8001608488  -0.0580610654
	    O    -3.2421485221   2.4782599497   0.3958791528
	    H    -3.4675258430   0.3760028837   0.2760958351
	    H    -0.0502447195  -1.8560616390  -1.0661725591
	    H    -4.9511860186  -1.3497567101  -0.6568615431
	    H    -1.5309940217  -3.5568725298  -2.0061937842
	    H    -3.9980019496  -3.3295517027  -1.8189000769
	    H     2.0296970927  -1.0289202670   2.8815356058
	    H     1.4478145218  -0.2590138192  -1.3013504924
	    H     4.2234087793  -2.0016855620   2.3981371658
	    H     3.6427538772  -1.2229145442  -1.7841854282
	    N     5.3685021085  -2.2571826871  -0.0123345279
	    H     1.3755867058   2.4277535290  -0.2977482370
	    H     0.3799528866   4.9135558606  -0.5023581358
	    H     6.0370872464  -2.1920205857   0.7441981181
	    H     5.7894248231  -1.9427318535  -0.8772581279
			--------------------------
			 OPTKING Finished Execution 
			--------------------------

    Structure for next step:
    Molecular point group: c1
    Full point group: C1

    Geometry (in Angstrom), charge = 0, multiplicity = 1:

    C           -0.798217237300     1.825306416750     0.079906102430
    C           -0.716665137181     0.444162609215     0.251524792471
    N            0.288993160473    -0.045955037923     1.166013442468
    C            1.556613489679    -0.620849503516     0.843544529179
    H           -0.177953090148    -0.583366173759     1.888126629038
    C            0.339920947861     2.725517926423    -0.175088600383
    N           -1.529237795531     3.994462909871    -0.048084012513
    C           -2.030119851395     2.707054014930     0.153115034127
    C           -0.142247838659     3.990671145962    -0.277120855528
    C           -1.630835016935    -0.577220623578    -0.339640604509
    C           -3.031932354872    -0.480423728612    -0.215421241264
    C           -1.111687734957    -1.723974269733    -0.967908088479
    C           -3.870244808852    -1.460557815251    -0.740056439467
    C           -1.954025475138    -2.697086995291    -1.494849993708
    C           -3.337634397944    -2.571819767117    -1.388524985798
    C            2.378758577570    -1.087373468800     1.874404932566
    C            2.048989881410    -0.658437624051    -0.463928396673
    C            3.628829193254    -1.627801452170     1.599462228264
    C            3.304691631367    -1.192999994267    -0.736851697797
    C            4.117632917911    -1.685765069491     0.288719102641
    H           -2.136195025695     4.796409700761    -0.037909133061
    O           -3.234105670366     2.474508792584     0.416031086992
    H           -3.459482992154     0.372251718267     0.296247768741
    H           -0.042201855196    -1.859812813201    -1.046020630667
    H           -4.943143173587    -1.353507882279    -0.636709613067
    H           -1.522951163219    -3.560623710651    -1.986041859499
    H           -3.989959100742    -3.333302882699    -1.798748151434
    H            2.037739965198    -1.032671437981     2.901687549762
    H            1.455857391981    -0.262764987076    -1.281198564948
    H            4.231451660384    -2.005436736758     2.418289107838
    H            3.650796756063    -1.226665715920    -1.764033502643
    N            5.376544994137    -2.260933862862     0.007817404637
    H            1.383629575700     2.424002371610    -0.277596305526
    H            0.387995752656     4.909804712978    -0.482206205182
    H            6.045130134607    -2.195771761259     0.764350053577
    H            5.797467710330    -1.946483028033    -0.857106198767

gradient() will perform analytic gradient computation.

*** tstart() called on node44.bme.utexas.edu
*** at Sat Nov  6 09:28:32 2021

   => Loading Basis Set <=

    Name: 6-311G
    Role: ORBITAL
    Keyword: BASIS
    atoms 1-2, 4, 6, 8-20     entry C          line    92 file /home/bdw2292/miniconda3/envs/amoebamdpoltype/share/psi4/basis/6-311g.gbs 
    atoms 3, 7, 32            entry N          line   109 file /home/bdw2292/miniconda3/envs/amoebamdpoltype/share/psi4/basis/6-311g.gbs 
    atoms 5, 21, 23-31, 33-36 entry H          line    21 file /home/bdw2292/miniconda3/envs/amoebamdpoltype/share/psi4/basis/6-311g.gbs 
    atoms 22                  entry O          line   126 file /home/bdw2292/miniconda3/envs/amoebamdpoltype/share/psi4/basis/6-311g.gbs 


         ---------------------------------------------------------
                                   SCF
               by Justin Turney, Rob Parrish, Andy Simmonett
                          and Daniel G. A. Smith
                              RKS Reference
                        1 Threads,   7947 MiB Core
         ---------------------------------------------------------

  ==> Geometry <==

    Molecular point group: c1
    Full point group: C1

    Geometry (in Angstrom), charge = 0, multiplicity = 1:

       Center              X                  Y                   Z               Mass       
    ------------   -----------------  -----------------  -----------------  -----------------
         C           -0.798217237300     1.825306416750     0.079906102430    12.000000000000
         C           -0.716665137181     0.444162609215     0.251524792471    12.000000000000
         N            0.288993160473    -0.045955037923     1.166013442468    14.003074004430
         C            1.556613489679    -0.620849503516     0.843544529179    12.000000000000
         H           -0.177953090148    -0.583366173759     1.888126629038     1.007825032230
         C            0.339920947861     2.725517926423    -0.175088600383    12.000000000000
         N           -1.529237795531     3.994462909871    -0.048084012513    14.003074004430
         C           -2.030119851395     2.707054014930     0.153115034127    12.000000000000
         C           -0.142247838659     3.990671145962    -0.277120855528    12.000000000000
         C           -1.630835016935    -0.577220623578    -0.339640604509    12.000000000000
         C           -3.031932354872    -0.480423728612    -0.215421241264    12.000000000000
         C           -1.111687734957    -1.723974269733    -0.967908088479    12.000000000000
         C           -3.870244808852    -1.460557815251    -0.740056439467    12.000000000000
         C           -1.954025475138    -2.697086995291    -1.494849993708    12.000000000000
         C           -3.337634397944    -2.571819767117    -1.388524985798    12.000000000000
         C            2.378758577570    -1.087373468800     1.874404932566    12.000000000000
         C            2.048989881410    -0.658437624051    -0.463928396673    12.000000000000
         C            3.628829193254    -1.627801452170     1.599462228264    12.000000000000
         C            3.304691631367    -1.192999994267    -0.736851697797    12.000000000000
         C            4.117632917911    -1.685765069491     0.288719102641    12.000000000000
         H           -2.136195025695     4.796409700761    -0.037909133061     1.007825032230
         O           -3.234105670366     2.474508792584     0.416031086992    15.994914619570
         H           -3.459482992154     0.372251718267     0.296247768741     1.007825032230
         H           -0.042201855196    -1.859812813201    -1.046020630667     1.007825032230
         H           -4.943143173587    -1.353507882279    -0.636709613067     1.007825032230
         H           -1.522951163219    -3.560623710651    -1.986041859499     1.007825032230
         H           -3.989959100742    -3.333302882699    -1.798748151434     1.007825032230
         H            2.037739965198    -1.032671437981     2.901687549762     1.007825032230
         H            1.455857391981    -0.262764987076    -1.281198564948     1.007825032230
         H            4.231451660384    -2.005436736758     2.418289107838     1.007825032230
         H            3.650796756063    -1.226665715920    -1.764033502643     1.007825032230
         N            5.376544994137    -2.260933862862     0.007817404637    14.003074004430
         H            1.383629575700     2.424002371610    -0.277596305526     1.007825032230
         H            0.387995752656     4.909804712978    -0.482206205182     1.007825032230
         H            6.045130134607    -2.195771761259     0.764350053577     1.007825032230
         H            5.797467710330    -1.946483028033    -0.857106198767     1.007825032230

  Running in c1 symmetry.

  Rotational constants: A =      0.01379  B =      0.00704  C =      0.00511 [cm^-1]
  Rotational constants: A =    413.37774  B =    210.93206  C =    153.08906 [MHz]
  Nuclear repulsion = 1520.210766301667945

  Charge       = 0
  Multiplicity = 1
  Electrons    = 146
  Nalpha       = 73
  Nbeta        = 73

  ==> Algorithm <==

  SCF Algorithm Type is DF.
  DIIS enabled.
  MOM disabled.
  Fractional occupation disabled.
  Guess Type is READ.
  Energy threshold   = 1.00e-08
  Density threshold  = 1.00e-08
  Integral threshold = 0.00e+00

  ==> Primary Basis <==

  Basis Set: 6-311G
    Blend: 6-311G
    Number of shells: 192
    Number of basis function: 318
    Number of Cartesian functions: 318
    Spherical Harmonics?: true
    Max angular momentum: 1

  ==> DFT Potential <==

   => Composite Functional: WB97X-D <= 

    wB97X-D Hyb-GGA Exchange-Correlation Functional

    J.-D. Chai and M. Head-Gordon, Phys. Chem. Chem. Phys. 10, 6615 (2008)

    Deriv               =              1
    GGA                 =           TRUE
    Meta                =          FALSE

    Exchange Hybrid     =           TRUE
    MP2 Hybrid          =          FALSE

   => Exchange-Correlation Functionals <=

    1.0000   wB97D range-separated functional

   => Exact (HF) Exchange <=

    0.7780            HF,LR [omega = 0.2000]
    0.2220               HF 

   => Molecular Quadrature <=

    Radial Scheme          =       TREUTLER
    Pruning Scheme         =           FLAT
    Nuclear Scheme         =       TREUTLER

    BS radius alpha        =              1
    Pruning alpha          =              1
    Radial Points          =             75
    Spherical Points       =            302
    Total Points           =         806411
    Total Blocks           =           5733
    Max Points             =            256
    Max Functions          =            221

   => WB97X-D: Empirical Dispersion <=

    Chai and Head-Gordon Dispersion Correction
    Chai, J.-D.; Head-Gordon, M. (2010), J. Chem. Phys., 132: 6615-6620

        s6 =       1.000000

   => Loading Basis Set <=

    Name: (6-311G AUX)
    Role: JKFIT
    Keyword: DF_BASIS_SCF
    atoms 1-2, 4, 6, 8-20     entry C          line   125 file /home/bdw2292/miniconda3/envs/amoebamdpoltype/share/psi4/basis/cc-pvtz-jkfit.gbs 
    atoms 3, 7, 32            entry N          line   177 file /home/bdw2292/miniconda3/envs/amoebamdpoltype/share/psi4/basis/cc-pvtz-jkfit.gbs 
    atoms 5, 21, 23-31, 33-36 entry H          line    51 file /home/bdw2292/miniconda3/envs/amoebamdpoltype/share/psi4/basis/cc-pvtz-jkfit.gbs 
    atoms 22                  entry O          line   229 file /home/bdw2292/miniconda3/envs/amoebamdpoltype/share/psi4/basis/cc-pvtz-jkfit.gbs 

   => Loading Basis Set <=

    Name: 6-311G
    Role: ORBITAL
    Keyword: BASIS
    atoms 1-2, 4, 6, 8-20     entry C          line    92 file /home/bdw2292/miniconda3/envs/amoebamdpoltype/share/psi4/basis/6-311g.gbs 
    atoms 3, 7, 32            entry N          line   109 file /home/bdw2292/miniconda3/envs/amoebamdpoltype/share/psi4/basis/6-311g.gbs 
    atoms 5, 21, 23-31, 33-36 entry H          line    21 file /home/bdw2292/miniconda3/envs/amoebamdpoltype/share/psi4/basis/6-311g.gbs 
    atoms 22                  entry O          line   126 file /home/bdw2292/miniconda3/envs/amoebamdpoltype/share/psi4/basis/6-311g.gbs 

  Reading orbitals from file 180, no projection.

  ==> Pre-Iterations <==

   -------------------------------------------------------
    Irrep   Nso     Nmo     Nalpha   Nbeta   Ndocc  Nsocc
   -------------------------------------------------------
     A        318     318       0       0       0       0
   -------------------------------------------------------
    Total     318     318      73      73      73       0
   -------------------------------------------------------

  ==> Integral Setup <==

  ==> DiskDFJK: Density-Fitted J/K Matrices <==

    J tasked:                  Yes
    K tasked:                  Yes
    wK tasked:                 Yes
    Omega:               2.000E-01
    OpenMP threads:              1
    Integrals threads:           1
[...]
	   41 B(1,6,9)        =    108.012288     0.000004     0.008532   108.020820
	   42 B(1,6,33)       =    124.280378     0.000005     0.027293   124.307671
	   43 B(1,8,7)        =    104.516011    -0.000016    -0.055755   104.460257
	   44 B(1,8,22)       =    130.895815     0.000008     0.078967   130.974782
	   45 B(2,1,6)        =    126.167061     0.000001     0.031984   126.199045
	   46 B(2,1,8)        =    127.590933    -0.000005    -0.049367   127.541565
	   47 B(2,3,4)        =    122.373960    -0.000011    -0.108882   122.265078
	   48 B(2,3,5)        =    112.193572     0.000003    -0.031609   112.161962
	   49 B(2,10,11)      =    119.560461     0.000006    -0.032799   119.527662
	   50 B(2,10,12)      =    121.701947    -0.000003     0.015695   121.717642
	   51 B(3,2,10)       =    117.314413     0.000004     0.028909   117.343322
	   52 B(3,4,16)       =    119.078181    -0.000006    -0.023520   119.054661
	   53 B(3,4,17)       =    122.407862     0.000003     0.005770   122.413633
	   54 B(4,3,5)        =    112.922208     0.000004    -0.058744   112.863465
	   55 B(4,16,18)      =    121.093652    -0.000003    -0.011124   121.082528
	   56 B(4,16,28)      =    119.391073    -0.000000    -0.002834   119.388239
	   57 B(4,17,19)      =    120.846824     0.000002     0.002352   120.849176
	   58 B(4,17,29)      =    119.965548    -0.000000     0.000769   119.966317
	   59 B(6,1,8)        =    106.097323     0.000004     0.016978   106.114302
	   60 B(6,9,7)        =    110.268767    -0.000004    -0.015333   110.253434
	   61 B(6,9,34)       =    129.524453    -0.000003    -0.007957   129.516496
	   62 B(7,8,22)       =    124.585700     0.000008    -0.023156   124.562544
	   63 B(7,9,34)       =    120.206478     0.000006     0.023332   120.229810
	   64 B(8,7,9)        =    111.104538     0.000012     0.043685   111.148223
	   65 B(8,7,21)       =    122.505188    -0.000005    -0.016179   122.489009
	   66 B(9,6,33)       =    127.706868    -0.000009    -0.035456   127.671412
	   67 B(9,7,21)       =    126.388369    -0.000007    -0.027733   126.360636
	   68 B(10,11,13)     =    120.818954     0.000001    -0.001703   120.817251
	   69 B(10,11,23)     =    119.285150     0.000002     0.009728   119.294879
	   70 B(10,12,14)     =    120.438888     0.000003    -0.013257   120.425631
	   71 B(10,12,24)     =    120.316694    -0.000000     0.008571   120.325265
	   72 B(11,10,12)     =    118.604316    -0.000003     0.017062   118.621377
	   73 B(11,13,15)     =    120.110137     0.000001    -0.004409   120.105728
	   74 B(11,13,25)     =    119.696153    -0.000001     0.011955   119.708108
	   75 B(12,14,15)     =    120.381954    -0.000000     0.000461   120.382416
	   76 B(12,14,26)     =    119.487928     0.000001     0.007794   119.495722
	   77 B(13,11,23)     =    119.889220    -0.000002    -0.008074   119.881146
	   78 B(13,15,14)     =    119.629223    -0.000001     0.001350   119.630573
	   79 B(13,15,27)     =    120.182557     0.000001    -0.004944   120.177613
	   80 B(14,12,24)     =    119.244089    -0.000003     0.004695   119.248784
	   81 B(14,15,27)     =    120.187998     0.000000     0.003511   120.191509
	   82 B(15,13,25)     =    120.193070    -0.000001    -0.007733   120.185337
	   83 B(15,14,26)     =    120.129788    -0.000001    -0.008219   120.121568
	   84 B(16,4,17)      =    117.977539     0.000002     0.009665   117.987205
	   85 B(16,18,20)     =    120.931703    -0.000000    -0.000228   120.931475
	   86 B(16,18,30)     =    119.566490     0.000000    -0.001190   119.565300
	   87 B(17,19,20)     =    121.173473    -0.000003    -0.010898   121.162575
	   88 B(17,19,31)     =    119.173049     0.000002     0.007638   119.180687
	   89 B(18,16,28)     =    119.503606     0.000003     0.013899   119.517505
	   90 B(18,20,19)     =    117.815295     0.000002     0.007950   117.823246
	   91 B(18,20,32)     =    120.742182     0.000002     0.003498   120.745681
	   92 B(19,17,29)     =    119.174367    -0.000001    -0.004100   119.170267
	   93 B(19,20,32)     =    121.419702    -0.000004    -0.010797   121.408905
	   94 B(20,18,30)     =    119.497273     0.000000     0.001347   119.498620
	   95 B(20,19,31)     =    119.651609     0.000001     0.003183   119.654792
	   96 B(20,32,35)     =    119.458960    -0.000002     0.007205   119.466164
	   97 B(20,32,36)     =    118.999826    -0.000002    -0.010554   118.989273
	   98 B(35,32,36)     =    116.126060     0.000001    -0.004121   116.121939
	   99 *D(1,2,3,4)     =   -101.838433    -0.000000    -0.000000  -101.838434
	  100 D(1,2,3,5)      =    118.987603     0.000001     0.297793   119.285396
	  101 *D(1,2,10,11)   =    -51.291556     0.000000    -0.000000   -51.291556
	  102 *D(1,2,10,12)   =    132.964609     0.000000     0.000000   132.964609
	  103 D(1,6,9,7)      =      0.000000    -0.000002    -0.145190    -0.145190
	  104 D(1,6,9,34)     =    179.796886    -0.000000    -0.130731   179.666155
	  105 D(1,8,7,9)      =     -0.322311    -0.000001    -0.236926    -0.559237
	  106 D(1,8,7,21)     =   -179.849680    -0.000001    -0.209455  -180.059135
	  107 D(2,1,6,9)      =    175.692006     0.000000    -0.009285   175.682721
	  108 D(2,1,6,33)     =     -4.076213    -0.000000    -0.135155    -4.211368
	  109 D(2,1,8,7)      =   -175.497723     0.000001     0.148063  -175.349660
	  110 D(2,1,8,22)     =      3.937569     0.000001     0.154162     4.091731
	  111 *D(2,3,4,16)    =   -177.542493    -0.000000     0.000000  -177.542493
	  112 D(2,3,4,17)     =     11.032234     0.000001     0.063227    11.095461
	  113 D(2,10,11,13)   =   -176.914419    -0.000000    -0.017696  -176.932115
	  114 D(2,10,11,23)   =      4.026562     0.000000    -0.014226     4.012336
	  115 D(2,10,12,14)   =    177.338225     0.000000     0.016208   177.354433
	  116 D(2,10,12,24)   =     -2.451715     0.000000     0.013296    -2.438419
	  117 D(3,2,1,6)      =      0.996025    -0.000001    -0.206105     0.789920
	  118 D(3,2,1,8)      =    176.005202    -0.000002    -0.212227   175.792976
	  119 *D(3,2,10,11)   =    123.905288    -0.000000     0.000000   123.905289
	  120 D(3,2,10,12)    =    -51.838547    -0.000000     0.000000   -51.838546
	  121 D(3,4,16,18)    =   -176.742269     0.000000     0.026065  -176.716203
	  122 D(3,4,16,28)    =      4.506636     0.000000     0.029032     4.535668
	  123 D(3,4,17,19)    =    174.787657    -0.000001    -0.042112   174.745545
	  124 D(3,4,17,29)    =     -3.876709    -0.000000     0.006345    -3.870364
	  125 *D(4,3,2,10)    =     82.427030     0.000000     0.000000    82.427031
	  126 D(4,16,18,20)   =      3.612251     0.000000     0.024418     3.636670
	  127 D(4,16,18,30)   =   -177.166242     0.000000     0.018314  -177.147928
	  128 D(4,17,19,20)   =     -0.264843    -0.000000    -0.000906    -0.265748
	  129 D(4,17,19,31)   =   -179.765677    -0.000000     0.009163  -179.756514
	  130 D(5,3,2,10)     =    -56.746934     0.000001     0.297794   -56.449140
	  131 D(5,3,4,16)     =    -38.631247    -0.000001    -0.290074   -38.921321
	  132 D(5,3,4,17)     =    149.943480    -0.000000    -0.226847   149.716633
	  133 D(6,1,2,10)     =    176.260168    -0.000001    -0.204167   176.056001
	  134 D(6,1,8,7)      =      0.310331     0.000000     0.144281     0.454612
	  135 D(6,1,8,22)     =    179.745623     0.000001     0.150381   179.896004
	  136 D(6,9,7,8)      =      0.216329     0.000002     0.252395     0.468724
	  137 D(6,9,7,21)     =    179.721194     0.000001     0.223708   179.944903
	  138 D(7,9,6,33)     =    179.757929    -0.000001    -0.013645   179.744284
	  139 D(8,1,2,10)     =     -8.730655    -0.000002    -0.210289    -8.940944
	  140 D(8,1,6,9)      =     -0.193622     0.000001    -0.001153    -0.194775
	  141 D(8,1,6,33)     =   -179.961841     0.000000    -0.127024  -180.088864
	  142 D(8,7,9,34)     =   -179.602378     0.000001     0.239544  -179.362834
	  143 D(9,7,8,22)     =   -179.803820    -0.000002    -0.243281  -180.047101
	  144 D(10,11,13,15)  =      0.002508    -0.000000    -0.006420    -0.003912
	  145 D(10,11,13,25)  =   -179.707233     0.000000     0.033360  -179.673873
	  146 D(10,12,14,15)  =     -1.045099    -0.000000     0.005199    -1.039900
	  147 D(10,12,14,26)  =    179.163436    -0.000000    -0.006569   179.156867
	  148 D(11,10,12,14)  =      1.554996     0.000000     0.018265     1.573261
	  149 D(11,10,12,24)  =   -178.234944     0.000000     0.015354  -178.219591
	  150 D(11,13,15,14)  =      0.534081     0.000000     0.029809     0.563890
	  151 D(11,13,15,27)  =   -179.637112     0.000000     0.000126  -179.636987
	  152 D(12,10,11,13)  =     -1.038715    -0.000000    -0.017668    -1.056383
	  153 D(12,10,11,23)  =    179.902266     0.000000    -0.014198   179.888068
	  154 D(12,14,15,13)  =     -0.014886    -0.000000    -0.029068    -0.043954
	  155 D(12,14,15,27)  =   -179.843683    -0.000000     0.000634  -179.843049
	  156 D(13,15,14,26)  =    179.775235    -0.000000    -0.017192   179.758043
	  157 D(14,15,13,25)  =   -179.757631    -0.000000    -0.010105  -179.767736
	  158 D(15,13,11,23)  =    179.055877    -0.000000    -0.009744   179.046134
	  159 D(15,14,12,24)  =    178.747079     0.000000     0.008088   178.755168
	  160 D(16,4,17,19)   =      3.272647     0.000000     0.023180     3.295828
	  161 D(16,4,17,29)   =   -175.391719     0.000001     0.071637  -175.320082
	  162 D(16,18,20,19)  =     -0.487777     0.000000    -0.002224    -0.490001
	  163 D(16,18,20,32)  =   -178.774457    -0.000000    -0.026650  -178.801107
	  164 D(17,4,16,18)   =     -4.936863    -0.000000    -0.034532    -4.971396
	  165 D(17,4,16,28)   =    176.312041    -0.000000    -0.031565   176.280476
	  166 D(17,19,20,18)  =     -1.165933    -0.000000    -0.009519    -1.175453
	  167 D(17,19,20,32)  =    177.108487     0.000000     0.015340   177.123826
	  168 D(18,20,19,31)  =    178.332545    -0.000000    -0.019614   178.312931
	  169 *D(18,20,32,35) =    -28.668365    -0.000000     0.000000   -28.668365
	  170 D(18,20,32,36)  =    178.292051     0.000001     0.018550   178.310601
	  171 D(19,20,18,30)  =   -179.709815     0.000000     0.003896  -179.705920
	  172 D(19,20,32,35)  =    153.107384    -0.000000    -0.025647   153.081737
	  173 D(19,20,32,36)  =      0.067800     0.000001    -0.007097     0.060703
	  174 D(20,18,16,28)  =   -177.638039     0.000000     0.021241  -177.616798
	  175 D(20,19,17,29)  =    178.409950    -0.000000    -0.048919   178.361030
	  176 D(21,7,8,22)    =      0.668811    -0.000001    -0.215810     0.453001
	  177 D(21,7,9,34)    =     -0.097513     0.000000     0.210857     0.113345
	  178 D(23,11,13,25)  =     -0.653865     0.000000     0.030036    -0.623828
	  179 D(24,12,14,26)  =     -1.044385     0.000000    -0.003680    -1.048065
	  180 D(25,13,15,27)  =      0.071175    -0.000000    -0.039788     0.031387
	  181 D(26,14,15,27)  =     -0.053562    -0.000000     0.012510    -0.041052
	  182 D(28,16,18,30)  =      1.583467     0.000000     0.015137     1.598604
	  183 D(29,17,19,31)  =     -1.090885    -0.000000    -0.038850    -1.129735
	  184 D(30,18,20,32)  =      2.003504    -0.000000    -0.020531     1.982974
	  185 D(31,19,20,32)  =     -3.393035     0.000000     0.005245    -3.387790
	  186 D(33,6,9,34)    =     -0.445190     0.000000     0.000819    -0.444371
	  187 R(4,6)          =      3.646706    -0.000009     0.001060     3.647766
	  188 R(4,12)         =      3.359560    -0.000200    -0.000645     3.358914
	  189 R(8,11)         =      3.332029    -0.001214    -0.000876     3.331153
	  190 R(10,17)        =      3.585215    -0.000070    -0.001513     3.583702
	  191 R(11,22)        =      2.997423     0.000127     0.001396     2.998818
	  192 R(12,17)        =      3.342076    -0.000355    -0.000545     3.341531
	 ---------------------------------------------------------------------------
	Successfully symmetrized geometry.

  ==> Convergence Check <==

  Measures of convergence in internal coordinates in au.
  Criteria marked as inactive (o), active & met (*), and active & unmet ( ).
  ---------------------------------------------------------------------------------------------
   Step     Total Energy     Delta E     MAX Force     RMS Force      MAX Disp      RMS Disp   
  ---------------------------------------------------------------------------------------------
    Convergence Criteria             o    2.50e-03 *    1.70e-03 *    1.00e-02 *    6.70e-03 *
  ---------------------------------------------------------------------------------------------
     12    -895.95586268   -1.19e-05 o    2.48e-04 *    6.71e-05 *    5.20e-03 *    1.40e-03 *  ~
  ---------------------------------------------------------------------------------------------


  **** Optimization is complete! (in 12 steps) ****

  ==> Optimization Summary <==

  Measures of convergence in internal coordinates in au.
  --------------------------------------------------------------------------------------------------------------- ~
   Step         Total Energy             Delta E       MAX Force       RMS Force        MAX Disp        RMS Disp  ~
  --------------------------------------------------------------------------------------------------------------- ~
      1    -895.894605442186   -895.894605442186      0.02186653      0.00572702      0.21949810      0.03572578  ~
      2    -895.916659128093     -0.022053685907      0.01575519      0.00351989      0.31987339      0.05194552  ~
      3    -895.928657099714     -0.011997971621      0.05261448      0.00667028      0.22563688      0.03616310  ~
      4    -895.941924398721     -0.013267299006      0.04687802      0.00519987      0.20560570      0.03288847  ~
      5    -895.952037354241     -0.010112955521      0.00775747      0.00171025      0.18911732      0.02938395  ~
      6    -895.954214890906     -0.002177536665      0.00942169      0.00136413      0.12024464      0.02274393  ~
      7    -895.954434161682     -0.000219270776      0.00880558      0.00144027      0.13910391      0.01891311  ~
      8    -895.955233534448     -0.000799372766      0.00365423      0.00070714      0.07164589      0.01313333  ~
      9    -895.955715513885     -0.000481979437      0.00254814      0.00042759      0.02486178      0.00505472  ~
     10    -895.955817847645     -0.000102333760      0.00110559      0.00019629      0.02465833      0.00527878  ~
     11    -895.955850751776     -0.000032904131      0.00073151      0.00012953      0.01644234      0.00350521  ~
     12    -895.955862675377     -0.000011923601      0.00024765      0.00006710      0.00519748      0.00140072  ~
  --------------------------------------------------------------------------------------------------------------- ~

	Writing optimization data to binary file.
	Final energy is   -895.9558626753770
	Final (previous) structure:
	Cartesian Geometry (in Angstrom)
	    C    -1.0035644308   1.6076844167   0.4857000351
	    C    -0.8032464591   0.2726033979   0.4717950204
	    N     0.2192212607  -0.2146033197   1.3608101649
	    C     1.5150566204  -0.5728497757   0.9051662161
	    H    -0.1477726037  -0.8574672680   2.0488778044
	    C    -0.2711880316   2.5824419230   1.2949440939
	    N    -1.6858330167   3.7243571152  -0.0435490026
	    C    -1.9348505730   2.4045382261  -0.3851694711
	    C    -0.6999304950   3.8114524641   0.9548504326
	    C    -1.5874621786  -0.7379088414  -0.2843679445
	    C    -2.9851846736  -0.7507386280  -0.1767305891
	    C    -0.9630282732  -1.7411874121  -1.0392419187
	    C    -3.7400977656  -1.7233583737  -0.8215167236
	    C    -1.7221623799  -2.7075418787  -1.6926575870
	    C    -3.1112032188  -2.7026233394  -1.5868860375
	    C     2.4403004133  -1.0880140894   1.8213297622
	    C     1.9659341454  -0.2715867256  -0.3827930717
	    C     3.7392011016  -1.3890543661   1.4358365389
	    C     3.2782096482  -0.5414996334  -0.7610209913
	    C     4.1866820837  -1.1162029702   0.1349307177
	    H    -2.1703266604   4.4908257278  -0.4685125595
	    O    -2.7548499779   2.0420836240  -1.2405127135
	    H    -3.4774709568   0.0159223637   0.4033388778
	    H     0.1128640960  -1.7743595514  -1.1171326351
	    H    -4.8175270152  -1.7132881273  -0.7299662665
	    H    -1.2252354917  -3.4663018424  -2.2818341127
	    H    -3.6979392706  -3.4566187198  -2.0939523942
	    H     2.1305219048  -1.2730536776   2.8426025539
	    H     1.2980005160   0.1970788302  -1.0933709579
	    H     4.4209153762  -1.8293291756   2.1528290614
	    H     3.5999547378  -0.2933635705  -1.7650583129
	    N     5.4849991411  -1.4435743257  -0.2558213012
	    H     0.4754336663   2.3254763138   2.0219521396
	    H    -0.3974998895   4.7715102164   1.3346065381
	    H     6.2158833043  -1.4624396953   0.4293781262
	    H     5.7691299844  -1.2605514709  -1.1990981179
	Saving final (previous) structure.
			--------------------------
			 OPTKING Finished Execution 
			--------------------------

    Final optimized geometry and variables:
    Molecular point group: c1
    Full point group: C1

    Geometry (in Angstrom), charge = 0, multiplicity = 1:

    C           -1.003564434790     1.607684422995     0.485700037023
    C           -0.803246462256     0.272603398947     0.471795022207
    N            0.219221261572    -0.214603320570     1.360810170229
    C            1.515056626402    -0.572849777989     0.905166219641
    H           -0.147772604234    -0.857467271334     2.048877812449
    C           -0.271188032641     2.582441933147     1.294944098953
    N           -1.685833023324     3.724357129849    -0.043549002745
    C           -1.934850580591     2.404538235583    -0.385169472596
    C           -0.699930497739     3.811452479093     0.954850436326
    C           -1.587462184793    -0.737908844288    -0.284367945623
    C           -2.985184685301    -0.750738630996    -0.176730589804
    C           -0.963028276964    -1.741187418991    -1.039241922743
    C           -3.740097780271    -1.723358380514    -0.821516726779
    C           -1.722162386690    -2.707541889348    -1.692657593686
    C           -3.111203230981    -2.702623350042    -1.586886043700
    C            2.440300422879    -1.088014093678     1.821329769323
    C            1.965934153159    -0.271586726700    -0.382793073219
    C            3.739201116322    -1.389054371521     1.435836544569
    C            3.278209661068    -0.541499635575    -0.761020994288
    C            4.186682100144    -1.116202974567     0.134930718264
    H           -2.170326668958     4.490825745452    -0.468512561343
    O           -2.754849988679     2.042083632074    -1.240512718397
    H           -3.477470970469     0.015922363767     0.403338879382
    H            0.112864096474    -1.774359558337    -1.117132639503
    H           -4.817527034163    -1.713288134000    -0.729966269397
    H           -1.225235496490    -3.466301856030    -2.281834121679
    H           -3.697939285169    -3.456618733356    -2.093952402440
    H            2.130521913198    -1.273053682600     2.842602565112
    H            1.298000521132     0.197078830932    -1.093370962179
    H            4.420915393555    -1.829329182810     2.152829069844
    H            3.599954751901    -0.293363571692    -1.765058319790
    N            5.484999162699    -1.443574331374    -0.255821302254
    H            0.475433668206     2.325476322921     2.021952147574
    H           -0.397499891063     4.771510235124     1.334606543351
    H            6.215883328734    -1.462439701037     0.429378127849
    H            5.769130007076    -1.260551475821    -1.199098122604

	Removing binary optimization data file.
	Cleaning optimization helper files.

    Psi4 stopped on: Saturday, 06 November 2021 11:42AM
    Psi4 wall time for execution: 2:28:27.17

*** Psi4 exiting successfully. Buy a developer a beer!
