
    -----------------------------------------------------------------------
          Psi4: An Open-Source Ab Initio Electronic Structure Package
                               Psi4 1.3.2 release

                         Git: Rev {HEAD} ecbda83 


    R. M. Parrish, L. A. Burns, D. G. A. Smith, A. C. Simmonett,
    A. E. DePrince III, E. G. Hohenstein, U. Bozkaya, A. Yu. Sokolov,
    R. Di Remigio, R. M. Richard, J. F. Gonthier, A. M. James,
    H. R. McAlexander, A. Kumar, M. Saitow, X. Wang, B. P. Pritchard,
    P. Verma, H. F. Schaefer III, K. Patkowski, R. A. King, E. F. Valeev,
    F. A. Evangelista, J. M. Turney, T. D. Crawford, and C. D. Sherrill,
    J. Chem. Theory Comput. 13(7) pp 3185--3197 (2017).
    (doi: 10.1021/acs.jctc.7b00174)


                         Additional Contributions by
    P. Kraus, H. Kruse, M. H. Lechner, M. C. Schieber, R. A. Shaw,
    A. Alenaizan, R. Galvelis, Z. L. Glick, S. Lehtola, and J. P. Misiewicz

    -----------------------------------------------------------------------


    Psi4 started on: Friday, 05 November 2021 11:55AM

    Process ID: 28837
    Host:       node44.bme.utexas.edu
    PSIDATADIR: /home/bdw2292/miniconda3/envs/amoebamdpoltype/share/psi4
    Memory:     500.0 MiB
    Threads:    1
    
  ==> Input File <==

--------------------------------------------------------------------------
molecule { 
0 1
 C   -0.638505    1.262116   -0.314995
 C   -0.778996   -0.089869   -0.090653
 N    0.313326   -0.915889    0.288614
 C    1.750407   -0.825679    0.355058
 H   -0.008012   -1.462108    1.089275
 C   -0.391115    2.290694    0.679504
 N   -0.561234    3.298028   -1.334666
 C   -0.758269    1.959347   -1.643534
 C   -0.352796    3.482035    0.025057
 C   -2.096563   -0.779575   -0.131565
 C   -3.199987   -0.293961    0.614323
 C   -2.246310   -1.976355   -0.875145
 C   -4.422817   -0.977132    0.598343
 C   -3.469858   -2.656831   -0.888575
 C   -4.566186   -2.161032   -0.153784
 C    2.467516   -1.974738    0.783763
 C    2.505388    0.324310    0.008965
 C    3.865056   -1.964013    0.882446
 C    3.904526    0.327592    0.106458
 C    4.615717   -0.810531    0.555959
 H   -0.578673    4.011070   -2.049728
 O   -0.987140    1.549249   -2.780489
 H   -3.095285    0.615982    1.207207
 H   -1.398851   -2.365156   -1.441707
 H   -5.262858   -0.588161    1.175874
 H   -3.567823   -3.574489   -1.470421
 H   -5.519389   -2.692146   -0.165565
 H    1.934047   -2.893125    1.041679
 H    2.022913    1.233121   -0.344703
 H    4.371578   -2.871973    1.217787
 H    4.444907    1.234702   -0.173949
 N    6.038786   -0.802853    0.655359
 H   -0.253247    2.131217    1.739111
 H   -0.187481    4.478626    0.410932
 H    6.401546   -1.439904    1.365257
 H    6.431448    0.126082    0.811141
}
set optking { 
  frozen_dihedral = ("
    1 2 3 4
    10 2 3 4
    1 2 10 11
    1 2 10 12
    3 2 10 11
    16 4 3 2
    18 20 32 35
  ")
}
set {
  geom_maxiter 400
  g_convergence GAU_LOOSE
  dynamic_level 1
}
memory 8.333333333333334GB
set_num_threads(1)
psi4_io.set_default_path("/scratch/bdw2292/Psi4-7_1_Index_0_GrowFragment_0-farH_in17")
for _ in range(1):
  try:
    set opt_coordinates both
    optimize('wb97x-d/6-311G')
    break
  except OptimizationConvergenceError:
    break
  else:
    try:
      set opt_coordinates cartesian
      optimize('wb97x-d/6-311G')
      break
    except OptimizationConvergenceError:
      pass
clean()
--------------------------------------------------------------------------

  Memory set to   7.761 GiB by Python driver.
  Threads set to 1 by Python driver.
gradient() will perform analytic gradient computation.

*** tstart() called on node44.bme.utexas.edu
*** at Fri Nov  5 11:55:56 2021

   => Loading Basis Set <=

    Name: 6-311G
    Role: ORBITAL
    Keyword: BASIS
    atoms 1-2, 4, 6, 8-20     entry C          line    92 file /home/bdw2292/miniconda3/envs/amoebamdpoltype/share/psi4/basis/6-311g.gbs 
    atoms 3, 7, 32            entry N          line   109 file /home/bdw2292/miniconda3/envs/amoebamdpoltype/share/psi4/basis/6-311g.gbs 
    atoms 5, 21, 23-31, 33-36 entry H          line    21 file /home/bdw2292/miniconda3/envs/amoebamdpoltype/share/psi4/basis/6-311g.gbs 
    atoms 22                  entry O          line   126 file /home/bdw2292/miniconda3/envs/amoebamdpoltype/share/psi4/basis/6-311g.gbs 


         ---------------------------------------------------------
                                   SCF
               by Justin Turney, Rob Parrish, Andy Simmonett
                          and Daniel G. A. Smith
                              RKS Reference
                        1 Threads,   7947 MiB Core
         ---------------------------------------------------------

  ==> Geometry <==

    Molecular point group: c1
    Full point group: C1

    Geometry (in Angstrom), charge = 0, multiplicity = 1:

       Center              X                  Y                   Z               Mass       
    ------------   -----------------  -----------------  -----------------  -----------------
         C           -0.729898353497     1.318252032351    -0.172969318492    12.000000000000
         C           -0.870389353497    -0.033732967649     0.051372681508    12.000000000000
         N            0.221932646503    -0.859752967649     0.430639681508    14.003074004430
         C            1.659013646503    -0.769542967649     0.497083681508    12.000000000000
         H           -0.099405353497    -1.405971967649     1.231300681508     1.007825032230
         C           -0.482508353497     2.346830032351     0.821529681508    12.000000000000
         N           -0.652627353497     3.354164032351    -1.192640318492    14.003074004430
         C           -0.849662353497     2.015483032351    -1.501508318492    12.000000000000
         C           -0.444189353497     3.538171032351     0.167082681508    12.000000000000
         C           -2.187956353497    -0.723438967649     0.010460681508    12.000000000000
         C           -3.291380353497    -0.237824967649     0.756348681508    12.000000000000
         C           -2.337703353497    -1.920218967649    -0.733119318492    12.000000000000
         C           -4.514210353497    -0.920995967649     0.740368681508    12.000000000000
         C           -3.561251353497    -2.600694967649    -0.746549318492    12.000000000000
         C           -4.657579353497    -2.104895967649    -0.011758318492    12.000000000000
         C            2.376122646503    -1.918601967649     0.925788681508    12.000000000000
         C            2.413994646503     0.380446032351     0.150990681508    12.000000000000
         C            3.773662646503    -1.907876967649     1.024471681508    12.000000000000
         C            3.813132646503     0.383728032351     0.248483681508    12.000000000000
         C            4.524323646503    -0.754394967649     0.697984681508    12.000000000000
         H           -0.670066353497     4.067206032351    -1.907702318492     1.007825032230
         O           -1.078533353497     1.605385032351    -2.638463318492    15.994914619570
         H           -3.186678353497     0.672118032351     1.349232681508     1.007825032230
         H           -1.490244353497    -2.309019967649    -1.299681318492     1.007825032230
         H           -5.354251353497    -0.532024967649     1.317899681508     1.007825032230
         H           -3.659216353497    -3.518352967649    -1.328395318492     1.007825032230
         H           -5.610782353497    -2.636009967649    -0.023539318492     1.007825032230
         H            1.842653646503    -2.836988967649     1.183704681508     1.007825032230
         H            1.931519646503     1.289257032351    -0.202677318492     1.007825032230
         H            4.280184646503    -2.815836967649     1.359812681508     1.007825032230
         H            4.353513646503     1.290838032351    -0.031923318492     1.007825032230
         N            5.947392646503    -0.746716967649     0.797384681508    14.003074004430
         H           -0.344640353497     2.187353032351     1.881136681508     1.007825032230
         H           -0.278874353497     4.534762032351     0.552957681508     1.007825032230
         H            6.310152646503    -1.383767967649     1.507282681508     1.007825032230
         H            6.340054646503     0.182218032351     0.953166681508     1.007825032230

  Running in c1 symmetry.

  Rotational constants: A =      0.01503  B =      0.00636  C =      0.00495 [cm^-1]
  Rotational constants: A =    450.48174  B =    190.57053  C =    148.37324 [MHz]
  Nuclear repulsion = 1505.916105970381977

  Charge       = 0
  Multiplicity = 1
  Electrons    = 146
  Nalpha       = 73
  Nbeta        = 73

  ==> Algorithm <==

  SCF Algorithm Type is DF.
  DIIS enabled.
  MOM disabled.
  Fractional occupation disabled.
  Guess Type is SAD.
  Energy threshold   = 1.00e-08
  Density threshold  = 1.00e-08
  Integral threshold = 0.00e+00

  ==> Primary Basis <==

  Basis Set: 6-311G
    Blend: 6-311G
    Number of shells: 192
    Number of basis function: 318
    Number of Cartesian functions: 318
    Spherical Harmonics?: true
    Max angular momentum: 1

  ==> DFT Potential <==

   => Composite Functional: WB97X-D <= 

    wB97X-D Hyb-GGA Exchange-Correlation Functional

    J.-D. Chai and M. Head-Gordon, Phys. Chem. Chem. Phys. 10, 6615 (2008)

    Deriv               =              1
    GGA                 =           TRUE
    Meta                =          FALSE

    Exchange Hybrid     =           TRUE
    MP2 Hybrid          =          FALSE

   => Exchange-Correlation Functionals <=

    1.0000   wB97D range-separated functional

   => Exact (HF) Exchange <=

    0.7780            HF,LR [omega = 0.2000]
    0.2220               HF 

   => Molecular Quadrature <=

    Radial Scheme          =       TREUTLER
    Pruning Scheme         =           FLAT
    Nuclear Scheme         =       TREUTLER

    BS radius alpha        =              1
    Pruning alpha          =              1
    Radial Points          =             75
    Spherical Points       =            302
    Total Points           =         806592
    Total Blocks           =           5752
    Max Points             =            256
    Max Functions          =            216

   => WB97X-D: Empirical Dispersion <=

    Chai and Head-Gordon Dispersion Correction
    Chai, J.-D.; Head-Gordon, M. (2010), J. Chem. Phys., 132: 6615-6620

        s6 =       1.000000

   => Loading Basis Set <=

    Name: (6-311G AUX)
    Role: JKFIT
    Keyword: DF_BASIS_SCF
    atoms 1-2, 4, 6, 8-20     entry C          line   125 file /home/bdw2292/miniconda3/envs/amoebamdpoltype/share/psi4/basis/cc-pvtz-jkfit.gbs 
    atoms 3, 7, 32            entry N          line   177 file /home/bdw2292/miniconda3/envs/amoebamdpoltype/share/psi4/basis/cc-pvtz-jkfit.gbs 
    atoms 5, 21, 23-31, 33-36 entry H          line    51 file /home/bdw2292/miniconda3/envs/amoebamdpoltype/share/psi4/basis/cc-pvtz-jkfit.gbs 
    atoms 22                  entry O          line   229 file /home/bdw2292/miniconda3/envs/amoebamdpoltype/share/psi4/basis/cc-pvtz-jkfit.gbs 

  ==> Pre-Iterations <==

   -------------------------------------------------------
    Irrep   Nso     Nmo     Nalpha   Nbeta   Ndocc  Nsocc
   -------------------------------------------------------
     A        318     318       0       0       0       0
   -------------------------------------------------------
    Total     318     318      73      73      73       0
   -------------------------------------------------------

  ==> Integral Setup <==

  ==> DiskDFJK: Density-Fitted J/K Matrices <==

    J tasked:                  Yes
    K tasked:                  Yes
    wK tasked:                 Yes
    Omega:               2.000E-01
    OpenMP threads:              1
    Integrals threads:           1
    Memory [MiB]:             2661
    Algorithm:                Core
    Integral Cache:           NONE
    Schwarz Cutoff:          1E-12
    Fitting Condition:       1E-10

   => Auxiliary Basis Set <=

  Basis Set: (6-311G AUX)
    Blend: CC-PVTZ-JKFIT
    Number of shells: 675
    Number of basis function: 2109
    Number of Cartesian functions: 2541
    Spherical Harmonics?: true
    Max angular momentum: 4

  Cached 100.0% of DFT collocation blocks in 3.222 [GiB].

  Minimum eigenvalue in the overlap matrix is 2.6333712581E-04.
  Using Symmetric Orthogonalization.

  SCF Guess: Superposition of Atomic Densities via on-the-fly atomic UHF.

  ==> Iterations <==

                           Total Energy        Delta E     RMS |[F,P]|

   @DF-RKS iter SAD:  -895.02892573240672   -8.95029e+02   0.00000e+00 
   @DF-RKS iter   1:  -895.23526672341711   -2.06341e-01   3.67676e-03 DIIS
   @DF-RKS iter   2:  -895.40836514922546   -1.73098e-01   3.44667e-03 DIIS
   @DF-RKS iter   3:  -895.85701854623119   -4.48653e-01   9.75092e-04 DIIS
   @DF-RKS iter   4:  -895.89678591955487   -3.97674e-02   1.96105e-04 DIIS
   @DF-RKS iter   5:  -895.89861437026923   -1.82845e-03   8.35789e-05 DIIS
   @DF-RKS iter   6:  -895.89906150797185   -4.47138e-04   2.29575e-05 DIIS
   @DF-RKS iter   7:  -895.89916493569069   -1.03428e-04   1.75853e-05 DIIS
   @DF-RKS iter   8:  -895.89921318624909   -4.82506e-05   7.08174e-06 DIIS
   @DF-RKS iter   9:  -895.89923677722197   -2.35910e-05   4.16286e-06 DIIS
   @DF-RKS iter  10:  -895.89923961278794   -2.83557e-06   1.29230e-06 DIIS
   @DF-RKS iter  11:  -895.89923999489361   -3.82106e-07   5.63496e-07 DIIS
   @DF-RKS iter  12:  -895.89924005054513   -5.56515e-08   2.38771e-07 DIIS
   @DF-RKS iter  13:  -895.89924006548904   -1.49439e-08   9.81005e-08 DIIS
   @DF-RKS iter  14:  -895.89924006686829   -1.37925e-09   5.76549e-08 DIIS
   @DF-RKS iter  15:  -895.89924006754131   -6.73026e-10   1.59048e-08 DIIS
   @DF-RKS iter  16:  -895.89924006759043   -4.91127e-11   9.72288e-09 DIIS
  Energy and wave function converged.


  ==> Post-Iterations <==

    Orbital Energies [Eh]
    ---------------------

    Doubly Occupied:                                                      

       1A    -19.178015     2A    -14.497820     3A    -14.449197  
       4A    -14.448710     5A    -10.374476     6A    -10.367933  
       7A    -10.352859     8A    -10.350195     9A    -10.320300  
      10A    -10.313004    11A    -10.310916    12A    -10.310722  
      13A    -10.307904    14A    -10.307313    15A    -10.306537  
      16A    -10.305069    17A    -10.304569    18A    -10.304157  
      19A    -10.300880    20A    -10.274757    21A    -10.273950  
      22A     -1.123376    23A     -1.070660    24A     -1.040547  
      25A     -1.029751    26A     -0.975356    27A     -0.951455  
      28A     -0.902938    29A     -0.867484    30A     -0.861147  
      31A     -0.860193    32A     -0.839020    33A     -0.808282  
      34A     -0.760805    35A     -0.728109    36A     -0.717461  
      37A     -0.708191    38A     -0.704072    39A     -0.673185  
      40A     -0.655594    41A     -0.633780    42A     -0.624619  
      43A     -0.608008    44A     -0.596573    45A     -0.583883  
      46A     -0.573186    47A     -0.560240    48A     -0.542279  
      49A     -0.538103    50A     -0.530445    51A     -0.528595  
      52A     -0.521273    53A     -0.517150    54A     -0.505705  
      55A     -0.503620    56A     -0.493750    57A     -0.487966  
      58A     -0.475947    59A     -0.467584    60A     -0.461374  
      61A     -0.448328    62A     -0.442926    63A     -0.437951  
      64A     -0.431333    65A     -0.389659    66A     -0.382258  
      67A     -0.343453    68A     -0.341675    69A     -0.341490  
      70A     -0.323603    71A     -0.307729    72A     -0.282244  
      73A     -0.227572  

    Virtual:                                                              

      74A     -0.025364    75A      0.049682    76A      0.053122  
      77A      0.057699    78A      0.079300    79A      0.110701  
      80A      0.112950    81A      0.125758    82A      0.134715  
      83A      0.140177    84A      0.142215    85A      0.150019  
      86A      0.155859    87A      0.169312    88A      0.174416  
      89A      0.175367    90A      0.182135    91A      0.192374  
      92A      0.198990    93A      0.204764    94A      0.211458  
      95A      0.217731    96A      0.223045    97A      0.232595  
      98A      0.250252    99A      0.287100   100A      0.299491  
     101A      0.313222   102A      0.317464   103A      0.330906  
     104A      0.331738   105A      0.340101   106A      0.343417  
     107A      0.352594   108A      0.356464   109A      0.363271  
     110A      0.375013   111A      0.378145   112A      0.385297  
     113A      0.393781   114A      0.415737   115A      0.427274  
     116A      0.433539   117A      0.435677   118A      0.443264  
     119A      0.447564   120A      0.460389   121A      0.462844  
     122A      0.464827   123A      0.472201   124A      0.478721  
     125A      0.485993   126A      0.488927   127A      0.490678  
     128A      0.495111   129A      0.499939   130A      0.501259  
     131A      0.504957   132A      0.511228   133A      0.517871  
     134A      0.526326   135A      0.527781   136A      0.539235  
     137A      0.541152   138A      0.547411   139A      0.553186  
     140A      0.562488   141A      0.566977   142A      0.575185  
     143A      0.578820   144A      0.585460   145A      0.594299  
     146A      0.605324   147A      0.609585   148A      0.616671  
     149A      0.623733   150A      0.633922   151A      0.638393  
     152A      0.643795   153A      0.655196   154A      0.664739  
     155A      0.671615   156A      0.677373   157A      0.686596  
     158A      0.690959   159A      0.698097   160A      0.702405  
     161A      0.705537   162A      0.713516   163A      0.724665  
     164A      0.726320   165A      0.729022   166A      0.735731  
     167A      0.742250   168A      0.751122   169A      0.755582  
     170A      0.758159   171A      0.768149   172A      0.774430  
     173A      0.781845   174A      0.791513   175A      0.801712  
     176A      0.808398   177A      0.818130   178A      0.830726  
     179A      0.843931   180A      0.851190   181A      0.852441  
     182A      0.860685   183A      0.861831   184A      0.870986  
     185A      0.881768   186A      0.890691   187A      0.909869  
     188A      0.913292   189A      0.921370   190A      0.937632  
     191A      0.947097   192A      0.954665   193A      0.959092  
     194A      0.969332   195A      0.982036   196A      0.998585  
     197A      1.002314   198A      1.022959   199A      1.038526  
     200A      1.060919   201A      1.068646   202A      1.080312  
     203A      1.083985   204A      1.090793   205A      1.120072  
     206A      1.121933   207A      1.133317   208A      1.161605  
     209A      1.165135   210A      1.195708   211A      1.233166  
     212A      1.279747   213A      1.327240   214A      1.367074  
     215A      1.389584   216A      1.463307   217A      1.511662  
     218A      1.559373   219A      1.841052   220A      2.260442  
     221A      2.292527   222A      2.330791   223A      2.340204  
     224A      2.343957   225A      2.358526   226A      2.361777  
     227A      2.380427   228A      2.395776   229A      2.415109  
     230A      2.440260   231A      2.458677   232A      2.484442  
     233A      2.559250   234A      2.607178   235A      2.615490  
     236A      2.624598   237A      2.655495   238A      2.658154  
     239A      2.661568   240A      2.678064   241A      2.704245  
     242A      2.720340   243A      2.768080   244A      2.773253  
     245A      2.791989   246A      2.801868   247A      2.816466  
     248A      2.818694   249A      2.830665   250A      2.834331  
     251A      2.840494   252A      2.843293   253A      2.866237  
     254A      2.882730   255A      2.910804   256A      2.926156  
     257A      2.953103   258A      2.970896   259A      2.982682  
     260A      3.004200   261A      3.016778   262A      3.026100  
     263A      3.069707   264A      3.118656   265A      3.135366  
     266A      3.146271   267A      3.160807   268A      3.181146  
     269A      3.201563   270A      3.225650   271A      3.231102  
     272A      3.242019   273A      3.256712   274A      3.279460  
     275A      3.292828   276A      3.297549   277A      3.312473  
     278A      3.328832   279A      3.332877   280A      3.345987  
     281A      3.353495   282A      3.370542   283A      3.448088  
     284A      3.504392   285A      3.531733   286A      3.822758  
     287A      3.834323   288A      3.917646   289A      4.066342  
     290A      4.083928   291A      4.121886   292A      4.162981  
     293A      4.252936   294A      4.300418   295A      5.028406  
     296A      5.103767   297A      5.144482   298A     23.220126  
     299A     23.245475   300A     23.377030   301A     23.465805  
     302A     23.469796   303A     23.477905   304A     23.498728  
     305A     23.537801   306A     23.617295   307A     23.697332  
     308A     23.721828   309A     23.743514   310A     23.771924  
     311A     23.780685   312A     23.883251   313A     23.973246  
     314A     23.980279   315A     35.522025   316A     35.538761  
     317A     35.553316   318A     50.102855  

    Final Occupation by Irrep:
              A 
    DOCC [    73 ]

  @DF-RKS Final Energy:  -895.89924006759043

   => Energetics <=

    Nuclear Repulsion Energy =           1505.9161059703819774
    One-Electron Energy =               -4204.7321776873932322
    Two-Electron Energy =                1890.5125084689743744
    DFT Exchange-Correlation Energy =     -87.5710779382054483
    Empirical Dispersion Energy =          -0.0245988813480061
    VV10 Nonlocal Energy =                  0.0000000000000000
    Total Energy =                       -895.8992400675903127

Computation Completed


Properties will be evaluated at   0.000000,   0.000000,   0.000000 [a0]

Properties computed using the SCF density matrix

  Nuclear Dipole Moment: [e a0]
     X:     4.0698      Y:    -3.0106      Z:     6.1207

  Electronic Dipole Moment: [e a0]
     X:    -3.2792      Y:     2.5035      Z:    -3.6605

  Dipole Moment: [e a0]
     X:     0.7906      Y:    -0.5071      Z:     2.4602     Total:     2.6334

  Dipole Moment: [D]
     X:     2.0095      Y:    -1.2888      Z:     6.2531     Total:     6.6934


*** tstop() called on node44.bme.utexas.edu at Fri Nov  5 12:05:04 2021
Module time:
	user time   =     534.22 seconds =       8.90 minutes
	system time =      13.49 seconds =       0.22 minutes
	total time  =        548 seconds =       9.13 minutes
Total time:
	user time   =     534.22 seconds =       8.90 minutes
	system time =      13.49 seconds =       0.22 minutes
	total time  =        548 seconds =       9.13 minutes

*** tstart() called on node44.bme.utexas.edu
*** at Fri Nov  5 12:05:04 2021


         ------------------------------------------------------------
                                   SCF GRAD                          
                          Rob Parrish, Justin Turney,                
                       Andy Simmonett, and Alex Sokolov              
         ------------------------------------------------------------

  ==> Geometry <==

    Molecular point group: c1
    Full point group: C1

    Geometry (in Angstrom), charge = 0, multiplicity = 1:

       Center              X                  Y                   Z               Mass       
    ------------   -----------------  -----------------  -----------------  -----------------
         C           -0.729898353497     1.318252032351    -0.172969318492    12.000000000000
         C           -0.870389353497    -0.033732967649     0.051372681508    12.000000000000
         N            0.221932646503    -0.859752967649     0.430639681508    14.003074004430
         C            1.659013646503    -0.769542967649     0.497083681508    12.000000000000
         H           -0.099405353497    -1.405971967649     1.231300681508     1.007825032230
         C           -0.482508353497     2.346830032351     0.821529681508    12.000000000000
         N           -0.652627353497     3.354164032351    -1.192640318492    14.003074004430
         C           -0.849662353497     2.015483032351    -1.501508318492    12.000000000000
         C           -0.444189353497     3.538171032351     0.167082681508    12.000000000000
         C           -2.187956353497    -0.723438967649     0.010460681508    12.000000000000
         C           -3.291380353497    -0.237824967649     0.756348681508    12.000000000000
         C           -2.337703353497    -1.920218967649    -0.733119318492    12.000000000000
         C           -4.514210353497    -0.920995967649     0.740368681508    12.000000000000
         C           -3.561251353497    -2.600694967649    -0.746549318492    12.000000000000
         C           -4.657579353497    -2.104895967649    -0.011758318492    12.000000000000
         C            2.376122646503    -1.918601967649     0.925788681508    12.000000000000
         C            2.413994646503     0.380446032351     0.150990681508    12.000000000000
         C            3.773662646503    -1.907876967649     1.024471681508    12.000000000000
         C            3.813132646503     0.383728032351     0.248483681508    12.000000000000
         C            4.524323646503    -0.754394967649     0.697984681508    12.000000000000
         H           -0.670066353497     4.067206032351    -1.907702318492     1.007825032230
         O           -1.078533353497     1.605385032351    -2.638463318492    15.994914619570
         H           -3.186678353497     0.672118032351     1.349232681508     1.007825032230
         H           -1.490244353497    -2.309019967649    -1.299681318492     1.007825032230
         H           -5.354251353497    -0.532024967649     1.317899681508     1.007825032230
         H           -3.659216353497    -3.518352967649    -1.328395318492     1.007825032230
         H           -5.610782353497    -2.636009967649    -0.023539318492     1.007825032230
         H            1.842653646503    -2.836988967649     1.183704681508     1.007825032230
         H            1.931519646503     1.289257032351    -0.202677318492     1.007825032230
         H            4.280184646503    -2.815836967649     1.359812681508     1.007825032230
         H            4.353513646503     1.290838032351    -0.031923318492     1.007825032230
         N            5.947392646503    -0.746716967649     0.797384681508    14.003074004430
         H           -0.344640353497     2.187353032351     1.881136681508     1.007825032230
         H           -0.278874353497     4.534762032351     0.552957681508     1.007825032230
         H            6.310152646503    -1.383767967649     1.507282681508     1.007825032230
         H            6.340054646503     0.182218032351     0.953166681508     1.007825032230

  Nuclear repulsion = 1505.916105970381977

  ==> Basis Set <==

  Basis Set: 6-311G
    Blend: 6-311G
    Number of shells: 192
    Number of basis function: 318
    Number of Cartesian functions: 318
    Spherical Harmonics?: true
    Max angular momentum: 1

  ==> DFJKGrad: Density-Fitted SCF Gradients <==

    Gradient:                    1
    J tasked:                  Yes
    K tasked:                  Yes
    wK tasked:                 Yes
    Omega:               2.000E-01
    OpenMP threads:              1
    Integrals threads:           1
    Memory [MiB]:             5960
    Schwarz Cutoff:          0E+00
    Fitting Condition:       1E-10

   => Auxiliary Basis Set <=

  Basis Set: (6-311G AUX)
    Blend: CC-PVTZ-JKFIT
    Number of shells: 675
    Number of basis function: 2109
    Number of Cartesian functions: 2541
    Spherical Harmonics?: true
    Max angular momentum: 4

  ==> DFT Potential <==

   => Composite Functional: WB97X-D <= 

    wB97X-D Hyb-GGA Exchange-Correlation Functional

    J.-D. Chai and M. Head-Gordon, Phys. Chem. Chem. Phys. 10, 6615 (2008)

    Deriv               =              1
    GGA                 =           TRUE
    Meta                =          FALSE

    Exchange Hybrid     =           TRUE
    MP2 Hybrid          =          FALSE

   => Exchange-Correlation Functionals <=

    1.0000   wB97D range-separated functional

   => Exact (HF) Exchange <=

    0.7780            HF,LR [omega = 0.2000]
    0.2220               HF 

   => Molecular Quadrature <=

    Radial Scheme          =       TREUTLER
    Pruning Scheme         =           FLAT
    Nuclear Scheme         =       TREUTLER

    BS radius alpha        =              1
    Pruning alpha          =              1
    Radial Points          =             75
    Spherical Points       =            302
    Total Points           =         806592
    Total Blocks           =           5752
    Max Points             =            256
    Max Functions          =            216


  -Total Gradient:
     Atom            X                  Y                   Z
    ------   -----------------  -----------------  -----------------
       1        0.002298880522    -0.029885390489     0.019159125844
       2       -0.025719080634     0.024138922783     0.002330844621
       3        0.031919128281    -0.008926481566    -0.042513304375
       4       -0.011513581466    -0.016430147623     0.008381852895
       5       -0.003119817827     0.017448281826     0.013097944538
       6       -0.027079644182     0.002810491129     0.009001134103
       7       -0.008591234080    -0.005592210235     0.003916207253
       8        0.026358164882     0.000018265307    -0.040016981462
       9       -0.003222934069    -0.012895256405    -0.008046216336
      10       -0.001763053399     0.015608187818     0.011091654026
      11       -0.004372713663    -0.001432909578     0.006638373312
      12        0.002747403372    -0.000282420842    -0.005882983248
      13       -0.002092401065     0.005790191943     0.003540689632
      14        0.002864095648    -0.002904875204    -0.003489106282
      15       -0.007930618397    -0.004621090105    -0.000171404444
      16        0.002723328126    -0.007955449150     0.001811481021
      17        0.000995955156     0.005214011596     0.000295910309
      18        0.002815816937    -0.003160638710     0.001125616211
      19        0.000984871325     0.007440009985    -0.000566682423
      20        0.001304274960    -0.001590851717     0.001245346730
      21        0.000454387123     0.004620311823    -0.006631666858
      22       -0.001274670234     0.016122971894     0.023592183916
      23       -0.000899663301     0.004303508949     0.005056850994
      24        0.004834104646    -0.004179163807    -0.003091471128
      25       -0.004999448192     0.002830265618     0.003573600241
      26        0.000342133004    -0.005774079681    -0.003167090865
      27       -0.005844769861    -0.003409189588    -0.000027206590
      28       -0.001753975313    -0.006218623855     0.002206652600
      29        0.001760222364     0.006157847260    -0.003653245796
      30        0.002031450593    -0.005983025745     0.002390299322
      31        0.002685218804     0.006030337934    -0.001978420663
      32        0.012570724580    -0.006833458333    -0.019650873115
      33        0.000596030918    -0.000513782793     0.002798797116
      34        0.004719803302     0.003668259373    -0.001221788726
      35        0.002259570674    -0.000830238371     0.010858333053
      36        0.002694279040     0.007353680313     0.008061178673


*** tstop() called on node44.bme.utexas.edu at Fri Nov  5 12:09:30 2021
Module time:
	user time   =     263.09 seconds =       4.38 minutes
	system time =       3.11 seconds =       0.05 minutes
	total time  =        266 seconds =       4.43 minutes
Total time:
	user time   =     797.31 seconds =      13.29 minutes
	system time =      16.60 seconds =       0.28 minutes
	total time  =        814 seconds =      13.57 minutes

			-----------------------------------------
			 OPTKING 2.0: for geometry optimizations 
			  - R.A. King,  Bethel University        
			-----------------------------------------
	At level 1: Red. Int., RFO, no backsteps, dynamic trust

	Internal coordinates to be generated automatically.
	Detected frag 1 with atoms:  1 2 3 4 5 6 7 8 9 10 11 12 13 14 15 16 17 18 19 20
	 21 22 23 24 25 26 27 28 29 30 31 32 33 34 35 36
	---Fragment 1 Bond Connectivity---
	 1 : 2 6 8
	 2 : 1 3 10
	 3 : 2 4 5
	 4 : 3 16 17
	 5 : 3
	 6 : 1 9 33
	 7 : 8 9 21
	 8 : 1 7 22
	 9 : 6 7 34
	 10 : 2 11 12
	 11 : 10 13 23
	 12 : 10 14 24
	 13 : 11 15 25
	 14 : 12 15 26
	 15 : 13 14 27
	 16 : 4 18 28
	 17 : 4 19 29
	 18 : 16 20 30
	 19 : 17 20 31
	 20 : 18 19 32
	 21 : 7
	 22 : 8
	 23 : 11
	 24 : 12
	 25 : 13
	 26 : 14
	 27 : 15
	 28 : 16
	 29 : 17
	 30 : 18
	 31 : 19
	 32 : 20 35 36
	 33 : 6
	 34 : 9
	 35 : 32
	 36 : 32

	Assuming in current code that numbering for constraints corresponds to unified fragment.
	Frozen dihedral atom list: 
	     1     2     3     4
	    10     2     3     4
	     1     2    10    11
	     1     2    10    12
	     3     2    10    11
	    16     4     3     2
	    18    20    32    35
	---Fragment 1 Geometry and Gradient---
	 C          -1.3793079875        2.4911353055       -0.3268646401
	 C          -1.6447975006       -0.0637460703        0.0970802984
	 N           0.4193919202       -1.6246976444        0.8137910568
	 C           3.1350814303       -1.4542254506        0.9393520195
	 H          -0.1878488935       -2.6569019589        2.3268210661
	 C          -0.9118086414        4.4348660241        1.5524661020
	 N          -1.2332869601        6.3384514010       -2.2537635681
	 C          -1.6056291472        3.8087109417       -2.8374394970
	 C          -0.8393962260        6.6861742362        0.3157405084
	 C          -4.1346382826       -1.3671015173        0.0197678231
	 C          -6.2198074428       -0.4494240547        1.4292918634
	 C          -4.4176191007       -3.6286879498       -1.3853947292
	 C          -8.5306212408       -1.7404301415        1.3990940399
	 C          -6.7297897220       -4.9146012247       -1.4107737511
	 C          -8.8015493857       -3.9776769014       -0.0222200016
	 C           4.4902210424       -3.6256322626        1.7494870581
	 C           4.5617887502        0.7189388067        0.2853310355
	 C           7.1311888918       -3.6053649499        1.9359709013
	 C           7.2057763819        0.7251408878        0.4695661047
	 C           8.5497325948       -1.4255998793        1.3189998878
	 H          -1.2662418940        7.6859054970       -3.6050349109
	 O          -2.0381326553        3.0337380371       -4.9859730640
	 H          -6.0219493380        1.2701190051        2.5496802476
	 H          -2.8161536881       -4.3634153571       -2.4560417423
	 H         -10.1180686650       -1.0053814808        2.4904694589
	 H          -6.9149167419       -6.6487235215       -2.5103033383
	 H         -10.6028419977       -4.9813369028       -0.0444828651
	 H           3.4821107360       -5.3611321698        2.2368776615
	 H           3.6500431378        2.4363426965       -0.3830046238
	 H           8.0883767483       -5.3211606828        2.5696735500
	 H           8.2269484753        2.4393303535       -0.0603263290
	 N          11.2389432625       -1.4110905621        1.5068386647
	 H          -0.6512758799        4.1334981708        3.5548331326
	 H          -0.5269961515        8.5694582853        1.0449385770
	 H          11.9244603117       -2.6149424800        2.8483514617
	 H          11.9809669023        0.3443421763        1.8012239800
	             0.0022988805       -0.0298853905        0.0191591258
	            -0.0257190806        0.0241389228        0.0023308446
	             0.0319191283       -0.0089264816       -0.0425133044
	            -0.0115135815       -0.0164301476        0.0083818529
	            -0.0031198178        0.0174482818        0.0130979445
	            -0.0270796442        0.0028104911        0.0090011341
	            -0.0085912341       -0.0055922102        0.0039162073
	             0.0263581649        0.0000182653       -0.0400169815
	            -0.0032229341       -0.0128952564       -0.0080462163
	            -0.0017630534        0.0156081878        0.0110916540
	            -0.0043727137       -0.0014329096        0.0066383733
	             0.0027474034       -0.0002824208       -0.0058829832
	            -0.0020924011        0.0057901919        0.0035406896
	             0.0028640956       -0.0029048752       -0.0034891063
	            -0.0079306184       -0.0046210901       -0.0001714044
	             0.0027233281       -0.0079554491        0.0018114810
	             0.0009959552        0.0052140116        0.0002959103
	             0.0028158169       -0.0031606387        0.0011256162
	             0.0009848713        0.0074400100       -0.0005666824
	             0.0013042750       -0.0015908517        0.0012453467
	             0.0004543871        0.0046203118       -0.0066316669
	            -0.0012746702        0.0161229719        0.0235921839
	            -0.0008996633        0.0043035089        0.0050568510
	             0.0048341046       -0.0041791638       -0.0030914711
	            -0.0049994482        0.0028302656        0.0035736002
	             0.0003421330       -0.0057740797       -0.0031670909
	            -0.0058447699       -0.0034091896       -0.0000272066
	            -0.0017539753       -0.0062186239        0.0022066526
	             0.0017602224        0.0061578473       -0.0036532458
	             0.0020314506       -0.0059830257        0.0023902993
	             0.0026852188        0.0060303379       -0.0019784207
	             0.0125707246       -0.0068334583       -0.0196508731
	             0.0005960309       -0.0005137828        0.0027987971
	             0.0047198033        0.0036682594       -0.0012217887
	             0.0022595707       -0.0008302384        0.0108583331
	             0.0026942790        0.0073536803        0.0080611787

	Previous optimization step data not found.  Starting new optimization.

	---Fragment 1 Intrafragment Coordinates---
	 - Coordinate -           - BOHR/RAD -       - ANG/DEG -
	 R(1,2)           =         2.603389	       1.377654
	 R(1,6)           =         2.743816	       1.451965
	 R(1,8)           =         2.844330	       1.505155
	 R(2,3)           =         2.685353	       1.421028
	 R(2,10)          =         2.811409	       1.487733
	 R(3,4)           =         2.723930	       1.441442
	 R(3,5)           =         1.929624	       1.021113
	 R(4,16)          =         2.684722	       1.420693
	 R(4,17)          =         2.680649	       1.418538
	 R(6,9)           =         2.569654	       1.359802
	 R(6,33)          =         2.041611	       1.080374
	 R(7,8)           =         2.622766	       1.387908
	 R(7,9)           =         2.622673	       1.387859
	 R(7,21)          =         1.908574	       1.009974
	 R(8,22)          =         2.324616	       1.230134
	 R(9,34)          =         2.043547	       1.081398
	 R(10,11)         =         2.678959	       1.417644
	 R(10,12)         =         2.677561	       1.416904
	 R(11,13)         =         2.647162	       1.400818
	 R(11,23)         =         2.061855	       1.091087
	 R(12,14)         =         2.645817	       1.400106
	 R(12,24)         =         2.061747	       1.091030
	 R(13,15)         =         2.664359	       1.409918
	 R(13,25)         =         2.061889	       1.091105
	 R(14,15)         =         2.664225	       1.409847
	 R(14,26)         =         2.061654	       1.090980
	 R(15,27)         =         2.062155	       1.091246
	 R(16,18)         =         2.647621	       1.401061
	 R(16,28)         =         2.065380	       1.092952
	 R(17,19)         =         2.650406	       1.402534
	 R(17,29)         =         2.056071	       1.088026
	 R(18,20)         =         2.672881	       1.414428
	 R(18,30)         =         2.064399	       1.092433
	 R(19,20)         =         2.674592	       1.415333
	 R(19,31)         =         2.064467	       1.092469
	 R(20,32)         =         2.695802	       1.426557
	 R(32,35)         =         1.928432	       1.020482
	 R(32,36)         =         1.928421	       1.020476
	 B(1,2,3)         =         2.135927	     122.379583
	 B(1,2,10)        =         2.142176	     122.737658
	 B(1,6,9)         =         1.871087	     107.205415
	 B(1,6,33)        =         2.200544	     126.081875
	 B(1,8,7)         =         1.812208	     103.831880
	 B(1,8,22)        =         2.313355	     132.545483
	 B(2,1,6)         =         2.215602	     126.944653
	 B(2,1,8)         =         2.202126	     126.172536
	 B(2,3,4)         =         2.407268	     137.926270
	 B(2,3,5)         =         1.852839	     106.159839
	 B(2,10,11)       =         2.113029	     121.067649
	 B(2,10,12)       =         2.093936	     119.973684
	 B(3,2,10)        =         2.002724	     114.747614
	 B(3,4,16)        =         2.056154	     117.808968
	 B(3,4,17)        =         2.177428	     124.757435
	 B(4,3,5)         =         1.887121	     108.124052
	 B(4,16,18)       =         2.115956	     121.235322
	 B(4,16,28)       =         2.099549	     120.295300
	 B(4,17,19)       =         2.112823	     121.055846
	 B(4,17,29)       =         2.118174	     121.362405
	 B(6,1,8)         =         1.864988	     106.855966
	 B(6,9,7)         =         1.929578	     110.556678
	 B(6,9,34)        =         2.265266	     129.790166
	 B(7,8,22)        =         2.157538	     123.617836
	 B(7,9,34)        =         2.088333	     119.652658
	 B(8,7,9)         =         1.946828	     111.545054
	 B(8,7,21)        =         2.118758	     121.395899
	 B(9,6,33)        =         2.211500	     126.709589
	 B(9,7,21)        =         2.217598	     127.058985
	 B(10,11,13)      =         2.101791	     120.423768
	 B(10,11,23)      =         2.090807	     119.794441
	 B(10,12,14)      =         2.103547	     120.524337
	 B(10,12,24)      =         2.084524	     119.434402
	 B(11,10,12)      =         2.075090	     118.893917
	 B(11,13,15)      =         2.099443	     120.289232
	 B(11,13,25)      =         2.085387	     119.483861
	 B(12,14,15)      =         2.098609	     120.241422
	 B(12,14,26)      =         2.085632	     119.497932
	 B(13,11,23)      =         2.090582	     119.781502
	 B(13,15,14)      =         2.087767	     119.620247
	 B(13,15,27)      =         2.098169	     120.216230
	 B(14,12,24)      =         2.095113	     120.041128
	 B(14,15,27)      =         2.097246	     120.163372
	 B(15,13,25)      =         2.098347	     120.226451
	 B(15,14,26)      =         2.098943	     120.260551
	 B(16,4,17)       =         2.049536	     117.429750
	 B(16,18,20)      =         2.116907	     121.289861
	 B(16,18,30)      =         2.068897	     118.539065
	 B(17,19,20)      =         2.119367	     121.430788
	 B(17,19,31)      =         2.068655	     118.525207
	 B(18,16,28)      =         2.067675	     118.469027
	 B(18,20,19)      =         2.051510	     117.542887
	 B(18,20,32)      =         2.114986	     121.179779
	 B(19,17,29)      =         2.052182	     117.581343
	 B(19,20,32)      =         2.116551	     121.269418
	 B(20,18,30)      =         2.097379	     120.170984
	 B(20,19,31)      =         2.095163	     120.044005
	 B(20,32,35)      =         1.982009	     113.560775
	 B(20,32,36)      =         1.981635	     113.539331
	 B(35,32,36)      =         1.902112	     108.983016
	*D(1,2,3,4)       =        -0.213161	     -12.213245
	 D(1,2,3,5)       =         2.292158	     131.330981
	*D(1,2,10,11)     =        -0.895883	     -51.330297
	*D(1,2,10,12)     =         2.297350	     131.628444
	 D(1,6,9,7)       =         0.001350	       0.077330
	 D(1,6,9,34)      =        -3.135661	    -179.660121
	 D(1,8,7,9)       =        -0.011673	      -0.668795
	 D(1,8,7,21)      =         3.131396	     179.415768
	 D(2,1,6,9)       =        -3.118530	    -178.678612
	 D(2,1,6,33)      =         0.033700	       1.930879
	 D(2,1,8,7)       =         3.122526	     178.907552
	 D(2,1,8,22)      =        -0.005100	      -0.292209
	*D(2,3,4,16)      =        -3.109331	    -178.151532
	 D(2,3,4,17)      =         0.019456	       1.114734
	 D(2,10,11,13)    =        -3.107187	    -178.028725
	 D(2,10,11,23)    =         0.030987	       1.775424
	 D(2,10,12,14)    =         3.107475	     178.045193
	 D(2,10,12,24)    =        -0.036433	      -2.087470
	 D(3,2,1,6)       =        -1.232714	     -70.629325
	 D(3,2,1,8)       =         1.946162	     111.506894
	*D(3,2,10,11)     =         2.173505	     124.532645
	 D(3,2,10,12)     =        -0.916448	     -52.508614
	 D(3,4,16,18)     =        -3.134824	    -179.612183
	 D(3,4,16,28)     =         0.010592	       0.606873
	 D(3,4,17,19)     =         3.138776	     179.838590
	 D(3,4,17,29)     =        -0.006962	      -0.398899
	*D(4,3,2,10)      =         3.000349	     171.907309
	 D(4,16,18,20)    =        -0.002874	      -0.164671
	 D(4,16,18,30)    =         3.140620	     179.944275
	 D(4,17,19,20)    =        -0.003255	      -0.186484
	 D(4,17,19,31)    =         3.138134	     179.801855
	 D(5,3,2,10)      =        -0.777517	     -44.548466
	 D(5,3,4,16)      =         0.676412	      38.755563
	 D(5,3,4,17)      =        -2.477987	    -141.978172
	 D(6,1,2,10)      =         1.831221	     104.921248
	 D(6,1,8,7)       =         0.012067	       0.691373
	 D(6,1,8,22)      =        -3.115559	    -178.508389
	 D(6,9,7,8)       =         0.007024	       0.402419
	 D(6,9,7,21)      =        -3.136148	    -179.688034
	 D(7,9,6,33)      =         3.132218	     179.462897
	 D(8,1,2,10)      =        -1.273087	     -72.942532
	 D(8,1,6,9)       =        -0.008384	      -0.480354
	 D(8,1,6,33)      =        -3.139339	    -179.870864
	 D(8,7,9,34)      =        -3.138621	    -179.829723
	 D(9,7,8,22)      =         3.117564	     178.623231
	 D(10,11,13,15)   =         0.007270	       0.416519
	 D(10,11,13,25)   =        -3.138600	    -179.828552
	 D(10,12,14,15)   =        -0.006679	      -0.382664
	 D(10,12,14,26)   =         3.136868	     179.729274
	 D(11,10,12,14)   =         0.016403	       0.939814
	 D(11,10,12,24)   =        -3.127505	    -179.192848
	 D(11,13,15,14)   =         0.002706	       0.155015
	 D(11,13,15,27)   =        -3.141349	    -179.986014
	 D(12,10,11,13)   =        -0.016688	      -0.956143
	 D(12,10,11,23)   =         3.121487	     178.848006
	 D(12,14,15,13)   =        -0.003006	      -0.172233
	 D(12,14,15,27)   =         3.141047	     179.968720
	 D(13,15,14,26)   =         3.136618	     179.714969
	 D(14,15,13,25)   =        -3.134578	    -179.598084
	 D(15,13,11,23)   =        -3.130905	    -179.387656
	 D(15,14,12,24)   =         3.137243	     179.750804
	 D(16,4,17,19)    =        -0.015579	      -0.892608
	 D(16,4,17,29)    =         3.121869	     178.869904
	 D(16,18,20,19)   =        -0.015970	      -0.915039
	 D(16,18,20,32)   =        -3.139918	    -179.904049
	 D(17,4,16,18)    =         0.018622	       1.066986
	 D(17,4,16,28)    =        -3.119147	    -178.713958
	 D(17,19,20,18)   =         0.019023	       1.089916
	 D(17,19,20,32)   =        -3.140232	    -179.922034
	 D(18,20,19,31)   =        -3.122363	    -178.898248
	*D(18,20,32,35)   =        -0.500709	     -28.688498
	 D(18,20,32,36)   =        -2.686615	    -153.931694
	 D(19,20,18,30)   =         3.123690	     178.974254
	 D(19,20,32,35)   =         2.659188	     152.360263
	 D(19,20,32,36)   =         0.473282	      27.117067
	 D(20,18,16,28)   =         3.134963	     179.620170
	 D(20,19,17,29)   =        -3.140854	    -179.957694
	 D(21,7,8,22)     =        -0.022553	      -1.292205
	 D(21,7,9,34)     =         0.001393	       0.079824
	 D(23,11,13,25)   =         0.006410	       0.367273
	 D(24,12,14,26)   =        -0.002396	      -0.137258
	 D(25,13,15,27)   =         0.004553	       0.260887
	 D(26,14,15,27)   =        -0.002515	      -0.144078
	 D(28,16,18,30)   =        -0.004728	      -0.270884
	 D(29,17,19,31)   =         0.000535	       0.030646
	 D(30,18,20,32)   =        -0.000258	      -0.014755
	 D(31,19,20,32)   =         0.001567	       0.089802
	 D(33,6,9,34)     =        -0.004792	      -0.274555
	 R(1,17)          =         6.229935	       3.296740
	 R(4,6)           =         7.171794	       3.795150
	 R(6,17)          =         6.736024	       3.564550

	Current energy   :      -895.8992400676

	Generating empirical Hessian (Schlegel '84) for each fragment.
	Taking RFO optimization step.
	Going to follow RFO solution 1.
	Using RFO vector 1.

	Determining step-restricting scale parameter for RS-RFO.
	Maximum step size allowed    0.50000

	 Iter      |step|        alpha        rfo_root  
	------------------------------------------------
	    0     0.67200       1.00000           1
	    1     0.54719       1.55102           1
	    2     0.50553       1.83554           1
	    3     0.50009       1.87829           1
	    4     0.50000       1.87904           1
	------------------------------------------------
	Norm of target step-size    0.50000
	Projected energy change by RFO approximation:        -0.0214998983

	Back-transformation to cartesian coordinates...
	Could not converge backtransformation.
	Using first guess instead.

	Back-transformation to cartesian coordinates to adjust frozen coordinates...

	--- Internal Coordinate Step in ANG or DEG, aJ/ANG or AJ/DEG ---
	 ---------------------------------------------------------------------------
	   Coordinate                Previous        Force       Change         New 
	   ----------                --------       ------       ------       ------
	    1 R(1,2)          =      1.377654     0.232080     0.029546     1.407200
	    2 R(1,6)          =      1.451965     0.043516     0.016208     1.468173
	    3 R(1,8)          =      1.505155    -0.169240    -0.013355     1.491800
	    4 R(2,3)          =      1.421028    -0.196284    -0.023577     1.397450
	    5 R(2,10)         =      1.487733    -0.098816    -0.013667     1.474066
	    6 R(3,4)          =      1.441442    -0.062970    -0.009563     1.431879
	    7 R(3,5)          =      1.021113    -0.015792     0.006989     1.028102
	    8 R(4,16)         =      1.420693    -0.160719    -0.019693     1.401001
	    9 R(4,17)         =      1.418538    -0.147778    -0.019982     1.398556
	   10 R(6,9)          =      1.359802    -0.017964     0.002551     1.362353
	   11 R(6,33)         =      1.080374    -0.023843     0.005325     1.085699
	   12 R(7,8)          =      1.387908     0.084680     0.012445     1.400353
	   13 R(7,9)          =      1.387859     0.021284     0.013722     1.401581
	   14 R(7,21)         =      1.009974    -0.065481    -0.002307     1.007667
	   15 R(8,22)         =      1.230134     0.221932     0.023133     1.253267
	   16 R(9,34)         =      1.081398    -0.030151    -0.003933     1.077465
	   17 R(10,11)        =      1.417644    -0.142805    -0.017933     1.399711
	   18 R(10,12)        =      1.416904    -0.104156    -0.012648     1.404257
	   19 R(11,13)        =      1.400818    -0.079355    -0.008679     1.392139
	   20 R(11,23)        =      1.091087    -0.051423    -0.007536     1.083551
	   21 R(12,14)        =      1.400106    -0.080032    -0.008812     1.391294
	   22 R(12,24)        =      1.091030    -0.056524    -0.007844     1.083186
	   23 R(13,15)        =      1.409918    -0.114591    -0.013873     1.396045
	   24 R(13,25)        =      1.091105    -0.055516    -0.008002     1.083103
	   25 R(14,15)        =      1.409847    -0.114658    -0.013810     1.396037
	   26 R(14,26)        =      1.090980    -0.053751    -0.007980     1.083000
	   27 R(15,27)        =      1.091246    -0.055717    -0.007935     1.083310
	   28 R(16,18)        =      1.401061    -0.117270    -0.013105     1.387956
	   29 R(16,28)        =      1.092952    -0.054342    -0.006784     1.086168
	   30 R(17,19)        =      1.402534    -0.108904    -0.012296     1.390238
	   31 R(17,29)        =      1.088026    -0.045724    -0.006627     1.081399
	   32 R(18,20)        =      1.414428    -0.116300    -0.013444     1.400984
	   33 R(18,30)        =      1.092433    -0.054779    -0.007610     1.084823
	   34 R(19,20)        =      1.415333    -0.129605    -0.014622     1.400711
	   35 R(19,31)        =      1.092469    -0.056433    -0.007565     1.084904
	   36 R(20,32)        =      1.426557    -0.143771    -0.017764     1.408793
	   37 R(32,35)        =      1.020482    -0.073086    -0.008527     1.011956
	   38 R(32,36)        =      1.020476    -0.073919    -0.006616     1.013860
	   39 B(1,2,3)        =    122.379583     0.000843     2.253497   124.633080
	   40 B(1,2,10)       =    122.737658     0.000832     2.242606   124.980264
	   41 B(1,6,9)        =    107.205415     0.000394     0.481263   107.686677
	   42 B(1,6,33)       =    126.081875    -0.000191    -0.187211   125.894664
	   43 B(1,8,7)        =    103.831880     0.000054    -0.230572   103.601308
	   44 B(1,8,22)       =    132.545483    -0.000624    -1.132327   131.413156
	   45 B(2,1,6)        =    126.944653     0.000662     2.129382   129.074035
	   46 B(2,1,8)        =    126.172536    -0.000737    -2.485353   123.687183
	   47 B(2,3,4)        =    137.926270    -0.000804    -1.636843   136.289427
	   48 B(2,3,5)        =    106.159839     0.000860     3.377579   109.537417
	   49 B(2,10,11)      =    121.067649    -0.000667    -1.587702   119.479947
	   50 B(2,10,12)      =    119.973684     0.000459     1.099759   121.073443
	   51 B(3,2,10)       =    114.747614    -0.001677    -4.500588   110.247027
	   52 B(3,4,16)       =    117.808968    -0.001191    -2.352573   115.456395
	   53 B(3,4,17)       =    124.757435     0.000968     1.602278   126.359713
	   54 B(4,3,5)        =    108.124052     0.000113     0.634043   108.758095
	   55 B(4,16,18)      =    121.235322     0.000010    -0.137055   121.098267
	   56 B(4,16,28)      =    120.295300    -0.000141    -0.358724   119.936576
	   57 B(4,17,19)      =    121.055846    -0.000081    -0.327133   120.728712
	   58 B(4,17,29)      =    121.362405    -0.000320    -1.030237   120.332168
	   59 B(6,1,8)        =    106.855966     0.000073     0.282482   107.138449
	   60 B(6,9,7)        =    110.556678    -0.000650    -1.235718   109.320960
	   61 B(6,9,34)       =    129.790166     0.000163     0.004431   129.794598
	   62 B(7,8,22)       =    123.617836     0.000574     1.314776   124.932612
	   63 B(7,9,34)       =    119.652658     0.000487     1.231755   120.884413
	   64 B(8,7,9)        =    111.545054     0.000127     0.626148   112.171202
	   65 B(8,7,21)       =    121.395899     0.000030    -0.440028   120.955870
	   66 B(9,6,33)       =    126.709589    -0.000202    -0.293381   126.416207
	   67 B(9,7,21)       =    127.058985    -0.000157    -0.213740   126.845245
	   68 B(10,11,13)     =    120.423768    -0.000119    -0.307231   120.116537
	   69 B(10,11,23)     =    119.794441    -0.000097    -0.391015   119.403427
	   70 B(10,12,14)     =    120.524337    -0.000085    -0.179464   120.344873
	   71 B(10,12,24)     =    119.434402    -0.000073    -0.310236   119.124166
	   72 B(11,10,12)     =    118.893917     0.000208     0.487329   119.381246
	   73 B(11,13,15)     =    120.289232    -0.000008    -0.022523   120.266708
	   74 B(11,13,25)     =    119.483861     0.000037     0.133816   119.617677
	   75 B(12,14,15)     =    120.241422    -0.000118    -0.273342   119.968080
	   76 B(12,14,26)     =    119.497932     0.000120     0.349714   119.847645
	   77 B(13,11,23)     =    119.781502     0.000216     0.698489   120.479992
	   78 B(13,15,14)     =    119.620247     0.000121     0.296701   119.916948
	   79 B(13,15,27)     =    120.216230    -0.000068    -0.170958   120.045272
	   80 B(14,12,24)     =    120.041128     0.000157     0.487160   120.528288
	   81 B(14,15,27)     =    120.163372    -0.000053    -0.125626   120.037746
	   82 B(15,13,25)     =    120.226451    -0.000030    -0.110841   120.115610
	   83 B(15,14,26)     =    120.260551    -0.000002    -0.076291   120.184260
	   84 B(16,4,17)      =    117.429750     0.000223     0.739818   118.169568
	   85 B(16,18,20)     =    121.289861    -0.000185    -0.476877   120.812985
	   86 B(16,18,30)     =    118.539065     0.000183     0.535883   119.074948
	   87 B(17,19,20)     =    121.430788    -0.000127    -0.291637   121.139151
	   88 B(17,19,31)     =    118.525207     0.000127     0.343628   118.868835
	   89 B(18,16,28)     =    118.469027     0.000130     0.493836   118.962863
	   90 B(18,20,19)     =    117.542887     0.000160     0.487233   118.030120
	   91 B(18,20,32)     =    121.179779    -0.000096    -0.308974   120.870804
	   92 B(19,17,29)     =    117.581343     0.000401     1.357464   118.938807
	   93 B(19,20,32)     =    121.269418    -0.000066    -0.210502   121.058916
	   94 B(20,18,30)     =    120.170984     0.000001    -0.060577   120.110407
	   95 B(20,19,31)     =    120.044005    -0.000000    -0.052050   119.991954
	   96 B(20,32,35)     =    113.560775     0.000179     1.157404   114.718179
	   97 B(20,32,36)     =    113.539331     0.000140     0.938477   114.477809
	   98 B(35,32,36)     =    108.983016     0.000154     1.261420   110.244436
	   99 *D(1,2,3,4)     =    -12.213245    -0.000000     0.000229   -12.213015
	  100 D(1,2,3,5)      =    131.330981     0.000143     6.337584   137.668564
	  101 *D(1,2,10,11)   =    -51.330297     0.000000     0.000233   -51.330065
	  102 *D(1,2,10,12)   =    131.628444     0.000000    -0.000004   131.628440
	  103 D(1,6,9,7)      =      0.077330    -0.000038    -1.138846    -1.061516
	  104 D(1,6,9,34)     =   -179.660121    -0.000043    -1.463831  -181.123952
	  105 D(1,8,7,9)      =     -0.668795    -0.000046    -2.271163    -2.939958
	  106 D(1,8,7,21)     =    179.415768    -0.000007    -0.567931   178.847837
	  107 D(2,1,6,9)      =   -178.678612     0.000028     1.536065  -177.142547
	  108 D(2,1,6,33)     =      1.930879    -0.000003     0.385403     2.316282
	  109 D(2,1,8,7)      =    178.907552     0.000009    -0.071896   178.835657
	  110 D(2,1,8,22)     =     -0.292209    -0.000071    -3.483609    -3.775818
	  111 *D(2,3,4,16)    =   -178.151532    -0.000000    -0.000002  -178.151534
	  112 D(2,3,4,17)     =      1.114734    -0.000003    -0.676912     0.437821
	  113 D(2,10,11,13)   =   -178.028725     0.000006     0.296938  -177.731788
	  114 D(2,10,11,23)   =      1.775424     0.000010     0.416157     2.191581
	  115 D(2,10,12,14)   =    178.045193    -0.000006    -0.078384   177.966809
	  116 D(2,10,12,24)   =     -2.087470    -0.000018    -0.537390    -2.624860
	  117 D(3,2,1,6)      =    -70.629325     0.000291     7.766086   -62.863239
	  118 D(3,2,1,8)      =    111.506894     0.000310     9.754307   121.261202
	  119 *D(3,2,10,11)   =    124.532645     0.000000    -0.000230   124.532415
	  120 D(3,2,10,12)    =    -52.508614    -0.000000    -0.000466   -52.509080
	  121 D(3,4,16,18)    =   -179.612183    -0.000007    -0.588324  -180.200507
	  122 D(3,4,16,28)    =      0.606873     0.000003    -0.250536     0.356337
	  123 D(3,4,17,19)    =    179.838590     0.000016     0.875883   180.714473
	  124 D(3,4,17,29)    =     -0.398899     0.000015     0.907623     0.508725
	  125 *D(4,3,2,10)    =    171.907309    -0.000000    -0.000227   171.907082
	  126 D(4,16,18,20)   =     -0.164671     0.000004     0.017325    -0.147346
	  127 D(4,16,18,30)   =    179.944275     0.000012     0.376578   180.320853
	  128 D(4,17,19,20)   =     -0.186484    -0.000014    -0.385575    -0.572059
	  129 D(4,17,19,31)   =    179.801855    -0.000010    -0.285292   179.516564
	  130 D(5,3,2,10)     =    -44.548466     0.000143     6.337127   -38.211339
	  131 D(5,3,4,16)     =     38.755563    -0.000182    -6.945158    31.810405
	  132 D(5,3,4,17)     =   -141.978172    -0.000185    -7.622068  -149.600240
	  133 D(6,1,2,10)     =    104.921248     0.000268     7.496461   112.417709
	  134 D(6,1,8,7)      =      0.691373     0.000021     1.494022     2.185395
	  135 D(6,1,8,22)     =   -178.508389    -0.000058    -1.917692  -180.426080
	  136 D(6,9,7,8)      =      0.402419     0.000054     2.246471     2.648890
	  137 D(6,9,7,21)     =   -179.688034     0.000012     0.421061  -179.266973
	  138 D(7,9,6,33)     =    179.462897    -0.000006     0.020370   179.483266
	  139 D(8,1,2,10)     =    -72.942532     0.000286     9.484683   -63.457850
	  140 D(8,1,6,9)      =     -0.480354     0.000008    -0.252770    -0.733125
	  141 D(8,1,6,33)     =   -179.870864    -0.000023    -1.403432  -181.274296
	  142 D(8,7,9,34)     =   -179.829723     0.000058     2.534511  -177.295212
	  143 D(9,7,8,22)     =    178.623231     0.000022     0.825597   179.448828
	  144 D(10,11,13,15)  =      0.416519    -0.000010    -0.353504     0.063015
	  145 D(10,11,13,25)  =   -179.828552    -0.000003    -0.085676  -179.914228
	  146 D(10,12,14,15)  =     -0.382664    -0.000007    -0.241954    -0.624618
	  147 D(10,12,14,26)  =    179.729274    -0.000010    -0.396842   179.332433
	  148 D(11,10,12,14)  =      0.939814     0.000000    -0.017377     0.922438
	  149 D(11,10,12,24)  =   -179.192848    -0.000012    -0.476383  -179.669231
	  150 D(11,13,15,14)  =      0.155015     0.000003     0.086085     0.241100
	  151 D(11,13,15,27)  =   -179.986014     0.000008     0.293860  -179.692154
	  152 D(12,10,11,13)  =     -0.956143     0.000008     0.316374    -0.639769
	  153 D(12,10,11,23)  =    178.848006     0.000012     0.435593   179.283600
	  154 D(12,14,15,13)  =     -0.172233     0.000005     0.212386     0.040153
	  155 D(12,14,15,27)  =    179.968720     0.000000     0.004692   179.973412
	  156 D(13,15,14,26)  =    179.714969     0.000009     0.368279   180.083249
	  157 D(14,15,13,25)  =   -179.598084    -0.000004    -0.183687  -179.781771
	  158 D(15,13,11,23)  =   -179.387656    -0.000014    -0.471864  -179.859520
	  159 D(15,14,12,24)  =    179.750804     0.000005     0.224620   179.975424
	  160 D(16,4,17,19)   =     -0.892608     0.000010     0.162252    -0.730357
	  161 D(16,4,17,29)   =    178.869904     0.000010     0.193992   179.063895
	  162 D(16,18,20,19)  =     -0.915039    -0.000007    -0.225518    -1.140557
	  163 D(16,18,20,32)  =   -179.904049     0.000030     1.044468  -178.859581
	  164 D(17,4,16,18)   =      1.066986    -0.000006     0.021128     1.088114
	  165 D(17,4,16,28)   =   -178.713958     0.000004     0.358916  -178.355042
	  166 D(17,19,20,18)  =      1.089916     0.000012     0.409630     1.499546
	  167 D(17,19,20,32)  =   -179.922034    -0.000025    -0.863897  -180.785931
	  168 D(18,20,19,31)  =   -178.898248     0.000008     0.308187  -178.590062
	  169 *D(18,20,32,35) =    -28.688498    -0.000000    -0.000003   -28.688501
	  170 D(18,20,32,36)  =   -153.931694    -0.000110    -3.668147  -157.599841
	  171 D(19,20,18,30)  =    178.974254    -0.000015    -0.587841   178.386413
	  172 D(19,20,32,35)  =    152.360263     0.000037     1.301651   153.661914
	  173 D(19,20,32,36)  =     27.117067    -0.000073    -2.366493    24.750574
	  174 D(20,18,16,28)  =    179.620170    -0.000005    -0.319042   179.301128
	  175 D(20,19,17,29)  =   -179.957694    -0.000013    -0.411444  -180.369138
	  176 D(21,7,8,22)    =     -1.292205     0.000061     2.528828     1.236623
	  177 D(21,7,9,34)    =      0.079824     0.000017     0.709101     0.788925
	  178 D(23,11,13,25)  =      0.367273    -0.000006    -0.204036     0.163237
	  179 D(24,12,14,26)  =     -0.137258     0.000002     0.069731    -0.067526
	  180 D(25,13,15,27)  =      0.260887     0.000000     0.024088     0.284975
	  181 D(26,14,15,27)  =     -0.144078     0.000004     0.160585     0.016508
	  182 D(28,16,18,30)  =     -0.270884     0.000003     0.040211    -0.230673
	  183 D(29,17,19,31)  =      0.030646    -0.000009    -0.311161    -0.280515
	  184 D(30,18,20,32)  =     -0.014755     0.000022     0.682145     0.667390
	  185 D(31,19,20,32)  =      0.089802    -0.000029    -0.965340    -0.875539
	  186 D(33,6,9,34)    =     -0.274555    -0.000011    -0.304615    -0.579170
	  187 R(1,17)         =      3.296740    -0.036138     0.009023     3.305763
	  188 R(4,6)          =      3.795150    -0.017393    -0.034097     3.761053
	  189 R(6,17)         =      3.564550    -0.066658    -0.068862     3.495688
	 ---------------------------------------------------------------------------
	Successfully symmetrized geometry.

  ==> Convergence Check <==

  Measures of convergence in internal coordinates in au.
  Criteria marked as inactive (o), active & met (*), and active & unmet ( ).
  --------------------------------------------------------------------------------------------- ~
   Step     Total Energy     Delta E     MAX Force     RMS Force      MAX Disp      RMS Disp    ~
  --------------------------------------------------------------------------------------------- ~
    Convergence Criteria             o    2.50e-03 *    1.70e-03 *    1.00e-02 *    6.70e-03 *  ~
  --------------------------------------------------------------------------------------------- ~
      1    -895.89924007   -8.96e+02 o    2.82e-02      7.33e-03      1.70e-01      3.60e-02    ~
  ---------------------------------------------------------------------------------------------

	Writing optimization data to binary file.
	Structure for next step:
	Cartesian Geometry (in Angstrom)
	    C    -0.7363637778   1.3950103712  -0.2026878610
	    C    -0.8477851737   0.0131528995   0.0386996975
	    N     0.2085078127  -0.8115817384   0.4348382358
	    C     1.6338565558  -0.7011738086   0.5152616708
	    H    -0.1149562498  -1.4567455339   1.1670462081
	    C    -0.3754326423   2.4710042821   0.7287081616
	    N    -0.8370260923   3.3976010936  -1.2743651250
	    C    -1.0694078040   2.0365171005  -1.5076851174
	    C    -0.4626169504   3.6504209323   0.0524085487
	    C    -2.1076771625  -0.7513930611   0.0068655147
	    C    -3.2060838452  -0.3002629675   0.7479297321
	    C    -2.2056578243  -1.9576895358  -0.7053036804
	    C    -4.3871877086  -1.0369780227   0.7651330312
	    C    -3.3894959434  -2.6884490913  -0.6905983849
	    C    -4.4832576061  -2.2294063560   0.0455304836
	    C     2.3030106847  -1.8506859865   0.9553275911
	    C     2.3993191459   0.4184640578   0.1740317031
	    C     3.6857818293  -1.8745068214   1.0727956081
	    C     3.7848959244   0.3922616049   0.2847205075
	    C     4.4528930160  -0.7473316218   0.7506578549
	    H    -0.9676657478   4.0785266426  -2.0055737981
	    O    -1.4248878011   1.5470191870  -2.6052751292
	    H    -3.1269665987   0.6245398629   1.3070023247
	    H    -1.3513012659  -2.3056181674  -1.2730286264
	    H    -5.2326132248  -0.6796571871   1.3401883787
	    H    -3.4596955390  -3.6122223952  -1.2514937455
	    H    -5.4057206043  -2.7972807414   0.0574270012
	    H     1.7386823161  -2.7452958093   1.2022446235
	    H     1.9199470754   1.3191888987  -0.1841866087
	    H     4.1704682778  -2.7839059441   1.4117838853
	    H     4.3495576942   1.2751649354   0.0042631989
	    N     5.8580822964  -0.7777617613   0.8466560395
	    H    -0.0988873188   2.3446016899   1.7709589494
	    H    -0.2918447585   4.6570280352   0.3966608959
	    H     6.2209251828  -1.4161002125   1.5430202744
	    H     6.2922090883   0.1330933491   0.9455954637
			--------------------------
			 OPTKING Finished Execution 
			--------------------------

    Structure for next step:
    Molecular point group: c1
    Full point group: C1

    Geometry (in Angstrom), charge = 0, multiplicity = 1:

    C           -0.718259682792     1.389445882331    -0.207351721370
    C           -0.829681079200     0.007588405149     0.034035838043
    N            0.226611911415    -0.817146235972     0.430174377928
    C            1.651960660087    -0.706738305804     0.510597813214
    H           -0.096852152359    -1.462310034078     1.162382353051
    C           -0.357328545903     2.465439797372     0.724044304856
    N           -0.818921997714     3.392036612581    -1.279028989614
    C           -1.051303710285     2.030952614110    -1.512348982962
    C           -0.444512854356     3.644856452246     0.047744689294
    C           -2.089573072901    -0.756957558497     0.002201655145
    C           -3.187979759965    -0.305827463055     0.743265875422
    C           -2.187553735134    -1.963254037903    -0.709967542785
    C           -4.369083627980    -1.042542521181     0.760469174617
    C           -3.371391858822    -2.694013596294    -0.695262247169
    C           -4.465153525824    -2.234970859213     0.040866624219
    C            2.321114791676    -1.856250488173     0.950663735234
    C            2.417423253241     0.412899565049     0.169367844207
    C            3.703885941639    -1.880071323171     1.068131752758
    C            3.803000037150     0.386697112046     0.280056649075
    C            4.470997131359    -0.752896119108     0.745993998228
    H           -0.949561653766     4.072962164261    -2.010237665583
    O           -1.406783708809     1.541454698663    -2.609938999002
    H           -3.108862513084     0.618975370984     1.302338470245
    H           -1.333197173286    -2.311182670878    -1.277692490974
    H           -5.214509147480    -0.685221684157     1.335524524391
    H           -3.441591454723    -3.617786903840    -1.256157609980
    H           -5.387616527633    -2.802845246786     0.052763141833
    H            1.756786420858    -2.750860314466     1.197580768646
    H            1.938051180790     1.313624409532    -0.188850469034
    H            4.188572392101    -2.789470449420     1.407120031293
    H            4.367661809138     1.269600446038    -0.000400660628
    N            5.876186417332    -0.783326258807     0.841992183217
    H           -0.080783221326     2.339037204743     1.766295096768
    H           -0.273740661718     4.651463559138     0.391997037834
    H            6.239029305137    -1.421664712480     1.538356420828
    H            6.310313210953     0.127528855200     0.940931607869

gradient() will perform analytic gradient computation.

*** tstart() called on node44.bme.utexas.edu
*** at Fri Nov  5 12:09:32 2021

   => Loading Basis Set <=

    Name: 6-311G
    Role: ORBITAL
    Keyword: BASIS
    atoms 1-2, 4, 6, 8-20     entry C          line    92 file /home/bdw2292/miniconda3/envs/amoebamdpoltype/share/psi4/basis/6-311g.gbs 
    atoms 3, 7, 32            entry N          line   109 file /home/bdw2292/miniconda3/envs/amoebamdpoltype/share/psi4/basis/6-311g.gbs 
    atoms 5, 21, 23-31, 33-36 entry H          line    21 file /home/bdw2292/miniconda3/envs/amoebamdpoltype/share/psi4/basis/6-311g.gbs 
    atoms 22                  entry O          line   126 file /home/bdw2292/miniconda3/envs/amoebamdpoltype/share/psi4/basis/6-311g.gbs 


         ---------------------------------------------------------
                                   SCF
               by Justin Turney, Rob Parrish, Andy Simmonett
                          and Daniel G. A. Smith
                              RKS Reference
                        1 Threads,   7947 MiB Core
         ---------------------------------------------------------

  ==> Geometry <==

    Molecular point group: c1
    Full point group: C1

    Geometry (in Angstrom), charge = 0, multiplicity = 1:

       Center              X                  Y                   Z               Mass       
    ------------   -----------------  -----------------  -----------------  -----------------
         C           -0.718259682792     1.389445882331    -0.207351721370    12.000000000000
         C           -0.829681079200     0.007588405149     0.034035838043    12.000000000000
         N            0.226611911415    -0.817146235972     0.430174377928    14.003074004430
         C            1.651960660087    -0.706738305804     0.510597813214    12.000000000000
         H           -0.096852152359    -1.462310034078     1.162382353051     1.007825032230
         C           -0.357328545903     2.465439797372     0.724044304856    12.000000000000
         N           -0.818921997714     3.392036612581    -1.279028989614    14.003074004430
         C           -1.051303710285     2.030952614110    -1.512348982962    12.000000000000
         C           -0.444512854356     3.644856452246     0.047744689294    12.000000000000
         C           -2.089573072901    -0.756957558497     0.002201655145    12.000000000000
         C           -3.187979759965    -0.305827463055     0.743265875422    12.000000000000
         C           -2.187553735134    -1.963254037903    -0.709967542785    12.000000000000
         C           -4.369083627980    -1.042542521181     0.760469174617    12.000000000000
         C           -3.371391858822    -2.694013596294    -0.695262247169    12.000000000000
         C           -4.465153525824    -2.234970859213     0.040866624219    12.000000000000
         C            2.321114791676    -1.856250488173     0.950663735234    12.000000000000
         C            2.417423253241     0.412899565049     0.169367844207    12.000000000000
         C            3.703885941639    -1.880071323171     1.068131752758    12.000000000000
         C            3.803000037150     0.386697112046     0.280056649075    12.000000000000
         C            4.470997131359    -0.752896119108     0.745993998228    12.000000000000
         H           -0.949561653766     4.072962164261    -2.010237665583     1.007825032230
         O           -1.406783708809     1.541454698663    -2.609938999002    15.994914619570
         H           -3.108862513084     0.618975370984     1.302338470245     1.007825032230
         H           -1.333197173286    -2.311182670878    -1.277692490974     1.007825032230
         H           -5.214509147480    -0.685221684157     1.335524524391     1.007825032230
         H           -3.441591454723    -3.617786903840    -1.256157609980     1.007825032230
         H           -5.387616527633    -2.802845246786     0.052763141833     1.007825032230
         H            1.756786420858    -2.750860314466     1.197580768646     1.007825032230
         H            1.938051180790     1.313624409532    -0.188850469034     1.007825032230
         H            4.188572392101    -2.789470449420     1.407120031293     1.007825032230
         H            4.367661809138     1.269600446038    -0.000400660628     1.007825032230
         N            5.876186417332    -0.783326258807     0.841992183217    14.003074004430
         H           -0.080783221326     2.339037204743     1.766295096768     1.007825032230
         H           -0.273740661718     4.651463559138     0.391997037834     1.007825032230
         H            6.239029305137    -1.421664712480     1.538356420828     1.007825032230
         H            6.310313210953     0.127528855200     0.940931607869     1.007825032230

  Running in c1 symmetry.

  Rotational constants: A =      0.01465  B =      0.00659  C =      0.00501 [cm^-1]
  Rotational constants: A =    439.10587  B =    197.57314  C =    150.22620 [MHz]
  Nuclear repulsion = 1513.984204692003459

  Charge       = 0
  Multiplicity = 1
  Electrons    = 146
  Nalpha       = 73
  Nbeta        = 73

  ==> Algorithm <==

  SCF Algorithm Type is DF.
  DIIS enabled.
  MOM disabled.
  Fractional occupation disabled.
  Guess Type is READ.
  Energy threshold   = 1.00e-08
  Density threshold  = 1.00e-08
  Integral threshold = 0.00e+00

  ==> Primary Basis <==

  Basis Set: 6-311G
    Blend: 6-311G
    Number of shells: 192
    Number of basis function: 318
    Number of Cartesian functions: 318
    Spherical Harmonics?: true
    Max angular momentum: 1

  ==> DFT Potential <==

   => Composite Functional: WB97X-D <= 

    wB97X-D Hyb-GGA Exchange-Correlation Functional

    J.-D. Chai and M. Head-Gordon, Phys. Chem. Chem. Phys. 10, 6615 (2008)

    Deriv               =              1
    GGA                 =           TRUE
    Meta                =          FALSE

    Exchange Hybrid     =           TRUE
    MP2 Hybrid          =          FALSE

   => Exchange-Correlation Functionals <=

    1.0000   wB97D range-separated functional

   => Exact (HF) Exchange <=

    0.7780            HF,LR [omega = 0.2000]
    0.2220               HF 

   => Molecular Quadrature <=

    Radial Scheme          =       TREUTLER
    Pruning Scheme         =           FLAT
    Nuclear Scheme         =       TREUTLER

    BS radius alpha        =              1
    Pruning alpha          =              1
    Radial Points          =             75
    Spherical Points       =            302
    Total Points           =         806544
    Total Blocks           =           5783
    Max Points             =            256
    Max Functions          =            215

   => WB97X-D: Empirical Dispersion <=

    Chai and Head-Gordon Dispersion Correction
    Chai, J.-D.; Head-Gordon, M. (2010), J. Chem. Phys., 132: 6615-6620

        s6 =       1.000000

   => Loading Basis Set <=

    Name: (6-311G AUX)
    Role: JKFIT
    Keyword: DF_BASIS_SCF
    atoms 1-2, 4, 6, 8-20     entry C          line   125 file /home/bdw2292/miniconda3/envs/amoebamdpoltype/share/psi4/basis/cc-pvtz-jkfit.gbs 
    atoms 3, 7, 32            entry N          line   177 file /home/bdw2292/miniconda3/envs/amoebamdpoltype/share/psi4/basis/cc-pvtz-jkfit.gbs 
    atoms 5, 21, 23-31, 33-36 entry H          line    51 file /home/bdw2292/miniconda3/envs/amoebamdpoltype/share/psi4/basis/cc-pvtz-jkfit.gbs 
    atoms 22                  entry O          line   229 file /home/bdw2292/miniconda3/envs/amoebamdpoltype/share/psi4/basis/cc-pvtz-jkfit.gbs 

   => Loading Basis Set <=

    Name: 6-311G
    Role: ORBITAL
    Keyword: BASIS
    atoms 1-2, 4, 6, 8-20     entry C          line    92 file /home/bdw2292/miniconda3/envs/amoebamdpoltype/share/psi4/basis/6-311g.gbs 
    atoms 3, 7, 32            entry N          line   109 file /home/bdw2292/miniconda3/envs/amoebamdpoltype/share/psi4/basis/6-311g.gbs 
    atoms 5, 21, 23-31, 33-36 entry H          line    21 file /home/bdw2292/miniconda3/envs/amoebamdpoltype/share/psi4/basis/6-311g.gbs 
    atoms 22                  entry O          line   126 file /home/bdw2292/miniconda3/envs/amoebamdpoltype/share/psi4/basis/6-311g.gbs 

  Reading orbitals from file 180, no projection.

  ==> Pre-Iterations <==

   -------------------------------------------------------
    Irrep   Nso     Nmo     Nalpha   Nbeta   Ndocc  Nsocc
   -------------------------------------------------------
     A        318     318       0       0       0       0
   -------------------------------------------------------
    Total     318     318      73      73      73       0
   -------------------------------------------------------

  ==> Integral Setup <==

  ==> DiskDFJK: Density-Fitted J/K Matrices <==

    J tasked:                  Yes
    K tasked:                  Yes
    wK tasked:                 Yes
    Omega:               2.000E-01
    OpenMP threads:              1
    Integrals threads:           1
    Memory [MiB]:             2640
    Algorithm:                Core
    Integral Cache:           NONE
    Schwarz Cutoff:          1E-12
    Fitting Condition:       1E-10

   => Auxiliary Basis Set <=

  Basis Set: (6-311G AUX)
    Blend: CC-PVTZ-JKFIT
    Number of shells: 675
    Number of basis function: 2109
    Number of Cartesian functions: 2541
    Spherical Harmonics?: true
    Max angular momentum: 4

  Cached 100.0% of DFT collocation blocks in 3.242 [GiB].

[...]
	   38 R(32,36)        =      1.002148    -0.000539    -0.000017     1.002131
	   39 B(1,2,3)        =    124.206846     0.000001     0.008336   124.215181
	   40 B(1,2,10)       =    124.565142     0.000001     0.008063   124.573205
	   41 B(1,6,9)        =    107.974610     0.000003     0.001169   107.975779
	   42 B(1,6,33)       =    126.454793    -0.000006    -0.012530   126.442263
	   43 B(1,8,7)        =    104.809300    -0.000001     0.008753   104.818053
	   44 B(1,8,22)       =    130.910320     0.000003    -0.021873   130.888447
	   45 B(2,1,6)        =    130.856168     0.000006    -0.042685   130.813484
	   46 B(2,1,8)        =    122.029503    -0.000004     0.038521   122.068025
	   47 B(2,3,4)        =    135.271371     0.000000     0.015782   135.287153
	   48 B(2,3,5)        =    112.689811    -0.000002    -0.005586   112.684225
	   49 B(2,10,11)      =    119.804719     0.000001    -0.010988   119.793731
	   50 B(2,10,12)      =    120.643869     0.000000     0.007369   120.651238
	   51 B(3,2,10)       =    111.089158    -0.000002    -0.016414   111.072744
	   52 B(3,4,16)       =    115.843144     0.000004    -0.012372   115.830772
	   53 B(3,4,17)       =    125.221773    -0.000001     0.028688   125.250461
	   54 B(4,3,5)        =    112.026342     0.000002    -0.009987   112.016355
	   55 B(4,16,18)      =    121.812932     0.000000     0.007189   121.820121
	   56 B(4,16,28)      =    119.462855    -0.000000    -0.003192   119.459663
	   57 B(4,17,19)      =    120.715198     0.000003     0.009962   120.725160
	   58 B(4,17,29)      =    120.800106    -0.000006    -0.010948   120.789158
	   59 B(6,1,8)        =    106.349691    -0.000000    -0.004510   106.345181
	   60 B(6,9,7)        =    109.762228    -0.000000     0.000804   109.763032
	   61 B(6,9,34)       =    129.264902    -0.000001    -0.002989   129.261913
	   62 B(7,8,22)       =    124.210212    -0.000001     0.024031   124.234244
	   63 B(7,9,34)       =    120.906171     0.000002     0.012683   120.918853
	   64 B(8,7,9)        =    111.060129    -0.000001    -0.009835   111.050294
	   65 B(8,7,21)       =    122.311591     0.000002     0.013978   122.325569
	   66 B(9,6,33)       =    125.170464     0.000002    -0.003229   125.167235
	   67 B(9,7,21)       =    126.626377    -0.000001    -0.003321   126.623056
	   68 B(10,11,13)     =    120.164483     0.000001    -0.000171   120.164312
	   69 B(10,11,23)     =    119.195647    -0.000000     0.000881   119.196527
	   70 B(10,12,14)     =    120.265760    -0.000000    -0.002710   120.263050
	   71 B(10,12,24)     =    119.537497    -0.000000     0.001890   119.539387
	   72 B(11,10,12)     =    119.485901    -0.000001     0.003615   119.489516
	   73 B(11,13,15)     =    120.182175    -0.000000    -0.000568   120.181607
	   74 B(11,13,25)     =    119.756375     0.000001     0.002342   119.758718
	   75 B(12,14,15)     =    119.974758     0.000001     0.000779   119.975537
	   76 B(12,14,26)     =    119.859786    -0.000000    -0.001638   119.858149
	   77 B(13,11,23)     =    120.638712    -0.000001    -0.000743   120.637968
	   78 B(13,15,14)     =    119.924069    -0.000001    -0.000961   119.923108
	   79 B(13,15,27)     =    120.034870    -0.000000    -0.001284   120.033586
	   80 B(14,12,24)     =    120.164437     0.000000     0.000649   120.165087
	   81 B(14,15,27)     =    120.039309     0.000001     0.002256   120.041566
	   82 B(15,13,25)     =    120.060199    -0.000000    -0.001801   120.058398
	   83 B(15,14,26)     =    120.160397    -0.000000     0.000829   120.161226
	   84 B(16,4,17)      =    117.249411    -0.000001    -0.010700   117.238711
	   85 B(16,18,20)     =    120.591616     0.000000     0.001949   120.593565
	   86 B(16,18,30)     =    119.654622     0.000000    -0.000102   119.654520
	   87 B(17,19,20)     =    121.598242    -0.000001     0.000066   121.598308
	   88 B(17,19,31)     =    118.787147     0.000000     0.000819   118.787966
	   89 B(18,16,28)     =    118.720185    -0.000000    -0.003545   118.716640
	   90 B(18,20,19)     =    117.586505    -0.000001    -0.005241   117.581265
	   91 B(18,20,32)     =    120.811816     0.000000     0.003003   120.814819
	   92 B(19,17,29)     =    118.466778     0.000004     0.002177   118.468955
	   93 B(19,20,32)     =    121.488518     0.000001     0.003523   121.492041
	   94 B(20,18,30)     =    119.733902    -0.000000    -0.002058   119.731844
	   95 B(20,19,31)     =    119.600465     0.000000    -0.000617   119.599848
	   96 B(20,32,35)     =    119.719831     0.000003     0.020381   119.740213
	   97 B(20,32,36)     =    119.179314    -0.000002     0.005682   119.184996
	   98 B(35,32,36)     =    116.200241     0.000000     0.016353   116.216594
	   99 *D(1,2,3,4)     =    -12.212946     0.000000    -0.000002   -12.212948
	  100 D(1,2,3,5)      =    166.358332     0.000000     0.011802   166.370134
	  101 *D(1,2,10,11)   =    -51.329996    -0.000000    -0.000002   -51.329998
	  102 *D(1,2,10,12)   =    131.628440     0.000000    -0.000000   131.628440
	  103 D(1,6,9,7)      =     -0.822110    -0.000004    -0.344695    -1.166805
	  104 D(1,6,9,34)     =    176.178016    -0.000001    -0.098323   176.079694
	  105 D(1,8,7,9)      =     -2.158574     0.000001    -0.029377    -2.187950
	  106 D(1,8,7,21)     =    177.370331     0.000001     0.086613   177.456944
	  107 D(2,1,6,9)      =   -170.389727     0.000002     0.371629  -170.018099
	  108 D(2,1,6,33)     =      2.615245     0.000000     0.245811     2.861056
	  109 D(2,1,8,7)      =    172.586555    -0.000001    -0.227553   172.359002
	  110 D(2,1,8,22)     =    -10.429938     0.000001     0.017652   -10.412286
	  111 *D(2,3,4,16)    =   -178.151533     0.000000    -0.000000  -178.151533
	  112 D(2,3,4,17)     =    -13.420578     0.000002     0.022735   -13.397843
	  113 D(2,10,11,13)   =   -176.507812     0.000000     0.001222  -176.506590
	  114 D(2,10,11,23)   =      3.881244     0.000000     0.006888     3.888132
	  115 D(2,10,12,14)   =    176.823851    -0.000000    -0.000019   176.823832
	  116 D(2,10,12,24)   =     -5.239899    -0.000000    -0.005465    -5.245365
	  117 D(3,2,1,6)      =    -30.200163     0.000003     0.012491   -30.187673
	  118 D(3,2,1,8)      =    161.258385     0.000000     0.076227   161.334613
	  119 *D(3,2,10,11)   =    124.532345     0.000000     0.000002   124.532347
	  120 D(3,2,10,12)    =    -52.509219     0.000000     0.000004   -52.509215
	  121 D(3,4,16,18)    =    172.783469     0.000001    -0.010158   172.773311
	  122 D(3,4,16,28)    =     -7.956228     0.000001     0.032584    -7.923644
	  123 D(3,4,17,19)    =   -171.857259    -0.000001    -0.001364  -171.858623
	  124 D(3,4,17,29)    =      6.579342    -0.000000     0.051511     6.630852
	  125 *D(4,3,2,10)    =    171.907013    -0.000000     0.000002   171.907015
	  126 D(4,16,18,20)   =     -1.676914     0.000001     0.027244    -1.649670
	  127 D(4,16,18,30)   =    179.948407     0.000001     0.035847   179.984254
	  128 D(4,17,19,20)   =      2.870885    -0.000000     0.004040     2.874925
	  129 D(4,17,19,31)   =   -178.503207     0.000000     0.017096  -178.486111
	  130 D(5,3,2,10)     =     -9.521710     0.000000     0.011807    -9.509903
	  131 D(5,3,4,16)     =      3.270399    -0.000000    -0.011790     3.258608
	  132 D(5,3,4,17)     =    168.001354     0.000002     0.010944   168.012299
	  133 D(6,1,2,10)     =    145.130694     0.000003     0.011515   145.142210
	  134 D(6,1,8,7)      =      1.595504    -0.000003    -0.172030     1.423474
	  135 D(6,1,8,22)     =    178.579011    -0.000001     0.073175   178.652186
	  136 D(6,9,7,8)      =      1.952651     0.000002     0.240693     2.193344
	  137 D(6,9,7,21)     =   -177.551240     0.000001     0.118470  -177.432770
	  138 D(7,9,6,33)     =   -173.939867    -0.000002    -0.220068  -174.159935
	  139 D(8,1,2,10)     =    -23.410757     0.000000     0.075252   -23.335505
	  140 D(8,1,6,9)      =     -0.498397     0.000004     0.320131    -0.178266
	  141 D(8,1,6,33)     =    172.506576     0.000003     0.194313   172.700889
	  142 D(8,7,9,34)     =   -175.340632    -0.000000     0.018866  -175.321766
	  143 D(9,7,8,22)     =   -179.402164    -0.000001    -0.251849  -179.654012
	  144 D(10,11,13,15)  =     -0.436953    -0.000000    -0.002015    -0.438968
	  145 D(10,11,13,25)  =    179.969535     0.000000     0.002268   179.971803
	  146 D(10,12,14,15)  =     -0.246137    -0.000000    -0.001479    -0.247616
	  147 D(10,12,14,26)  =    178.937060    -0.000000    -0.003803   178.933257
	  148 D(11,10,12,14)  =     -0.227076    -0.000000     0.000412    -0.226664
	  149 D(11,10,12,24)  =    177.709173    -0.000000    -0.005034   177.704140
	  150 D(11,13,15,14)  =     -0.039488     0.000000     0.000962    -0.038526
	  151 D(11,13,15,27)  =   -179.558182     0.000000    -0.000612  -179.558794
	  152 D(12,10,11,13)  =      0.568194     0.000000     0.001338     0.569532
	  153 D(12,10,11,23)  =   -179.042750     0.000000     0.007004  -179.035746
	  154 D(12,14,15,13)  =      0.380384     0.000000     0.000784     0.381167
	  155 D(12,14,15,27)  =    179.899056     0.000000     0.002340   179.901396
	  156 D(13,15,14,26)  =   -178.800333     0.000000     0.003135  -178.797198
	  157 D(14,15,13,25)  =    179.552781    -0.000000    -0.003317   179.549464
	  158 D(15,13,11,23)  =    179.168311    -0.000000    -0.007757   179.160554
	  159 D(15,14,12,24)  =   -178.169380    -0.000000     0.003976  -178.165405
	  160 D(16,4,17,19)   =     -7.319376     0.000001     0.021540    -7.297836
	  161 D(16,4,17,29)   =    171.117225     0.000002     0.074414   171.191639
	  162 D(16,18,20,19)  =     -2.977666     0.000000    -0.001461    -2.979127
	  163 D(16,18,20,32)  =   -179.166751    -0.000000    -0.023269  -179.190020
	  164 D(17,4,16,18)   =      6.787793    -0.000001    -0.037346     6.750447
	  165 D(17,4,16,28)   =   -173.951905    -0.000001     0.005396  -173.946508
	  166 D(17,19,20,18)  =      2.395582    -0.000000    -0.013790     2.381792
	  167 D(17,19,20,32)  =    178.557322     0.000000     0.008152   178.565474
	  168 D(18,20,19,31)  =   -176.219382    -0.000001    -0.026969  -176.246351
	  169 *D(18,20,32,35) =    -28.688501     0.000000    -0.000000   -28.688501
	  170 D(18,20,32,36)  =    177.016387    -0.000001    -0.109344   176.907043
	  171 D(19,20,18,30)  =    175.395729     0.000000    -0.010039   175.385691
	  172 D(19,20,32,35)  =    155.272664    -0.000000    -0.022334   155.250330
	  173 D(19,20,32,36)  =      0.977552    -0.000001    -0.131678     0.845873
	  174 D(20,18,16,28)  =    179.057468     0.000000    -0.015193   179.042275
	  175 D(20,19,17,29)  =   -175.601533    -0.000001    -0.047424  -175.648957
	  176 D(21,7,8,22)    =      0.126741    -0.000001    -0.135859    -0.009118
	  177 D(21,7,9,34)    =      5.155477    -0.000001    -0.103357     5.052120
	  178 D(23,11,13,25)  =     -0.425200    -0.000000    -0.003474    -0.428675
	  179 D(24,12,14,26)  =      1.013816    -0.000000     0.001652     1.015468
	  180 D(25,13,15,27)  =      0.034088    -0.000000    -0.004891     0.029197
	  181 D(26,14,15,27)  =      0.718339     0.000000     0.004692     0.723030
	  182 D(28,16,18,30)  =      0.682789     0.000000    -0.006590     0.676199
	  183 D(29,17,19,31)  =      3.024375    -0.000001    -0.034368     2.990008
	  184 D(30,18,20,32)  =     -0.793355    -0.000000    -0.031848    -0.825203
	  185 D(31,19,20,32)  =     -0.057642    -0.000000    -0.005028    -0.062669
	  186 D(33,6,9,34)    =      3.060260     0.000000     0.026304     3.086564
	  187 R(1,17)         =      3.240148     0.000080     0.001470     3.241618
	  188 R(4,6)          =      3.353608     0.000616    -0.000215     3.353393
	  189 R(6,17)         =      3.006825    -0.001366     0.000502     3.007327
	  190 R(8,11)         =      3.307226    -0.000106    -0.000083     3.307143
	  191 R(10,22)        =      3.030431    -0.000112     0.000386     3.030817
	  192 R(11,22)        =      3.186857    -0.000803    -0.001113     3.185744
	 ---------------------------------------------------------------------------
	Successfully symmetrized geometry.

  ==> Convergence Check <==

  Measures of convergence in internal coordinates in au.
  Criteria marked as inactive (o), active & met (*), and active & unmet ( ).
  ---------------------------------------------------------------------------------------------
   Step     Total Energy     Delta E     MAX Force     RMS Force      MAX Disp      RMS Disp   
  ---------------------------------------------------------------------------------------------
    Convergence Criteria             o    2.50e-03 *    1.70e-03 *    1.00e-02 *    6.70e-03 *
  ---------------------------------------------------------------------------------------------
     10    -895.96295805   -4.35e-06 o    2.36e-04 *    5.16e-05 *    6.49e-03 *    1.19e-03 *  ~
  ---------------------------------------------------------------------------------------------


  **** Optimization is complete! (in 10 steps) ****

  ==> Optimization Summary <==

  Measures of convergence in internal coordinates in au.
  --------------------------------------------------------------------------------------------------------------- ~
   Step         Total Energy             Delta E       MAX Force       RMS Force        MAX Disp        RMS Disp  ~
  --------------------------------------------------------------------------------------------------------------- ~
      1    -895.953487255595   -895.953487255595      0.03881514      0.00424859      0.06268711      0.01430728  ~
      2    -895.958662494412     -0.005175238817      0.00759485      0.00103294      0.08308064      0.01442930  ~
      3    -895.960435618747     -0.001773124335      0.00308837      0.00055836      0.08180899      0.01438148  ~
      4    -895.961633457385     -0.001197838638      0.00231093      0.00039473      0.08274619      0.01442932  ~
      5    -895.962415410223     -0.000781952838      0.00128847      0.00026181      0.07575375      0.01438952  ~
      6    -895.962818689463     -0.000403279240      0.00125408      0.00018285      0.08763567      0.01339217  ~
      7    -895.962839250653     -0.000020561190      0.00120339      0.00024860      0.04659959      0.00951575  ~
      8    -895.962875902511     -0.000036651858      0.00129766      0.00022571      0.02121667      0.00456458  ~
      9    -895.962953695675     -0.000077793164      0.00024991      0.00004605      0.01423550      0.00201484  ~
     10    -895.962958046062     -0.000004350387      0.00023623      0.00005163      0.00648614      0.00119091  ~
  --------------------------------------------------------------------------------------------------------------- ~

	Writing optimization data to binary file.
	Final energy is   -895.9629580460623
	Final (previous) structure:
	Cartesian Geometry (in Angstrom)
	    C    -0.5579777330   1.3553144687  -0.2998240007
	    C    -0.7206265411   0.0099850507  -0.0699490911
	    N     0.2412935541  -0.8016943963   0.4874636388
	    C     1.6251778471  -0.6743140182   0.7744568909
	    H    -0.1246478727  -1.6947896394   0.7788674106
	    C     0.2402390349   2.3578150870   0.4072687548
	    N    -1.0645863805   3.4355065968  -1.0730443125
	    C    -1.4191145081   2.0995245441  -1.2447903403
	    C    -0.0983281960   3.5741840966  -0.0723447683
	    C    -1.9866420810  -0.7382695812  -0.2969996957
	    C    -3.1810124430  -0.2652063005   0.2523772512
	    C    -1.9844951837  -1.9449880811  -1.0039256076
	    C    -4.3542698507  -0.9955724752   0.1064991287
	    C    -3.1621932612  -2.6716908856  -1.1550901239
	    C    -4.3476178525  -2.1997558268  -0.5966340693
	    C     2.2419316870  -1.8070433770   1.3303163183
	    C     2.4611275564   0.3345473694   0.2846366427
	    C     3.6115313897  -1.8721097029   1.5220750766
	    C     3.8359770362   0.2784094788   0.4868272593
	    C     4.4388228376  -0.8086668582   1.1300412498
	    H    -1.4670335289   4.1705220254  -1.6205684576
	    O    -2.2525541126   1.6971490537  -2.0806859478
	    H    -3.1804071395   0.6757933321   0.7844991632
	    H    -1.0677316238  -2.2936508231  -1.4616074350
	    H    -5.2747321895  -0.6235423469   0.5347499424
	    H    -3.1565288084  -3.5952698477  -1.7176455205
	    H    -5.2634823748  -2.7626526486  -0.7148223159
	    H     1.6330252660  -2.6525565136   1.6304616633
	    H     2.0590621903   1.1578715722  -0.2779371085
	    H     4.0500198037  -2.7621653011   1.9542475796
	    H     4.4511785135   1.0885385953   0.1155070374
	    N     5.8152141397  -0.8762515816   1.3045519748
	    H     0.8909314139   2.1816775186   1.2433819564
	    H     0.2354327802   4.5470861650   0.2423569394
	    H     6.1947778163  -1.4254195081   2.0515692264
	    H     6.3871241347  -0.1222369702   0.9748821190
	Saving final (previous) structure.
			--------------------------
			 OPTKING Finished Execution 
			--------------------------

    Final optimized geometry and variables:
    Molecular point group: c1
    Full point group: C1

    Geometry (in Angstrom), charge = 0, multiplicity = 1:

    C           -0.557977735177     1.355314474049    -0.299824001844
    C           -0.720626543924     0.009985050733    -0.069949091358
    N            0.241293555092    -0.801694399413     0.487463640691
    C            1.625177853524    -0.674314020831     0.774456893956
    H           -0.124647873180    -1.694789646088     0.778867413663
    C            0.240239035845     2.357815096229     0.407268756430
    N           -1.064586384687     3.435506610346    -1.073044316763
    C           -1.419114513683     2.099524552372    -1.244790345175
    C           -0.098328196420     3.574184110661    -0.072344768586
    C           -1.986642088854    -0.738269584081    -0.296999696876
    C           -3.181012455493    -0.265206301527     0.252377252184
    C           -1.984495191507    -1.944988088728    -1.003925611504
    C           -4.354269867855    -0.995572479089     0.106499129150
    C           -3.162193273660    -2.671690896148    -1.155090128488
    C           -4.347617869558    -2.199755835478    -0.596634071631
    C            2.241931695816    -1.807043384064     1.330316323492
    C            2.461127566081     0.334547370667     0.284636643862
    C            3.611531403914    -1.872109710251     1.522075082546
    C            3.835977051242     0.278409479942     0.486827261227
    C            4.438822855070    -0.808666861373     1.130041254282
    H           -1.467033534675     4.170522041803    -1.620568463970
    O           -2.252554121478     1.697149060324    -2.080685955971
    H           -3.180407152047     0.675793334782     0.784499166240
    H           -1.067731628032    -2.293650832151    -1.461607440772
    H           -5.274732210228    -0.623542349325     0.534749944519
    H           -3.156528820816    -3.595269861835    -1.717645527246
    H           -5.263482395502    -2.762652659426    -0.714822318665
    H            1.633025272391    -2.652556524025     1.630461669747
    H            2.059062198396     1.157871576708    -0.277937109556
    H            4.050019819589    -2.762165311988     1.954247587265
    H            4.451178530972     1.088538599596     0.115507037901
    N            5.815214162530    -0.876251585064     1.304551979886
    H            0.890931417364     2.181677527206     1.243381961267
    H            0.235432781102     4.547086182887     0.242356940321
    H            6.194777840661    -1.425419513659     2.051569234494
    H            6.387124159800    -0.122236970633     0.974882122861

	Removing binary optimization data file.
	Cleaning optimization helper files.

    Psi4 stopped on: Friday, 05 November 2021 02:49PM
    Psi4 wall time for execution: 2:54:01.98

*** Psi4 exiting successfully. Buy a developer a beer!
